------------------------------------------------------------
          Invoking FHI-aims ...
          Version 171221_1
          Compiled on 2019/05/06 at 14:26:40 on host ffph0xx.

          When using FHI-aims, please cite the following reference:

          Volker Blum, Ralf Gehrke, Felix Hanke, Paula Havu,
          Ville Havu, Xinguo Ren, Karsten Reuter, and Matthias Scheffler,
          'Ab Initio Molecular Simulations with Numeric Atom-Centered Orbitals',
          Computer Physics Communications 180, 2175-2196 (2009)

          For any questions about FHI-aims, please visit the aimsclub website
          with its forums and wiki. Contributions to both the forums and the
          wiki are warmly encouraged - they are for you, and everyone is welcome there.

------------------------------------------------------------



  Date     :  20190508, Time     :  170358.545
  Time zero on CPU 1             :   0.736000000000000E-03  s.
  Internal wall clock time zero  :           326567038.545  s.

  FHI-aims created a unique identifier for this run for later identification
  aims_uuid : 39165D47-CF0C-4F73-A8C9-A2FAF81C75A0


  Performing system and environment tests:
  *** Environment variable OMP_NUM_THREADS is not set
  *** For performance reasons you might want to set it to 1
  | Stacksize not measured: no C compiler

  Obtaining array dimensions for all initial allocations:
  
  -----------------------------------------------------------------------
  Parsing control.in (first pass over file, find array dimensions only).
  The contents of control.in will be repeated verbatim below
  unless switched off by setting 'verbatim_writeout .false.' .
  in the first line of control.in .
  -----------------------------------------------------------------------
  
  # Relaxation of the H3O+ molecule
  #--- Method ---
    xc  pw-lda
    charge 1.0 # this gives the cation
    spin none
  
  #######Iteration limit####################
    sc_iter_limit 100
  
  #######Relaxation######################
    ##########relax_geometry trm 1E-3
  
  #######Species#########################
  ################################################################################
  #
  #  FHI-aims code project
  #  VB, Fritz-Haber Institut, 2009
  #
  #  Suggested "light" defaults for H atom (to be pasted into control.in file)
  #  Be sure to double-check any results obtained with these settings for post-processing,
  #  e.g., with the "tight" defaults and larger basis sets.
  #
  ################################################################################
    species        H
  #     global species definitions
      nucleus             1
      mass                1.00794
  #
      l_hartree           4
  #
      cut_pot             3.5  1.5  1.0
      basis_dep_cutoff    1e-4
  #
      radial_base         24 5.0
      radial_multiplier   1
      angular_grids       specified
        division   0.2421   50
        division   0.3822  110
        division   0.4799  194
        division   0.5341  302
  #      division   0.5626  434
  #      division   0.5922  590
  #      division   0.6542  770
  #      division   0.6868 1202
  #      outer_grid  770
        outer_grid  302
  ################################################################################
  #
  #  Definition of "minimal" basis
  #
  ################################################################################
  #     valence basis states
      valence      1  s   1.
  #     ion occupancy
      ion_occ      1  s   0.5
  ################################################################################
  #
  #  Suggested additional basis functions. For production calculations,
  #  uncomment them one after another (the most important basis functions are
  #  listed first).
  #
  #  Basis constructed for dimers: 0.5 A, 0.7 A, 1.0 A, 1.5 A, 2.5 A
  #
  ################################################################################
  #  "First tier" - improvements: -1014.90 meV to -62.69 meV
       hydro 2 s 2.1
       hydro 2 p 3.5
  #  "Second tier" - improvements: -12.89 meV to -1.83 meV
  #     hydro 1 s 0.85
  #     hydro 2 p 3.7
  #     hydro 2 s 1.2
  #     hydro 3 d 7
  #  "Third tier" - improvements: -0.25 meV to -0.12 meV
  #     hydro 4 f 11.2
  #     hydro 3 p 4.8
  #     hydro 4 d 9
  #     hydro 3 s 3.2
  ################################################################################
  #
  #  FHI-aims code project
  #  VB, Fritz-Haber Institut, 2009
  #
  #  Suggested "light" defaults for O atom (to be pasted into control.in file)
  #  Be sure to double-check any results obtained with these settings for post-processing,
  #  e.g., with the "tight" defaults and larger basis sets.
  #
  ################################################################################
    species        O
  #     global species definitions
      nucleus             8
      mass                15.9994
  #
      l_hartree           4
  #
      cut_pot             3.5  1.5  1.0
      basis_dep_cutoff    1e-4
  #
      radial_base         36 5.0
      radial_multiplier   1
       angular_grids specified
        division   0.2659   50
        division   0.4451  110
        division   0.6052  194
        division   0.7543  302
  #      division   0.8014  434
  #      division   0.8507  590
  #      division   0.8762  770
  #      division   0.9023  974
  #      division   1.2339 1202
  #      outer_grid 974
        outer_grid 302
  ################################################################################
  #
  #  Definition of "minimal" basis
  #
  ################################################################################
  #     valence basis states
      valence      2  s   2.
      valence      2  p   4.
  #     ion occupancy
      ion_occ      2  s   1.
      ion_occ      2  p   3.
  ################################################################################
  #
  #  Suggested additional basis functions. For production calculations,
  #  uncomment them one after another (the most important basis functions are
  #  listed first).
  #
  #  Constructed for dimers: 1.0 A, 1.208 A, 1.5 A, 2.0 A, 3.0 A
  #
  ################################################################################
  #  "First tier" - improvements: -699.05 meV to -159.38 meV
       hydro 2 p 1.8
       hydro 3 d 7.6
       hydro 3 s 6.4
  #  "Second tier" - improvements: -49.91 meV to -5.39 meV
  #     hydro 4 f 11.6
  #     hydro 3 p 6.2
  #     hydro 3 d 5.6
  #     hydro 5 g 17.6
  #     hydro 1 s 0.75
  #  "Third tier" - improvements: -2.83 meV to -0.50 meV
  #     ionic 2 p auto
  #     hydro 4 f 10.8
  #     hydro 4 d 4.7
  #     hydro 2 s 6.8
  #  "Fourth tier" - improvements: -0.40 meV to -0.12 meV
  #     hydro 3 p 5
  #     hydro 3 s 3.3
  #     hydro 5 g 15.6
  #     hydro 4 f 17.6
  #     hydro 4 d 14
  # Further basis functions - -0.08 meV and below
  #     hydro 3 s 2.1
  #     hydro 4 d 11.6
  #     hydro 3 p 16
  #     hydro 2 s 17.2
  /afs/ictp.it/public/shared/smr2475/fhi-aims/species_defaults/light/01_H_default
  compute_forces .true.
  final_forces_cleaned .true.
  output dipole
  
  -----------------------------------------------------------------------
  Completed first pass over input file control.in .
  -----------------------------------------------------------------------
  
  
  -----------------------------------------------------------------------
  Parsing geometry.in (first pass over file, find array dimensions only).
  The contents of geometry.in will be repeated verbatim below
  unless switched off by setting 'verbatim_writeout .false.' .
  in the first line of geometry.in .
  -----------------------------------------------------------------------
  
  #
  # temporary structure-file for finite-difference calculation of forces
  # displacement   0.0020 of \# atom     1 direction     1
  #
  atom   -0.00000000   -0.00002910    0.00000000   O
  atom    0.85488761   -0.49152200   -0.00000000   H
  atom   -0.85488761   -0.49352200   -0.00000000   H
  atom   -0.00000000    0.98707310   -0.00000000   H
  
  -----------------------------------------------------------------------
  Completed first pass over input file geometry.in .
  -----------------------------------------------------------------------
  

  Basic array size parameters:
  | Number of species                 :        2
  | Number of atoms                   :        4
  | Max. basis fn. angular momentum   :        2
  | Max. atomic/ionic basis occupied n:        2
  | Max. number of basis fn. types    :        2
  | Max. radial fns per species/type  :        3
  | Max. logarithmic grid size        :     1301
  | Max. radial integration grid size :       36
  | Max. angular integration grid size:      302
  | Max. angular grid division number :        8
  | Radial grid for Hartree potential :     1301
  | Number of spin channels           :        1

------------------------------------------------------------
          Reading file control.in.
------------------------------------------------------------
  XC: Using Perdew-Wang parametrisation of Ceperley-Alder LDA.
  Charged system requested: Charge =   0.100000E+01.
  Spin treatment: No spin polarisation.
  Maximum number of s.-c. iterations  :   100

  Reading configuration options for species H                   .
  | Found nuclear charge :   1.0000
  | Found atomic mass :    1.0079400000000001      amu
  | Found l_max for Hartree potential  :   4
  | Found cutoff potl. onset [A], width [A], scale factor :    3.50000    1.50000    1.00000
  | Threshold for basis-dependent cutoff potential is   0.100000E-03
  | Found data for basic radial integration grid :    24 points, outermost radius =    5.000 A
  | Found multiplier for basic radial grid :   1
  | Found angular grid specification: user-specified.
  | Specified grid contains     5 separate shells.
  | Check grid settings after all constraints further below.
  | Found free-atom valence shell :  1 s   1.000
  | No ionic wave fns used. Skipping ion_occ.
  | Found hydrogenic basis function :  2 s   2.100
  | Found hydrogenic basis function :  2 p   3.500
  Species H                   : Missing cutoff potential type.
  Defaulting to exp(1/x)/(1-x)^2 type cutoff potential.
  Species H : No 'logarithmic' tag. Using default grid for free atom:
  | Default logarithmic grid data [bohr] : 0.1000E-03 0.1000E+03 0.1012E+01
  Species H : On-site basis accuracy parameter (for Gram-Schmidt orthonormalisation) not specified.
  Using default value basis_acc =  0.1000000E-03.
  Species H                   : Using default innermost maximum threshold i_radial=  2 for radial functions.
  Species H                   : Default cutoff onset for free atom density etc. : 0.35000000E+01 AA.
  Species H                   : Basic radial grid will be enhanced according to radial_multiplier =   1, to contain    24 grid points.

  Reading configuration options for species O                   .
  | Found nuclear charge :   8.0000
  | Found atomic mass :    15.999400000000000      amu
  | Found l_max for Hartree potential  :   4
  | Found cutoff potl. onset [A], width [A], scale factor :    3.50000    1.50000    1.00000
  | Threshold for basis-dependent cutoff potential is   0.100000E-03
  | Found data for basic radial integration grid :    36 points, outermost radius =    5.000 A
  | Found multiplier for basic radial grid :   1
  | Found angular grid specification: user-specified.
  | Specified grid contains     5 separate shells.
  | Check grid settings after all constraints further below.
  | Found free-atom valence shell :  2 s   2.000
  | Found free-atom valence shell :  2 p   4.000
  | No ionic wave fns used. Skipping ion_occ.
  | No ionic wave fns used. Skipping ion_occ.
  | Found hydrogenic basis function :  2 p   1.800
  | Found hydrogenic basis function :  3 d   7.600
  | Found hydrogenic basis function :  3 s   6.400
  Species O                   : Missing cutoff potential type.
  Defaulting to exp(1/x)/(1-x)^2 type cutoff potential.
  Species O : No 'logarithmic' tag. Using default grid for free atom:
  | Default logarithmic grid data [bohr] : 0.1000E-03 0.1000E+03 0.1012E+01
  Species O : On-site basis accuracy parameter (for Gram-Schmidt orthonormalisation) not specified.
  Using default value basis_acc =  0.1000000E-03.
  Species O                   : Using default innermost maximum threshold i_radial=  2 for radial functions.
  Species O                   : Default cutoff onset for free atom density etc. : 0.35000000E+01 AA.
  Species O                   : Basic radial grid will be enhanced according to radial_multiplier =   1, to contain    36 grid points.
  Forces will be computed.
  Cleaning forces before final output.
  Dipole moment will be written out.

  Finished reading input file 'control.in'. Consistency checks are next.

  MPI_IN_PLACE appears to work with this MPI implementation.
  | Keeping use_mpi_in_place .true. (see manual).
  Target number of points in a grid batch is not set. Defaulting to  100
  Method for grid partitioning is not set. Defaulting to 'maxmin' partitioning.
  Batch size limit is not set. Defaulting to    200
  By default, will store active basis functions for each batch.
  If in need of memory, prune_basis_once .false. can be used to disable this option.
  communication_type for Hartree potential was not specified.
  Defaulting to calc_hartree .
 * Attention: 
 * You may want to set distributed_spline_storage to .true. in order to save memory.
 * This doesn't harm performance and is perfectly ok unless:
 * - you get error messages in postprocessing (about missing atoms in get_rho_multipole_spl)
 * - you need full spline storage in hirshfeld_analysis
  Defaulting to Pulay charge density mixer.
  Pulay mixer: Number of relevant iterations not set.
  Defaulting to    8 iterations.
  Pulay mixer: Number of initial linear mixing iterations not set.
  Defaulting to    0 iterations.
  Work space size for distributed Hartree potential not set.
  Defaulting to   0.200000E+03 MB.
  Mixing parameter for charge density mixing has not been set.
  Using default: charge_mix_param =     0.0500.
  The mixing parameter will be adjusted in iteration number     2 of the first full s.c.f. cycle only.
  Algorithm-dependent basis array size parameters:
  | n_max_pulay                         :        8
 * Notice: The s.c.f. convergence criterion sc_accuracy_rho was not provided.
 * We used to stop in this case, and ask the user to provide reasonable
 * scf convergence criteria. However, this led some users to employ criteria
 * that led to extremely long run times, e.g., for simple relaxation.
 * We now preset a default value for sc_accuracy_rho if it is not set.
 * You may still wish to check if this setting is too tight or too loose for your needs.
 * Based on n_atoms, FHI-aims chose sc_accuracy_rho =  0.100000E-05 .
  Presetting      1001 iterations before the initial mixing cycle
  is restarted anyway using the sc_init_iter criterion / keyword.
  Presetting a factor      1.000 between actual scf density residual
  and density convergence criterion sc_accuracy_rho below which sc_init_iter
  takes no effect.
 * No s.c.f. convergence criteria (sc_accuracy_*) were provided in control.in.
 * The run will proceed with a reasonable default guess, but please check whether.
 * the s.c.f. cycles seem to take too much or too little time.
  Geometry relaxation not requested: no relaxation will be performed.
  Force calculation: scf convergence accuracy of forces not set.
  Defaulting to 'sc_accuracy_forces not_checked'.
  Handling of forces: Unphysical translation and rotation will be removed from forces.
  No accuracy limit for integral partition fn. given. Defaulting to  0.1000E-14.
  No threshold value for u(r) in integrations given. Defaulting to  0.1000E-05.
  No occupation type (smearing scheme) given. Defaulting to Gaussian broadening, width =  0.1000E-01 eV.
  The width will be adjusted in iteration number     2 of the first full s.c.f. cycle only.
  S.C.F. convergence parameters will be adjusted in iteration number     2 of the first full s.c.f. cycle only.
  No accuracy for occupation numbers given. Defaulting to  0.1000E-12.
  No threshold value for occupation numbers given. Defaulting to  0.0000E+00.
  No accuracy for fermi level given. Defaulting to  0.1000E-19.
  Maximum # of iterations to find E_F not set. Defaulting to  200.
  Preferred method for the eigenvalue solver ('KS_method') not specified in 'control.in'.
  Defaulting to serial version, 'lapack_fast'.
  Will not use alltoall communication since running on < 1024 CPUs.
  Threshold for basis singularities not set.
  Default threshold for basis singularities:  0.1000E-04
  partition_type (choice of integration weights) for integrals was not specified.
  | Using a version of the partition function of Stratmann and coworkers ('stratmann_smoother').
  | At each grid point, the set of atoms used to build the partition table is smoothly restricted to
  | only those atoms whose free-atom density would be non-zero at that grid point.
  Partitioning for Hartree potential was not defined. Using partition_type for integrals.
  | Adjusted default value of keyword multip_moments_threshold to:       0.10000000E-11
  | This value may affect high angular momentum components of the Hartree potential in periodic systems.
  No q(lm)/r^(l+1) cutoff set for long-range Hartree potential.
  | Using default value of  0.100000E-09 .
  | Verify using the multipole_threshold keyword.
  Defaulting to new monopole extrapolation.
  Density update method: automatic selection selected.
------------------------------------------------------------


------------------------------------------------------------
          Reading geometry description geometry.in.
------------------------------------------------------------
 * Warning: Initial charge and total charge of the system are inconsistent.
 * Selected charge in control.in:     1.0000* Sum of initial charges in geometry.in:     0.0000
 * Warning! You did not set the 'relativistic' flag in input file 'control.in'.
 * Since you are not attempting to treat any elements beyond Ca(Z=20), FHI-aims
 * will default to 'relativistic none'.
 * You must ensure that this is really what you want!!
 * For example, DO NOT compute total-energy differences between results from
 * different settings of the 'relativistic' flag.
  Input structure read successfully.
  The structure contains        4 atoms,  and a total of         10.000 electrons.

  Input geometry:
  | No unit cell requested.
  | Atomic structure:
  |       Atom                x [A]            y [A]            z [A]
  |    1: Species O            -0.00000000       -0.00002910        0.00000000
  |    2: Species H             0.85488761       -0.49152200       -0.00000000
  |    3: Species H            -0.85488761       -0.49352200       -0.00000000
  |    4: Species H            -0.00000000        0.98707310       -0.00000000
  |

  | The smallest distance between any two atoms is         0.98610248 AA.
  |
  | The first atom of this pair is atom number                      1 .
  | The second atom of this pair is atom number                     2 .

  Number of empty states per atom not set in control.in - providing a guess from actual geometry.
  | Total number of empty states used during s.c.f. cycle:        8
  If you use a very high smearing, use empty_states (per atom!) in control.in to increase this value.

  Structure-dependent array size parameters: 
  | Maximum number of distinct radial functions  :        9
  | Maximum number of basis functions            :       29
  | Number of Kohn-Sham states (occupied + empty):       13
------------------------------------------------------------

------------------------------------------------------------
          Preparing all fixed parts of the calculation.
------------------------------------------------------------
  Determining machine precision:
     2.2250738585072014E-308
  Setting up grids for atomic and cluster calculations.

  Creating wave function, potential, and density for free atoms.

  Species: H

  List of occupied orbitals and eigenvalues:
    n    l              occ      energy [Ha]    energy [eV]
    1    0           1.0000        -0.232375        -6.3233


  Species: O

  List of occupied orbitals and eigenvalues:
    n    l              occ      energy [Ha]    energy [eV]
    1    0           2.0000       -18.757744      -510.4242
    2    0           2.0000        -0.870917       -23.6989
    2    1           4.0000        -0.337950        -9.1961

  Creating fixed part of basis set: Ionic, confined, hydrogenic.

  H                    hydrogenic:

  List of hydrogenic basis orbitals: 
    n    l      effective z      eigenvalue [eV]  inner max. [A]     outer max. [A]     outer radius [A]   
    2    0         2.100000       -14.9728           0.193243           1.317208           4.583499
    2    1         3.500000       -41.6669           0.602369           0.602369           3.723403


  O                    hydrogenic:

  List of hydrogenic basis orbitals: 
    n    l      effective z      eigenvalue [eV]  inner max. [A]     outer max. [A]     outer radius [A]   
    2    1         1.800000       -10.9749           1.164242           1.164242           4.578029
    3    2         7.600000       -87.3180           0.624125           0.624125           3.251020
    3    0         6.400000       -61.9207           0.061167           1.081902           4.001998


  Adding cutoff potential to free-atom effective potential.
  Creating atomic-like basis functions for current effective potential.

  Species H                   :

  List of atomic basis orbitals and eigenvalues:
    n    l      energy [Ha]    energy [eV]    outer radius [A]
    1    0        -0.232375        -6.3233       4.527807


  Species O                   :

  List of atomic basis orbitals and eigenvalues:
    n    l      energy [Ha]    energy [eV]    outer radius [A]
    1    0       -18.757744      -510.4242       1.433179
    2    0        -0.870917       -23.6989       4.413171
    2    1        -0.337950        -9.1961       4.522403

  Assembling full basis from fixed parts.
  | Species H :   atomic orbital   1 s accepted.
  | Species H :    hydro orbital   2 s accepted.
  | Species H :    hydro orbital   2 p accepted.
  | Species O :   atomic orbital   1 s accepted.
  | Species O :    hydro orbital   3 s accepted.
  | Species O :   atomic orbital   2 s accepted.
  | Species O :   atomic orbital   2 p accepted.
  | Species O :    hydro orbital   2 p accepted.
  | Species O :    hydro orbital   3 d accepted.

  Basis size parameters after reduction:
  | Total number of radial functions:        9
  | Total number of basis functions :       29

  Per-task memory consumption for arrays in subroutine allocate_ext:
  |           2.249476MB.
  Testing on-site integration grid accuracy.
  |  Species  Function  <phi|h_atom|phi> (log., in eV)  <phi|h_atom|phi> (rad., in eV)
           1        1                 -6.3245358373                 -6.3232436907
           1        2                 14.1326137532                 14.1384481100
           1        3                 25.3627025200                 25.3628451197
           2        4               -510.4241781769               -510.4240769412
           2        5                 14.9072942218                 14.9072945276
           2        6                -21.2004736467                -21.2005650544
           2        7                 -9.1962086499                 -9.1963509828
           2        8                  8.1896755011                  8.1702200086
           2        9                 45.7920584945                 45.7920228528

  Preparing densities etc. for the partition functions (integrals / Hartree potential).

  Preparations completed.
  max(cpu_time)          :      0.047 s.
  Wall clock time (cpu1) :      0.048 s.
------------------------------------------------------------

------------------------------------------------------------
          Begin self-consistency loop: Initialization.

          Date     :  20190508, Time     :  170358.594
------------------------------------------------------------

  Initializing index lists of integration centers etc. from given atomic structure:
  | Number of centers in hartree potential         :         4
  | Number of centers in hartree multipole         :         4
  | Number of centers in electron density summation:         4
  | Number of centers in basis integrals           :         4
  | Number of centers in integrals                 :         4
  | Number of centers in hamiltonian               :         4
  Partitioning the integration grid into batches with maxmin method.
  | Maximal weight for a single point:     1.000
  | Minimal weight for a single point:     0.000
  | Number of batches:      256
  | Maximal batch size:      90
  | Minimal batch size:      72
  | Average batch size:      80.719
  | Standard deviation of batch sizes:       6.450
  Initializing partition tables, free-atom densities, potentials, etc. across the integration grid (initialize_grid_storage).
  | initialize_grid_storage: Actual outermost partition radius vs. multipole_radius_free
  | (-- VB: in principle, multipole_radius_free should be larger, hence this output)
  | Species        1: Confinement radius =              4.999999999999999 AA, multipole_radius_free =              5.054417573612229 AA.
  | Species        1: outer_partition_radius set to              5.054417573612229 AA .
  | Species        2: Confinement radius =              4.999999999999999 AA, multipole_radius_free =              5.048384829883283 AA.
  | Species        2: outer_partition_radius set to              5.048384829883283 AA .
  | Original list of interatomic distances with           4 x          4 entries is created.
  | Net number of integration points:    20664
  | of which are non-zero points    :    18432
  Renormalizing the initial density to the exact electron count on the 3D integration grid.
  | Initial density: Formal number of electrons (from input files) :      11.0000000000
  | Integrated number of electrons on 3D grid     :      10.9999404053
  | Charge integration error                      :      -0.0000595947
  | Normalization factor for density and gradient :       1.0000054177
  Obtaining max. number of non-zero basis functions in each batch (get_n_compute_maxes).
  | Maximal number of non-zero basis functions:       29 in task     0
  Selecting the method for density update.
  Loop over occupied states selected for charge density update.
  Allocating        0.003 MB for KS_eigenvector
  Integrating Hamiltonian matrix: batch-based integration.
  Time summed over all CPUs for integration: real work        0.028 s, elapsed        0.028 s
  Integrating overlap matrix.
  Time summed over all CPUs for integration: real work        0.015 s, elapsed        0.015 s

  Updating Kohn-Sham eigenvalues, eigenvectors, occupation numbers, and Fermi level.
  Solving generalized eigenproblem
  Updating Kohn-Sham eigenvalues and eigenfunctions.
  Transforming overlap matrix and checking for singularities.
  Overlap matrix is nonsingular:
  | Lowest eigenvalue:  0.120275E-01
  Solving real generalised eigenvalue problem by standard LAPACK (fast)

  Obtaining occupation numbers and chemical potential using ELSI.
  | Chemical potential (Fermi level):    -6.56415938eV
  Writing Kohn-Sham eigenvalues.

  State    Occupation    Eigenvalue [Ha]    Eigenvalue [eV]
      1       2.00000         -18.915160         -514.70768
      2       2.00000          -1.148678          -31.25712
      3       2.00000          -0.685612          -18.65645
      4       2.00000          -0.685143          -18.64370
      5       2.00000          -0.492060          -13.38963
      6       0.00000          -0.091548           -2.49116
      7       0.00000           0.005480            0.14913
      8       0.00000           0.005769            0.15698
      9       0.00000           0.209651            5.70489
     10       0.00000           0.264648            7.20144
     11       0.00000           0.265157            7.21530
     12       0.00000           0.427910           11.64402
     13       0.00000           0.677162           18.42651

  Highest occupied state (VBM) at    -13.38962543 eV
  | Occupation number:      2.00000000

  Lowest unoccupied state (CBM) at    -2.49115963 eV
  | Occupation number:      0.00000000

  Overall HOMO-LUMO gap:     10.89846580 eV.
  Calculating total energy contributions from superposition of free atom densities.

  Total energy components:
  | Sum of eigenvalues            :         -43.85330511 Ha       -1193.30914692 eV
  | XC energy correction          :          -8.86486103 Ha        -241.22514209 eV
  | XC potential correction       :          11.67297729 Ha         317.63787320 eV
  | Free-atom electrostatic energy:         -35.26588403 Ha        -959.63353015 eV
  | Hartree energy correction     :          -0.00000000 Ha          -0.00000000 eV
  | Entropy correction            :          -0.00000000 Ha          -0.00000000 eV
  | ---------------------------
  | Total energy                  :         -76.31107289 Ha       -2076.52994594 eV
  | Total energy, T -> 0          :         -76.31107289 Ha       -2076.52994594 eV  <-- do not rely on this value for anything but (periodic) metals
  | Electronic free energy        :         -76.31107289 Ha       -2076.52994594 eV

  Derived energy quantities:
  | Kinetic energy                :          75.66694107 Ha        2059.00222734 eV
  | Electrostatic energy          :        -143.11315292 Ha       -3894.30703120 eV
  | Energy correction for multipole
  | error in Hartree potential    :           0.00000000 Ha           0.00000000 eV
  | Sum of eigenvalues per atom                           :        -298.32728673 eV
  | Total energy (T->0) per atom                          :        -519.13248649 eV  <-- do not rely on this value for anything but (periodic) metals
  | Electronic free energy per atom                       :        -519.13248649 eV
  Initialize hartree_potential_storage
  Max. number of atoms included in rho_multipole:            4

  End scf initialization - timings             :  max(cpu_time)    wall_clock(cpu1)
  | Time for scf. initialization               :        0.084 s           0.083 s
  | Boundary condition initialization          :        0.000 s           0.000 s
  | Integration                                :        0.043 s           0.043 s
  | Solution of K.-S. eqns.                    :        0.001 s           0.001 s
  | Grid partitioning                          :        0.014 s           0.014 s
  | Preloading free-atom quantities on grid    :        0.001 s           0.001 s
  | Free-atom superposition energy             :        0.012 s           0.012 s
  | Total energy evaluation                    :        0.000 s           0.000 s

  Partial memory accounting:
  | Current value for overall tracked memory usage on task 0  :           0.017 MB
  | Peak value for overall tracked memory usage on task 0     :           0.080 MB after allocating wave
  | Largest tracked array allocation on task 0 so far         :           0.021 MB  when allocating H_times_psi
  Note:  These values currently only include a subset of arrays which are explicitly tracked.
  The "true" memory usage will be greater.
------------------------------------------------------------

------------------------------------------------------------
          Begin self-consistency iteration #    1

  Date     :  20190508, Time     :  170358.678
------------------------------------------------------------
  Evaluating new KS density.
  Integration grid: deviation in total charge (<rho> - N_e) =   4.263256E-14
  Pulay mixing of updated and previous charge densities.

  Evaluating partitioned Hartree potential by multipole expansion.
  | Analytical far-field extrapolation by fixed multipoles:
  | Hartree multipole sum: apparent total charge =   0.499199E-01
  Summing up the Hartree potential.
  Time summed over all CPUs for potential: real work        0.016 s, elapsed        0.016 s
  | RMS charge density error from multipole expansion :   0.542658E-03

  Integrating Hamiltonian matrix: batch-based integration.
  Time summed over all CPUs for integration: real work        0.028 s, elapsed        0.028 s

  Updating Kohn-Sham eigenvalues, eigenvectors, occupation numbers, and Fermi level.
  Solving generalized eigenproblem
  Updating Kohn-Sham eigenvalues and eigenfunctions.
  Solving real generalised eigenvalue problem by standard LAPACK (fast)

  Obtaining occupation numbers and chemical potential using ELSI.
  | Chemical potential (Fermi level):    -6.76743332eV
  Writing Kohn-Sham eigenvalues.

  State    Occupation    Eigenvalue [Ha]    Eigenvalue [eV]
      1       2.00000         -18.904205         -514.40958
      2       2.00000          -1.151992          -31.34729
      3       2.00000          -0.690505          -18.78959
      4       2.00000          -0.690038          -18.77690
      5       2.00000          -0.494140          -13.44623
      6       0.00000          -0.101587           -2.76432
      7       0.00000          -0.003761           -0.10234
      8       0.00000          -0.003466           -0.09431
      9       0.00000           0.202628            5.51378
     10       0.00000           0.254499            6.92527
     11       0.00000           0.255005            6.93905
     12       0.00000           0.417662           11.36516
     13       0.00000           0.668785           18.19857

  Highest occupied state (VBM) at    -13.44623425 eV
  | Occupation number:      2.00000000

  Lowest unoccupied state (CBM) at    -2.76432407 eV
  | Occupation number:      0.00000000

  Overall HOMO-LUMO gap:     10.68191019 eV.

  Total energy components:
  | Sum of eigenvalues            :         -43.86175851 Ha       -1193.53917559 eV
  | XC energy correction          :          -8.86876434 Ha        -241.33135658 eV
  | XC potential correction       :          11.67834347 Ha         317.78389439 eV
  | Free-atom electrostatic energy:         -35.26588403 Ha        -959.63353015 eV
  | Hartree energy correction     :           0.02505470 Ha           0.68177307 eV
  | Entropy correction            :          -0.00000000 Ha          -0.00000000 eV
  | ---------------------------
  | Total energy                  :         -76.29300872 Ha       -2076.03839485 eV
  | Total energy, T -> 0          :         -76.29300872 Ha       -2076.03839485 eV  <-- do not rely on this value for anything but (periodic) metals
  | Electronic free energy        :         -76.29300872 Ha       -2076.03839485 eV

  Derived energy quantities:
  | Kinetic energy                :          75.76049060 Ha        2061.54783953 eV
  | Electrostatic energy          :        -143.18473497 Ha       -3896.25487780 eV
  | Energy correction for multipole
  | error in Hartree potential    :           0.00057137 Ha           0.01554767 eV
  | Sum of eigenvalues per atom                           :        -298.38479390 eV
  | Total energy (T->0) per atom                          :        -519.00959871 eV  <-- do not rely on this value for anything but (periodic) metals
  | Electronic free energy per atom                       :        -519.00959871 eV

  Self-consistency convergence accuracy:
  | Change of charge density      :  0.2703E+00
  | Change of sum of eigenvalues  : -0.2300E+00 eV
  | Change of total energy        :  0.4916E+00 eV

  End self-consistency iteration #     1       :  max(cpu_time)    wall_clock(cpu1)
  | Time for this iteration                    :        0.060 s           0.060 s
  | Charge density update                      :        0.013 s           0.013 s
  | Density mixing                             :        0.000 s           0.000 s
  | Hartree multipole update                   :        0.001 s           0.001 s
  | Hartree multipole summation                :        0.017 s           0.017 s
  | Integration                                :        0.028 s           0.028 s
  | Solution of K.-S. eqns.                    :        0.000 s           0.001 s
  | Total energy evaluation                    :        0.000 s           0.000 s

  Partial memory accounting:
  | Current value for overall tracked memory usage on task 0  :           0.017 MB
  | Peak value for overall tracked memory usage on task 0     :           0.086 MB after allocating wave
  | Largest tracked array allocation on task 0 so far         :           0.021 MB  when allocating H_times_psi
  Note:  These values currently only include a subset of arrays which are explicitly tracked.
  The "true" memory usage will be greater.
------------------------------------------------------------

------------------------------------------------------------
          Begin self-consistency iteration #    2

  Date     :  20190508, Time     :  170358.738
------------------------------------------------------------
  Evaluating new KS density.
  Integration grid: deviation in total charge (<rho> - N_e) =  -1.421085E-14
  Pulay mixing of updated and previous charge densities.

  Evaluating partitioned Hartree potential by multipole expansion.
  | Analytical far-field extrapolation by fixed multipoles:
  | Hartree multipole sum: apparent total charge =   0.445128E+00
  Summing up the Hartree potential.
  Time summed over all CPUs for potential: real work        0.017 s, elapsed        0.017 s
  | RMS charge density error from multipole expansion :   0.477573E-02

  Integrating Hamiltonian matrix: batch-based integration.
  Time summed over all CPUs for integration: real work        0.029 s, elapsed        0.029 s

  Updating Kohn-Sham eigenvalues, eigenvectors, occupation numbers, and Fermi level.
  Solving generalized eigenproblem
  Updating Kohn-Sham eigenvalues and eigenfunctions.
  Solving real generalised eigenvalue problem by standard LAPACK (fast)

  Obtaining occupation numbers and chemical potential using ELSI.
  | Chemical potential (Fermi level):    -8.41288023eV
  Highest occupied state (VBM) at    -14.14550713 eV
  | Occupation number:      2.00000000

  Lowest unoccupied state (CBM) at    -4.89290627 eV
  | Occupation number:      0.00000000

  Overall HOMO-LUMO gap:      9.25260086 eV.

  Checking to see if s.c.f. parameters should be adjusted.
  The system likely has a gap. Increased the default Pulay mixing parameter (charge_mix_param). Value:   0.200000 .
  Kept the default occupation width. Value:   0.010000 eV.

  Total energy components:
  | Sum of eigenvalues            :         -44.03307081 Ha       -1198.20082042 eV
  | XC energy correction          :          -8.89870063 Ha        -242.14596447 eV
  | XC potential correction       :          11.71947159 Ha         318.90304769 eV
  | Free-atom electrostatic energy:         -35.26588403 Ha        -959.63353015 eV
  | Hartree energy correction     :           0.27389479 Ha           7.45305653 eV
  | Entropy correction            :          -0.00000000 Ha          -0.00000000 eV
  | ---------------------------
  | Total energy                  :         -76.20428908 Ha       -2073.62421081 eV
  | Total energy, T -> 0          :         -76.20428908 Ha       -2073.62421081 eV  <-- do not rely on this value for anything but (periodic) metals
  | Electronic free energy        :         -76.20428908 Ha       -2073.62421081 eV

  Derived energy quantities:
  | Kinetic energy                :          76.33354491 Ha        2077.14144066 eV
  | Electrostatic energy          :        -143.63913336 Ha       -3908.61968700 eV
  | Energy correction for multipole
  | error in Hartree potential    :           0.00478836 Ha           0.13029803 eV
  | Sum of eigenvalues per atom                           :        -299.55020511 eV
  | Total energy (T->0) per atom                          :        -518.40605270 eV  <-- do not rely on this value for anything but (periodic) metals
  | Electronic free energy per atom                       :        -518.40605270 eV

  Self-consistency convergence accuracy:
  | Change of charge density      :  0.2443E+00
  | Change of sum of eigenvalues  : -0.4662E+01 eV
  | Change of total energy        :  0.2414E+01 eV

  End self-consistency iteration #     2       :  max(cpu_time)    wall_clock(cpu1)
  | Time for this iteration                    :        0.060 s           0.060 s
  | Charge density update                      :        0.012 s           0.012 s
  | Density mixing                             :        0.000 s           0.000 s
  | Hartree multipole update                   :        0.001 s           0.001 s
  | Hartree multipole summation                :        0.017 s           0.017 s
  | Integration                                :        0.029 s           0.029 s
  | Solution of K.-S. eqns.                    :        0.000 s           0.001 s
  | Total energy evaluation                    :        0.000 s           0.000 s

  Partial memory accounting:
  | Current value for overall tracked memory usage on task 0  :           0.018 MB
  | Peak value for overall tracked memory usage on task 0     :           0.087 MB after allocating wave
  | Largest tracked array allocation on task 0 so far         :           0.021 MB  when allocating H_times_psi
  Note:  These values currently only include a subset of arrays which are explicitly tracked.
  The "true" memory usage will be greater.
------------------------------------------------------------

------------------------------------------------------------
          Begin self-consistency iteration #    3

  Date     :  20190508, Time     :  170358.798
------------------------------------------------------------
  Evaluating new KS density.
  Integration grid: deviation in total charge (<rho> - N_e) =  -1.243450E-14
  Pulay mixing of updated and previous charge densities.

  Evaluating partitioned Hartree potential by multipole expansion.
  | Analytical far-field extrapolation by fixed multipoles:
  | Hartree multipole sum: apparent total charge =   0.845433E+00
  Summing up the Hartree potential.
  Time summed over all CPUs for potential: real work        0.017 s, elapsed        0.017 s
  | RMS charge density error from multipole expansion :   0.869802E-02

  Integrating Hamiltonian matrix: batch-based integration.
  Time summed over all CPUs for integration: real work        0.028 s, elapsed        0.028 s

  Updating Kohn-Sham eigenvalues, eigenvectors, occupation numbers, and Fermi level.
  Solving generalized eigenproblem
  Updating Kohn-Sham eigenvalues and eigenfunctions.
  Solving real generalised eigenvalue problem by standard LAPACK (fast)

  Obtaining occupation numbers and chemical potential using ELSI.
  | Chemical potential (Fermi level):   -11.25400164eV
  Highest occupied state (VBM) at    -17.60900414 eV
  | Occupation number:      2.00000000

  Lowest unoccupied state (CBM) at    -7.49773718 eV
  | Occupation number:      0.00000000

  Overall HOMO-LUMO gap:     10.11126696 eV.

  Total energy components:
  | Sum of eigenvalues            :         -45.40629322 Ha       -1235.56810363 eV
  | XC energy correction          :          -8.80069025 Ha        -239.47896637 eV
  | XC potential correction       :          11.59137310 Ha         315.41731019 eV
  | Free-atom electrostatic energy:         -35.26588403 Ha        -959.63353015 eV
  | Hartree energy correction     :           1.70753682 Ha          46.46444094 eV
  | Entropy correction            :          -0.00000000 Ha          -0.00000000 eV
  | ---------------------------
  | Total energy                  :         -76.17395760 Ha       -2072.79884901 eV
  | Total energy, T -> 0          :         -76.17395760 Ha       -2072.79884901 eV  <-- do not rely on this value for anything but (periodic) metals
  | Electronic free energy        :         -76.17395760 Ha       -2072.79884901 eV

  Derived energy quantities:
  | Kinetic energy                :          75.81154010 Ha        2062.93696727 eV
  | Electrostatic energy          :        -143.18480744 Ha       -3896.25684992 eV
  | Energy correction for multipole
  | error in Hartree potential    :           0.00603628 Ha           0.16425555 eV
  | Sum of eigenvalues per atom                           :        -308.89202591 eV
  | Total energy (T->0) per atom                          :        -518.19971225 eV  <-- do not rely on this value for anything but (periodic) metals
  | Electronic free energy per atom                       :        -518.19971225 eV

  Self-consistency convergence accuracy:
  | Change of charge density      :  0.1100E+00
  | Change of sum of eigenvalues  : -0.3737E+02 eV
  | Change of total energy        :  0.8254E+00 eV

  End self-consistency iteration #     3       :  max(cpu_time)    wall_clock(cpu1)
  | Time for this iteration                    :        0.059 s           0.059 s
  | Charge density update                      :        0.011 s           0.011 s
  | Density mixing                             :        0.000 s           0.001 s
  | Hartree multipole update                   :        0.001 s           0.001 s
  | Hartree multipole summation                :        0.017 s           0.017 s
  | Integration                                :        0.029 s           0.028 s
  | Solution of K.-S. eqns.                    :        0.000 s           0.001 s
  | Total energy evaluation                    :        0.000 s           0.000 s

  Partial memory accounting:
  | Current value for overall tracked memory usage on task 0  :           0.018 MB
  | Peak value for overall tracked memory usage on task 0     :           0.088 MB after allocating wave
  | Largest tracked array allocation on task 0 so far         :           0.021 MB  when allocating H_times_psi
  Note:  These values currently only include a subset of arrays which are explicitly tracked.
  The "true" memory usage will be greater.
------------------------------------------------------------

------------------------------------------------------------
          Begin self-consistency iteration #    4

  Date     :  20190508, Time     :  170358.857
------------------------------------------------------------
  Evaluating new KS density.
  Integration grid: deviation in total charge (<rho> - N_e) =  -8.881784E-15
  Pulay mixing of updated and previous charge densities.

  Evaluating partitioned Hartree potential by multipole expansion.
  | Analytical far-field extrapolation by fixed multipoles:
  | Hartree multipole sum: apparent total charge =   0.101137E+01
  Summing up the Hartree potential.
  Time summed over all CPUs for potential: real work        0.016 s, elapsed        0.016 s
  | RMS charge density error from multipole expansion :   0.104265E-01

  Integrating Hamiltonian matrix: batch-based integration.
  Time summed over all CPUs for integration: real work        0.029 s, elapsed        0.029 s

  Updating Kohn-Sham eigenvalues, eigenvectors, occupation numbers, and Fermi level.
  Solving generalized eigenproblem
  Updating Kohn-Sham eigenvalues and eigenfunctions.
  Solving real generalised eigenvalue problem by standard LAPACK (fast)

  Obtaining occupation numbers and chemical potential using ELSI.
  | Chemical potential (Fermi level):   -11.97591304eV
  Highest occupied state (VBM) at    -18.42230813 eV
  | Occupation number:      2.00000000

  Lowest unoccupied state (CBM) at    -8.30245123 eV
  | Occupation number:      0.00000000

  Overall HOMO-LUMO gap:     10.11985691 eV.

  Total energy components:
  | Sum of eigenvalues            :         -45.70628007 Ha       -1243.73116093 eV
  | XC energy correction          :          -8.79725054 Ha        -239.38536697 eV
  | XC potential correction       :          11.58733694 Ha         315.30748068 eV
  | Free-atom electrostatic energy:         -35.26588403 Ha        -959.63353015 eV
  | Hartree energy correction     :           2.01078147 Ha          54.71614777 eV
  | Entropy correction            :          -0.00000000 Ha          -0.00000000 eV
  | ---------------------------
  | Total energy                  :         -76.17129623 Ha       -2072.72642960 eV
  | Total energy, T -> 0          :         -76.17129623 Ha       -2072.72642960 eV  <-- do not rely on this value for anything but (periodic) metals
  | Electronic free energy        :         -76.17129623 Ha       -2072.72642960 eV

  Derived energy quantities:
  | Kinetic energy                :          75.78910257 Ha        2062.32641098 eV
  | Electrostatic energy          :        -143.16314826 Ha       -3895.66747362 eV
  | Energy correction for multipole
  | error in Hartree potential    :           0.00711183 Ha           0.19352275 eV
  | Sum of eigenvalues per atom                           :        -310.93279023 eV
  | Total energy (T->0) per atom                          :        -518.18160740 eV  <-- do not rely on this value for anything but (periodic) metals
  | Electronic free energy per atom                       :        -518.18160740 eV

  Self-consistency convergence accuracy:
  | Change of charge density      :  0.5030E-01
  | Change of sum of eigenvalues  : -0.8163E+01 eV
  | Change of total energy        :  0.7242E-01 eV

  End self-consistency iteration #     4       :  max(cpu_time)    wall_clock(cpu1)
  | Time for this iteration                    :        0.059 s           0.059 s
  | Charge density update                      :        0.012 s           0.012 s
  | Density mixing                             :        0.000 s           0.000 s
  | Hartree multipole update                   :        0.001 s           0.002 s
  | Hartree multipole summation                :        0.017 s           0.016 s
  | Integration                                :        0.028 s           0.029 s
  | Solution of K.-S. eqns.                    :        0.000 s           0.000 s
  | Total energy evaluation                    :        0.000 s           0.000 s

  Partial memory accounting:
  | Current value for overall tracked memory usage on task 0  :           0.019 MB
  | Peak value for overall tracked memory usage on task 0     :           0.088 MB after allocating wave
  | Largest tracked array allocation on task 0 so far         :           0.021 MB  when allocating H_times_psi
  Note:  These values currently only include a subset of arrays which are explicitly tracked.
  The "true" memory usage will be greater.
------------------------------------------------------------

------------------------------------------------------------
          Begin self-consistency iteration #    5

  Date     :  20190508, Time     :  170358.916
------------------------------------------------------------
  Evaluating new KS density.
  Integration grid: deviation in total charge (<rho> - N_e) =   1.598721E-14
  Pulay mixing of updated and previous charge densities.

  Evaluating partitioned Hartree potential by multipole expansion.
  | Analytical far-field extrapolation by fixed multipoles:
  | Hartree multipole sum: apparent total charge =   0.100808E+01
  Summing up the Hartree potential.
  Time summed over all CPUs for potential: real work        0.016 s, elapsed        0.016 s
  | RMS charge density error from multipole expansion :   0.104687E-01

  Integrating Hamiltonian matrix: batch-based integration.
  Time summed over all CPUs for integration: real work        0.029 s, elapsed        0.029 s

  Updating Kohn-Sham eigenvalues, eigenvectors, occupation numbers, and Fermi level.
  Solving generalized eigenproblem
  Updating Kohn-Sham eigenvalues and eigenfunctions.
  Solving real generalised eigenvalue problem by standard LAPACK (fast)

  Obtaining occupation numbers and chemical potential using ELSI.
  | Chemical potential (Fermi level):   -11.77373469eV
  Highest occupied state (VBM) at    -18.12588738 eV
  | Occupation number:      2.00000000

  Lowest unoccupied state (CBM) at    -8.15249245 eV
  | Occupation number:      0.00000000

  Overall HOMO-LUMO gap:      9.97339494 eV.

  Total energy components:
  | Sum of eigenvalues            :         -45.58754645 Ha       -1240.50025497 eV
  | XC energy correction          :          -8.81263920 Ha        -239.80411364 eV
  | XC potential correction       :          11.60759259 Ha         315.85866505 eV
  | Free-atom electrostatic energy:         -35.26588403 Ha        -959.63353015 eV
  | Hartree energy correction     :           1.88730609 Ha          51.35621155 eV
  | Entropy correction            :          -0.00000000 Ha          -0.00000000 eV
  | ---------------------------
  | Total energy                  :         -76.17117101 Ha       -2072.72302215 eV
  | Total energy, T -> 0          :         -76.17117101 Ha       -2072.72302215 eV  <-- do not rely on this value for anything but (periodic) metals
  | Electronic free energy        :         -76.17117101 Ha       -2072.72302215 eV

  Derived energy quantities:
  | Kinetic energy                :          75.84550708 Ha        2063.86125566 eV
  | Electrostatic energy          :        -143.20403889 Ha       -3896.78016418 eV
  | Energy correction for multipole
  | error in Hartree potential    :           0.00697426 Ha           0.18977926 eV
  | Sum of eigenvalues per atom                           :        -310.12506374 eV
  | Total energy (T->0) per atom                          :        -518.18075554 eV  <-- do not rely on this value for anything but (periodic) metals
  | Electronic free energy per atom                       :        -518.18075554 eV

  Self-consistency convergence accuracy:
  | Change of charge density      :  0.1085E-01
  | Change of sum of eigenvalues  :  0.3231E+01 eV
  | Change of total energy        :  0.3407E-02 eV

  End self-consistency iteration #     5       :  max(cpu_time)    wall_clock(cpu1)
  | Time for this iteration                    :        0.059 s           0.059 s
  | Charge density update                      :        0.011 s           0.012 s
  | Density mixing                             :        0.001 s           0.000 s
  | Hartree multipole update                   :        0.001 s           0.002 s
  | Hartree multipole summation                :        0.017 s           0.016 s
  | Integration                                :        0.028 s           0.029 s
  | Solution of K.-S. eqns.                    :        0.000 s           0.000 s
  | Total energy evaluation                    :        0.000 s           0.000 s

  Partial memory accounting:
  | Current value for overall tracked memory usage on task 0  :           0.019 MB
  | Peak value for overall tracked memory usage on task 0     :           0.088 MB after allocating wave
  | Largest tracked array allocation on task 0 so far         :           0.021 MB  when allocating H_times_psi
  Note:  These values currently only include a subset of arrays which are explicitly tracked.
  The "true" memory usage will be greater.
------------------------------------------------------------

------------------------------------------------------------
          Begin self-consistency iteration #    6

  Date     :  20190508, Time     :  170358.975
------------------------------------------------------------
  Evaluating new KS density.
  Integration grid: deviation in total charge (<rho> - N_e) =  -2.486900E-14
  Pulay mixing of updated and previous charge densities.

  Evaluating partitioned Hartree potential by multipole expansion.
  | Analytical far-field extrapolation by fixed multipoles:
  | Hartree multipole sum: apparent total charge =   0.998796E+00
  Summing up the Hartree potential.
  Time summed over all CPUs for potential: real work        0.016 s, elapsed        0.016 s
  | RMS charge density error from multipole expansion :   0.103816E-01

  Integrating Hamiltonian matrix: batch-based integration.
  Time summed over all CPUs for integration: real work        0.029 s, elapsed        0.029 s

  Updating Kohn-Sham eigenvalues, eigenvectors, occupation numbers, and Fermi level.
  Solving generalized eigenproblem
  Updating Kohn-Sham eigenvalues and eigenfunctions.
  Solving real generalised eigenvalue problem by standard LAPACK (fast)

  Obtaining occupation numbers and chemical potential using ELSI.
  | Chemical potential (Fermi level):   -11.77409432eV
  Highest occupied state (VBM) at    -18.12121149 eV
  | Occupation number:      2.00000000

  Lowest unoccupied state (CBM) at    -8.12130882 eV
  | Occupation number:      0.00000000

  Overall HOMO-LUMO gap:      9.99990267 eV.

  Total energy components:
  | Sum of eigenvalues            :         -45.59027225 Ha       -1240.57442754 eV
  | XC energy correction          :          -8.81053112 Ha        -239.74675000 eV
  | XC potential correction       :          11.60477018 Ha         315.78186351 eV
  | Free-atom electrostatic energy:         -35.26588403 Ha        -959.63353015 eV
  | Hartree energy correction     :           1.89078017 Ha          51.45074622 eV
  | Entropy correction            :          -0.00000000 Ha          -0.00000000 eV
  | ---------------------------
  | Total energy                  :         -76.17113705 Ha       -2072.72209797 eV
  | Total energy, T -> 0          :         -76.17113705 Ha       -2072.72209797 eV  <-- do not rely on this value for anything but (periodic) metals
  | Electronic free energy        :         -76.17113705 Ha       -2072.72209797 eV

  Derived energy quantities:
  | Kinetic energy                :          75.82436331 Ha        2063.28590461 eV
  | Electrostatic energy          :        -143.18496924 Ha       -3896.26125258 eV
  | Energy correction for multipole
  | error in Hartree potential    :           0.00679086 Ha           0.18478865 eV
  | Sum of eigenvalues per atom                           :        -310.14360689 eV
  | Total energy (T->0) per atom                          :        -518.18052449 eV  <-- do not rely on this value for anything but (periodic) metals
  | Electronic free energy per atom                       :        -518.18052449 eV

  Self-consistency convergence accuracy:
  | Change of charge density      :  0.7467E-02
  | Change of sum of eigenvalues  : -0.7417E-01 eV
  | Change of total energy        :  0.9242E-03 eV

  End self-consistency iteration #     6       :  max(cpu_time)    wall_clock(cpu1)
  | Time for this iteration                    :        0.060 s           0.060 s
  | Charge density update                      :        0.011 s           0.011 s
  | Density mixing                             :        0.001 s           0.001 s
  | Hartree multipole update                   :        0.001 s           0.001 s
  | Hartree multipole summation                :        0.017 s           0.017 s
  | Integration                                :        0.029 s           0.029 s
  | Solution of K.-S. eqns.                    :        0.000 s           0.001 s
  | Total energy evaluation                    :        0.000 s           0.000 s

  Partial memory accounting:
  | Current value for overall tracked memory usage on task 0  :           0.019 MB
  | Peak value for overall tracked memory usage on task 0     :           0.089 MB after allocating wave
  | Largest tracked array allocation on task 0 so far         :           0.021 MB  when allocating H_times_psi
  Note:  These values currently only include a subset of arrays which are explicitly tracked.
  The "true" memory usage will be greater.
------------------------------------------------------------

------------------------------------------------------------
          Begin self-consistency iteration #    7

  Date     :  20190508, Time     :  170359.035
------------------------------------------------------------
  Evaluating new KS density.
  Integration grid: deviation in total charge (<rho> - N_e) =   2.131628E-14
  Pulay mixing of updated and previous charge densities.

  Evaluating partitioned Hartree potential by multipole expansion.
  | Analytical far-field extrapolation by fixed multipoles:
  | Hartree multipole sum: apparent total charge =   0.999244E+00
  Summing up the Hartree potential.
  Time summed over all CPUs for potential: real work        0.017 s, elapsed        0.017 s
  | RMS charge density error from multipole expansion :   0.103746E-01

  Integrating Hamiltonian matrix: batch-based integration.
  Time summed over all CPUs for integration: real work        0.029 s, elapsed        0.029 s

  Updating Kohn-Sham eigenvalues, eigenvectors, occupation numbers, and Fermi level.
  Solving generalized eigenproblem
  Updating Kohn-Sham eigenvalues and eigenfunctions.
  Solving real generalised eigenvalue problem by standard LAPACK (fast)

  Obtaining occupation numbers and chemical potential using ELSI.
  | Chemical potential (Fermi level):   -11.77457578eV
  Highest occupied state (VBM) at    -18.12255550 eV
  | Occupation number:      2.00000000

  Lowest unoccupied state (CBM) at    -8.12135442 eV
  | Occupation number:      0.00000000

  Overall HOMO-LUMO gap:     10.00120109 eV.

  Total energy components:
  | Sum of eigenvalues            :         -45.59193938 Ha       -1240.61979270 eV
  | XC energy correction          :          -8.81037432 Ha        -239.74248329 eV
  | XC potential correction       :          11.60456175 Ha         315.77619171 eV
  | Free-atom electrostatic energy:         -35.26588403 Ha        -959.63353015 eV
  | Hartree energy correction     :           1.89250006 Ha          51.49754675 eV
  | Entropy correction            :          -0.00000000 Ha          -0.00000000 eV
  | ---------------------------
  | Total energy                  :         -76.17113593 Ha       -2072.72206767 eV
  | Total energy, T -> 0          :         -76.17113593 Ha       -2072.72206767 eV  <-- do not rely on this value for anything but (periodic) metals
  | Electronic free energy        :         -76.17113593 Ha       -2072.72206767 eV

  Derived energy quantities:
  | Kinetic energy                :          75.82096129 Ha        2063.19333084 eV
  | Electrostatic energy          :        -143.18172290 Ha       -3896.17291522 eV
  | Energy correction for multipole
  | error in Hartree potential    :           0.00673870 Ha           0.18336937 eV
  | Sum of eigenvalues per atom                           :        -310.15494818 eV
  | Total energy (T->0) per atom                          :        -518.18051692 eV  <-- do not rely on this value for anything but (periodic) metals
  | Electronic free energy per atom                       :        -518.18051692 eV

  Self-consistency convergence accuracy:
  | Change of charge density      :  0.9641E-03
  | Change of sum of eigenvalues  : -0.4537E-01 eV
  | Change of total energy        :  0.3030E-04 eV

  End self-consistency iteration #     7       :  max(cpu_time)    wall_clock(cpu1)
  | Time for this iteration                    :        0.062 s           0.062 s
  | Charge density update                      :        0.013 s           0.013 s
  | Density mixing                             :        0.001 s           0.001 s
  | Hartree multipole update                   :        0.002 s           0.001 s
  | Hartree multipole summation                :        0.017 s           0.017 s
  | Integration                                :        0.029 s           0.029 s
  | Solution of K.-S. eqns.                    :        0.000 s           0.000 s
  | Total energy evaluation                    :        0.000 s           0.001 s

  Partial memory accounting:
  | Current value for overall tracked memory usage on task 0  :           0.019 MB
  | Peak value for overall tracked memory usage on task 0     :           0.089 MB after allocating wave
  | Largest tracked array allocation on task 0 so far         :           0.021 MB  when allocating H_times_psi
  Note:  These values currently only include a subset of arrays which are explicitly tracked.
  The "true" memory usage will be greater.
------------------------------------------------------------

------------------------------------------------------------
          Begin self-consistency iteration #    8

  Date     :  20190508, Time     :  170359.097
------------------------------------------------------------
  Evaluating new KS density.
  Integration grid: deviation in total charge (<rho> - N_e) =   8.881784E-15
  Pulay mixing of updated and previous charge densities.

  Evaluating partitioned Hartree potential by multipole expansion.
  | Analytical far-field extrapolation by fixed multipoles:
  | Hartree multipole sum: apparent total charge =   0.999484E+00
  Summing up the Hartree potential.
  Time summed over all CPUs for potential: real work        0.017 s, elapsed        0.017 s
  | RMS charge density error from multipole expansion :   0.103781E-01

  Integrating Hamiltonian matrix: batch-based integration.
  Time summed over all CPUs for integration: real work        0.028 s, elapsed        0.028 s

  Updating Kohn-Sham eigenvalues, eigenvectors, occupation numbers, and Fermi level.
  Solving generalized eigenproblem
  Updating Kohn-Sham eigenvalues and eigenfunctions.
  Solving real generalised eigenvalue problem by standard LAPACK (fast)

  Obtaining occupation numbers and chemical potential using ELSI.
  | Chemical potential (Fermi level):   -11.76699606eV
  Highest occupied state (VBM) at    -18.11201311 eV
  | Occupation number:      2.00000000

  Lowest unoccupied state (CBM) at    -8.11584665 eV
  | Occupation number:      0.00000000

  Overall HOMO-LUMO gap:      9.99616646 eV.

  Total energy components:
  | Sum of eigenvalues            :         -45.58803631 Ha       -1240.51358467 eV
  | XC energy correction          :          -8.81096541 Ha        -239.75856770 eV
  | XC potential correction       :          11.60533954 Ha         315.79735659 eV
  | Free-atom electrostatic energy:         -35.26588403 Ha        -959.63353015 eV
  | Hartree energy correction     :           1.88841068 Ha          51.38626917 eV
  | Entropy correction            :          -0.00000000 Ha          -0.00000000 eV
  | ---------------------------
  | Total energy                  :         -76.17113553 Ha       -2072.72205676 eV
  | Total energy, T -> 0          :         -76.17113553 Ha       -2072.72205676 eV  <-- do not rely on this value for anything but (periodic) metals
  | Electronic free energy        :         -76.17113553 Ha       -2072.72205676 eV

  Derived energy quantities:
  | Kinetic energy                :          75.82203632 Ha        2063.22258396 eV
  | Electrostatic energy          :        -143.18220644 Ha       -3896.18607302 eV
  | Energy correction for multipole
  | error in Hartree potential    :           0.00671821 Ha           0.18281186 eV
  | Sum of eigenvalues per atom                           :        -310.12839617 eV
  | Total energy (T->0) per atom                          :        -518.18051419 eV  <-- do not rely on this value for anything but (periodic) metals
  | Electronic free energy per atom                       :        -518.18051419 eV

  Self-consistency convergence accuracy:
  | Change of charge density      :  0.7239E-03
  | Change of sum of eigenvalues  :  0.1062E+00 eV
  | Change of total energy        :  0.1091E-04 eV

  End self-consistency iteration #     8       :  max(cpu_time)    wall_clock(cpu1)
  | Time for this iteration                    :        0.058 s           0.058 s
  | Charge density update                      :        0.011 s           0.011 s
  | Density mixing                             :        0.001 s           0.001 s
  | Hartree multipole update                   :        0.001 s           0.001 s
  | Hartree multipole summation                :        0.017 s           0.017 s
  | Integration                                :        0.028 s           0.028 s
  | Solution of K.-S. eqns.                    :        0.000 s           0.000 s
  | Total energy evaluation                    :        0.000 s           0.000 s

  Partial memory accounting:
  | Current value for overall tracked memory usage on task 0  :           0.020 MB
  | Peak value for overall tracked memory usage on task 0     :           0.089 MB after allocating wave
  | Largest tracked array allocation on task 0 so far         :           0.021 MB  when allocating H_times_psi
  Note:  These values currently only include a subset of arrays which are explicitly tracked.
  The "true" memory usage will be greater.
------------------------------------------------------------

------------------------------------------------------------
          Begin self-consistency iteration #    9

  Date     :  20190508, Time     :  170359.155
------------------------------------------------------------
  Evaluating new KS density.
  Integration grid: deviation in total charge (<rho> - N_e) =  -1.776357E-15
  Pulay mixing of updated and previous charge densities.

  Evaluating partitioned Hartree potential by multipole expansion.
  | Analytical far-field extrapolation by fixed multipoles:
  | Hartree multipole sum: apparent total charge =   0.999554E+00
  Summing up the Hartree potential.
  Time summed over all CPUs for potential: real work        0.016 s, elapsed        0.016 s
  | RMS charge density error from multipole expansion :   0.103792E-01

  Integrating Hamiltonian matrix: batch-based integration.
  Time summed over all CPUs for integration: real work        0.028 s, elapsed        0.028 s

  Updating Kohn-Sham eigenvalues, eigenvectors, occupation numbers, and Fermi level.
  Solving generalized eigenproblem
  Updating Kohn-Sham eigenvalues and eigenfunctions.
  Solving real generalised eigenvalue problem by standard LAPACK (fast)

  Obtaining occupation numbers and chemical potential using ELSI.
  | Chemical potential (Fermi level):   -11.76609588eV
  Highest occupied state (VBM) at    -18.11098699 eV
  | Occupation number:      2.00000000

  Lowest unoccupied state (CBM) at    -8.11524068 eV
  | Occupation number:      0.00000000

  Overall HOMO-LUMO gap:      9.99574631 eV.

  Total energy components:
  | Sum of eigenvalues            :         -45.58769146 Ha       -1240.50420072 eV
  | XC energy correction          :          -8.81103167 Ha        -239.76037060 eV
  | XC potential correction       :          11.60542671 Ha         315.79972838 eV
  | Free-atom electrostatic energy:         -35.26588403 Ha        -959.63353015 eV
  | Hartree energy correction     :           1.88804495 Ha          51.37631719 eV
  | Entropy correction            :          -0.00000000 Ha          -0.00000000 eV
  | ---------------------------
  | Total energy                  :         -76.17113550 Ha       -2072.72205589 eV
  | Total energy, T -> 0          :         -76.17113550 Ha       -2072.72205589 eV  <-- do not rely on this value for anything but (periodic) metals
  | Electronic free energy        :         -76.17113550 Ha       -2072.72205589 eV

  Derived energy quantities:
  | Kinetic energy                :          75.82207708 Ha        2063.22369311 eV
  | Electrostatic energy          :        -143.18218091 Ha       -3896.18537840 eV
  | Energy correction for multipole
  | error in Hartree potential    :           0.00671484 Ha           0.18272019 eV
  | Sum of eigenvalues per atom                           :        -310.12605018 eV
  | Total energy (T->0) per atom                          :        -518.18051397 eV  <-- do not rely on this value for anything but (periodic) metals
  | Electronic free energy per atom                       :        -518.18051397 eV

  Self-consistency convergence accuracy:
  | Change of charge density      :  0.7973E-04
  | Change of sum of eigenvalues  :  0.9384E-02 eV
  | Change of total energy        :  0.8649E-06 eV

  End self-consistency iteration #     9       :  max(cpu_time)    wall_clock(cpu1)
  | Time for this iteration                    :        0.058 s           0.058 s
  | Charge density update                      :        0.011 s           0.011 s
  | Density mixing                             :        0.001 s           0.001 s
  | Hartree multipole update                   :        0.001 s           0.002 s
  | Hartree multipole summation                :        0.016 s           0.016 s
  | Integration                                :        0.028 s           0.028 s
  | Solution of K.-S. eqns.                    :        0.000 s           0.000 s
  | Total energy evaluation                    :        0.000 s           0.000 s

  Partial memory accounting:
  | Current value for overall tracked memory usage on task 0  :           0.020 MB
  | Peak value for overall tracked memory usage on task 0     :           0.089 MB after allocating wave
  | Largest tracked array allocation on task 0 so far         :           0.021 MB  when allocating H_times_psi
  Note:  These values currently only include a subset of arrays which are explicitly tracked.
  The "true" memory usage will be greater.
------------------------------------------------------------

------------------------------------------------------------
          Begin self-consistency iteration #   10

  Date     :  20190508, Time     :  170359.213
------------------------------------------------------------
  Evaluating new KS density.
  Integration grid: deviation in total charge (<rho> - N_e) =  -4.440892E-14
  Pulay mixing of updated and previous charge densities.

  Evaluating partitioned Hartree potential by multipole expansion.
  | Analytical far-field extrapolation by fixed multipoles:
  | Hartree multipole sum: apparent total charge =   0.999554E+00
  Summing up the Hartree potential.
  Time summed over all CPUs for potential: real work        0.017 s, elapsed        0.017 s
  | RMS charge density error from multipole expansion :   0.103792E-01

  Integrating Hamiltonian matrix: batch-based integration.
  Time summed over all CPUs for integration: real work        0.028 s, elapsed        0.028 s

  Updating Kohn-Sham eigenvalues, eigenvectors, occupation numbers, and Fermi level.
  Solving generalized eigenproblem
  Updating Kohn-Sham eigenvalues and eigenfunctions.
  Solving real generalised eigenvalue problem by standard LAPACK (fast)

  Obtaining occupation numbers and chemical potential using ELSI.
  | Chemical potential (Fermi level):   -11.76613527eV
  Highest occupied state (VBM) at    -18.11108093 eV
  | Occupation number:      2.00000000

  Lowest unoccupied state (CBM) at    -8.11525760 eV
  | Occupation number:      0.00000000

  Overall HOMO-LUMO gap:      9.99582333 eV.

  Total energy components:
  | Sum of eigenvalues            :         -45.58773466 Ha       -1240.50537641 eV
  | XC energy correction          :          -8.81102644 Ha        -239.76022832 eV
  | XC potential correction       :          11.60541979 Ha         315.79954015 eV
  | Free-atom electrostatic energy:         -35.26588403 Ha        -959.63353015 eV
  | Hartree energy correction     :           1.88808985 Ha          51.37753892 eV
  | Entropy correction            :          -0.00000000 Ha          -0.00000000 eV
  | ---------------------------
  | Total energy                  :         -76.17113550 Ha       -2072.72205580 eV
  | Total energy, T -> 0          :         -76.17113550 Ha       -2072.72205580 eV  <-- do not rely on this value for anything but (periodic) metals
  | Electronic free energy        :         -76.17113550 Ha       -2072.72205580 eV

  Derived energy quantities:
  | Kinetic energy                :          75.82203934 Ha        2063.22266618 eV
  | Electrostatic energy          :        -143.18214840 Ha       -3896.18449367 eV
  | Energy correction for multipole
  | error in Hartree potential    :           0.00671467 Ha           0.18271543 eV
  | Sum of eigenvalues per atom                           :        -310.12634410 eV
  | Total energy (T->0) per atom                          :        -518.18051395 eV  <-- do not rely on this value for anything but (periodic) metals
  | Electronic free energy per atom                       :        -518.18051395 eV

  Self-consistency convergence accuracy:
  | Change of charge density      :  0.6451E-05
  | Change of sum of eigenvalues  : -0.1176E-02 eV
  | Change of total energy        :  0.8812E-07 eV

  End self-consistency iteration #    10       :  max(cpu_time)    wall_clock(cpu1)
  | Time for this iteration                    :        0.059 s           0.059 s
  | Charge density update                      :        0.011 s           0.012 s
  | Density mixing                             :        0.001 s           0.001 s
  | Hartree multipole update                   :        0.001 s           0.001 s
  | Hartree multipole summation                :        0.016 s           0.017 s
  | Integration                                :        0.028 s           0.028 s
  | Solution of K.-S. eqns.                    :        0.000 s           0.000 s
  | Total energy evaluation                    :        0.000 s           0.000 s

  Partial memory accounting:
  | Current value for overall tracked memory usage on task 0  :           0.020 MB
  | Peak value for overall tracked memory usage on task 0     :           0.089 MB after allocating wave
  | Largest tracked array allocation on task 0 so far         :           0.021 MB  when allocating H_times_psi
  Note:  These values currently only include a subset of arrays which are explicitly tracked.
  The "true" memory usage will be greater.
------------------------------------------------------------

------------------------------------------------------------
          Begin self-consistency iteration #   11

  Date     :  20190508, Time     :  170359.272
------------------------------------------------------------
  Evaluating new KS density.
  Integration grid: deviation in total charge (<rho> - N_e) =  -1.065814E-14
  Pulay mixing of updated and previous charge densities.

  Evaluating partitioned Hartree potential by multipole expansion.
  | Analytical far-field extrapolation by fixed multipoles:
  | Hartree multipole sum: apparent total charge =   0.999556E+00
  Summing up the Hartree potential.
  Time summed over all CPUs for potential: real work        0.017 s, elapsed        0.017 s
  | RMS charge density error from multipole expansion :   0.103793E-01

  Integrating Hamiltonian matrix: batch-based integration.
  Time summed over all CPUs for integration: real work        0.028 s, elapsed        0.028 s

  Updating Kohn-Sham eigenvalues, eigenvectors, occupation numbers, and Fermi level.
  Solving generalized eigenproblem
  Updating Kohn-Sham eigenvalues and eigenfunctions.
  Solving real generalised eigenvalue problem by standard LAPACK (fast)

  Obtaining occupation numbers and chemical potential using ELSI.
  | Chemical potential (Fermi level):   -11.76610620eV
  Highest occupied state (VBM) at    -18.11103498 eV
  | Occupation number:      2.00000000

  Lowest unoccupied state (CBM) at    -8.11524182 eV
  | Occupation number:      0.00000000

  Overall HOMO-LUMO gap:      9.99579316 eV.

  Total energy components:
  | Sum of eigenvalues            :         -45.58771518 Ha       -1240.50484629 eV
  | XC energy correction          :          -8.81102949 Ha        -239.76031118 eV
  | XC potential correction       :          11.60542381 Ha         315.79964955 eV
  | Free-atom electrostatic energy:         -35.26588403 Ha        -959.63353015 eV
  | Hartree energy correction     :           1.88806939 Ha          51.37698223 eV
  | Entropy correction            :          -0.00000000 Ha          -0.00000000 eV
  | ---------------------------
[...]
  | Largest tracked array allocation on task 0 so far         :           0.021 MB  when allocating H_times_psi
  Note:  These values currently only include a subset of arrays which are explicitly tracked.
  The "true" memory usage will be greater.
------------------------------------------------------------

------------------------------------------------------------
          Begin self-consistency iteration #   12

  Date     :  20190508, Time     :  170359.332
------------------------------------------------------------
  Evaluating new KS density.
  Integration grid: deviation in total charge (<rho> - N_e) =   2.842171E-14
  Pulay mixing of updated and previous charge densities.

  Evaluating partitioned Hartree potential by multipole expansion.
  | Analytical far-field extrapolation by fixed multipoles:
  | Hartree multipole sum: apparent total charge =   0.999556E+00
  Summing up the Hartree potential.
  Time summed over all CPUs for potential: real work        0.017 s, elapsed        0.017 s
  | RMS charge density error from multipole expansion :   0.103793E-01

  Integrating Hamiltonian matrix: batch-based integration.
  Time summed over all CPUs for integration: real work        0.028 s, elapsed        0.028 s

  Updating Kohn-Sham eigenvalues, eigenvectors, occupation numbers, and Fermi level.
  Solving generalized eigenproblem
  Updating Kohn-Sham eigenvalues and eigenfunctions.
  Solving real generalised eigenvalue problem by standard LAPACK (fast)

  Obtaining occupation numbers and chemical potential using ELSI.
  | Chemical potential (Fermi level):   -11.76610296eV
  Highest occupied state (VBM) at    -18.11103094 eV
  | Occupation number:      2.00000000

  Lowest unoccupied state (CBM) at    -8.11524020 eV
  | Occupation number:      0.00000000

  Overall HOMO-LUMO gap:      9.99579074 eV.

  Total energy components:
  | Sum of eigenvalues            :         -45.58771314 Ha       -1240.50479068 eV
  | XC energy correction          :          -8.81102981 Ha        -239.76032005 eV
  | XC potential correction       :          11.60542424 Ha         315.79966126 eV
  | Free-atom electrostatic energy:         -35.26588403 Ha        -959.63353015 eV
  | Hartree energy correction     :           1.88806725 Ha          51.37692377 eV
  | Entropy correction            :          -0.00000000 Ha          -0.00000000 eV
  | ---------------------------
  | Total energy                  :         -76.17113550 Ha       -2072.72205585 eV
  | Total energy, T -> 0          :         -76.17113550 Ha       -2072.72205585 eV  <-- do not rely on this value for anything but (periodic) metals
  | Electronic free energy        :         -76.17113550 Ha       -2072.72205585 eV

  Derived energy quantities:
  | Kinetic energy                :          75.82205557 Ha        2063.22310772 eV
  | Electrostatic energy          :        -143.18216126 Ha       -3896.18484353 eV
  | Energy correction for multipole
  | error in Hartree potential    :           0.00671470 Ha           0.18271621 eV
  | Sum of eigenvalues per atom                           :        -310.12619767 eV
  | Total energy (T->0) per atom                          :        -518.18051396 eV  <-- do not rely on this value for anything but (periodic) metals
  | Electronic free energy per atom                       :        -518.18051396 eV

  Self-consistency convergence accuracy:
  | Change of charge density      :  0.3424E-06
  | Change of sum of eigenvalues  :  0.5561E-04 eV
  | Change of total energy        : -0.1536E-07 eV

  Electronic self-consistency reached - switching on the force computation.

  End self-consistency iteration #    12       :  max(cpu_time)    wall_clock(cpu1)
  | Time for this iteration                    :        0.058 s           0.058 s
  | Charge density & force component update    :        0.011 s           0.011 s
  | Density mixing                             :        0.001 s           0.001 s
  | Hartree multipole update                   :        0.001 s           0.001 s
  | Hartree multipole summation                :        0.016 s           0.017 s
  | Integration                                :        0.028 s           0.028 s
  | Solution of K.-S. eqns.                    :        0.000 s           0.000 s
  | Total energy evaluation                    :        0.000 s           0.000 s

  Partial memory accounting:
  | Current value for overall tracked memory usage on task 0  :           0.020 MB
  | Peak value for overall tracked memory usage on task 0     :           0.089 MB after allocating wave
  | Largest tracked array allocation on task 0 so far         :           0.021 MB  when allocating H_times_psi
  Note:  These values currently only include a subset of arrays which are explicitly tracked.
  The "true" memory usage will be greater.
------------------------------------------------------------

------------------------------------------------------------
          Begin self-consistency iteration #   13

  Date     :  20190508, Time     :  170359.390
------------------------------------------------------------
  Evaluating new KS density and force components.
  Integration grid: deviation in total charge (<rho> - N_e) =  -3.197442E-14
  Pulay mixing of updated and previous charge densities.

  Evaluating partitioned Hartree potential by multipole expansion.
  | Analytical far-field extrapolation by fixed multipoles:
  | Hartree multipole sum: apparent total charge =   0.999556E+00
  Summing up the Hartree potential.
  Time summed over all CPUs for potential: real work        0.051 s, elapsed        0.051 s
  | RMS charge density error from multipole expansion :   0.103793E-01

  Integrating Hamiltonian matrix: batch-based integration.
  Time summed over all CPUs for integration: real work        0.029 s, elapsed        0.029 s

  Updating Kohn-Sham eigenvalues, eigenvectors, occupation numbers, and Fermi level.
  Solving generalized eigenproblem
  Updating Kohn-Sham eigenvalues and eigenfunctions.
  Solving real generalised eigenvalue problem by standard LAPACK (fast)

  Obtaining occupation numbers and chemical potential using ELSI.
  | Chemical potential (Fermi level):   -11.76610359eV
  Highest occupied state (VBM) at    -18.11103174 eV
  | Occupation number:      2.00000000

  Lowest unoccupied state (CBM) at    -8.11524031 eV
  | Occupation number:      0.00000000

  Overall HOMO-LUMO gap:      9.99579143 eV.

  Total energy components:
  | Sum of eigenvalues            :         -45.58771356 Ha       -1240.50480205 eV
  | XC energy correction          :          -8.81102973 Ha        -239.76031777 eV
  | XC potential correction       :          11.60542413 Ha         315.79965824 eV
  | Free-atom electrostatic energy:         -35.26588403 Ha        -959.63353015 eV
  | Hartree energy correction     :           1.88806769 Ha          51.37693587 eV
  | Entropy correction            :          -0.00000000 Ha          -0.00000000 eV
  | ---------------------------
  | Total energy                  :         -76.17113550 Ha       -2072.72205585 eV
  | Total energy, T -> 0          :         -76.17113550 Ha       -2072.72205585 eV  <-- do not rely on this value for anything but (periodic) metals
  | Electronic free energy        :         -76.17113550 Ha       -2072.72205585 eV

  Derived energy quantities:
  | Kinetic energy                :          75.82205506 Ha        2063.22309370 eV
  | Electrostatic energy          :        -143.18216083 Ha       -3896.18483178 eV
  | Energy correction for multipole
  | error in Hartree potential    :           0.00671469 Ha           0.18271612 eV
  | Sum of eigenvalues per atom                           :        -310.12620051 eV
  | Total energy (T->0) per atom                          :        -518.18051396 eV  <-- do not rely on this value for anything but (periodic) metals
  | Electronic free energy per atom                       :        -518.18051396 eV

  atomic forces [eV/Ang]:
  -----------------------
  atom #    1
   Hellmann-Feynman              : -0.340113E-01  0.376013E-01 -0.119933E-12
   Ionic forces                  :  0.000000E+00  0.000000E+00  0.000000E+00
   Multipole                     : -0.158079E-02 -0.297200E-02 -0.685982E-13
   Pulay                         :  0.294180E-02  0.647904E-03 -0.245486E-13
   ----------------------------------------------------------------
   Total forces(   1)            : -0.326503E-01  0.352772E-01 -0.213079E-12
  atom #    2
   Hellmann-Feynman              :  0.296443E+00 -0.181907E+00 -0.641761E-14
   Ionic forces                  :  0.000000E+00  0.000000E+00  0.000000E+00
   Multipole                     :  0.783008E-01 -0.445381E-01 -0.225067E-15
   Pulay                         : -0.340266E+00  0.195120E+00 -0.231017E-13
   ----------------------------------------------------------------
   Total forces(   2)            :  0.344782E-01 -0.313247E-01 -0.297444E-13
  atom #    3
   Hellmann-Feynman              : -0.257655E+00 -0.154501E+00 -0.384203E-13
   Ionic forces                  :  0.000000E+00  0.000000E+00  0.000000E+00
   Multipole                     : -0.781232E-01 -0.449676E-01  0.722684E-15
   Pulay                         :  0.338822E+00  0.195339E+00 -0.106458E-13
   ----------------------------------------------------------------
   Total forces(   3)            :  0.304445E-02 -0.413007E-02 -0.483434E-13
  atom #    4
   Hellmann-Feynman              : -0.494409E-02  0.301170E+00 -0.143728E-13
   Ionic forces                  :  0.000000E+00  0.000000E+00  0.000000E+00
   Multipole                     :  0.301637E-03  0.897391E-01 -0.196137E-15
   Pulay                         : -0.219832E-03 -0.390966E+00  0.274423E-13
   ----------------------------------------------------------------
   Total forces(   4)            : -0.486229E-02 -0.569463E-04  0.128734E-13


  Self-consistency convergence accuracy:
  | Change of charge density      :  0.1465E-06
  | Change of sum of eigenvalues  : -0.1137E-04 eV
  | Change of total energy        :  0.2981E-08 eV
  | Change of forces              :  0.3534E+00 eV/A

  Writing Kohn-Sham eigenvalues.

  State    Occupation    Eigenvalue [Ha]    Eigenvalue [eV]
      1       2.00000         -19.013768         -517.39095
      2       2.00000          -1.337332          -36.39067
      3       2.00000          -0.888814          -24.18585
      4       2.00000          -0.888374          -24.17390
      5       2.00000          -0.665568          -18.11103
      6       0.00000          -0.298230           -8.11524
      7       0.00000          -0.197368           -5.37066
      8       0.00000          -0.196957           -5.35948
      9       0.00000           0.025476            0.69323
     10       0.00000           0.048285            1.31389
     11       0.00000           0.048729            1.32599
     12       0.00000           0.207574            5.64838
     13       0.00000           0.481442           13.10069

  Highest occupied state (VBM) at    -18.11103174 eV
  | Occupation number:      2.00000000

  Lowest unoccupied state (CBM) at    -8.11524031 eV
  | Occupation number:      0.00000000

  Overall HOMO-LUMO gap:      9.99579143 eV.

  Self-consistency cycle converged.

  End self-consistency iteration #    13       :  max(cpu_time)    wall_clock(cpu1)
  | Time for this iteration                    :        0.123 s           0.123 s
  | Charge density & force component update    :        0.041 s           0.041 s
  | Density mixing                             :        0.001 s           0.001 s
  | Hartree multipole update                   :        0.001 s           0.001 s
  | Hartree multipole summation                :        0.051 s           0.051 s
  | Integration                                :        0.028 s           0.029 s
  | Solution of K.-S. eqns.                    :        0.000 s           0.000 s
  | Total energy evaluation                    :        0.000 s           0.000 s

  Partial memory accounting:
  | Current value for overall tracked memory usage on task 0  :           0.020 MB
  | Peak value for overall tracked memory usage on task 0     :           0.124 MB after allocating h_times_wave
  | Largest tracked array allocation on task 0 so far         :           0.063 MB  when allocating gradient_basis_wave
  Note:  These values currently only include a subset of arrays which are explicitly tracked.
  The "true" memory usage will be greater.
------------------------------------------------------------
  ------------------------------------------------------------
   Computing monopole / dipole moments for complete molecule:
  | Total electronic charge [e]         :          0.999999999887557E+01
  | Total ionic charge [e]              :          0.110000000000000E+02
  | Total charge [e]                    :          0.100000000112443E+01
 * Warning: The system has a total charge of      1.00000000 .
 * The dipole moment depends on the choice of the origin.
  | Total dipole moment [eAng]          :         -0.278432187388680E-03         0.905771037765268E-03         0.366597929654822E-15
  | Absolute dipole moment              :          0.947599945033987E-03 eAng              /                   0.455080716317981E-02 Debye  .
  Removing unitary transformations (pure translations, rotations) from forces on atoms.
  Atomic forces before filtering:
  | Net force on center of mass :   0.101083E-04 -0.234472E-03 -0.278294E-12 eV/A
  | Net torque on center of mass:   0.513308E-13 -0.159001E-13 -0.547138E-06 eV
  Atomic forces after filtering:
  | Net force on center of mass :  -0.696899E-18  0.226492E-17  0.202824E-28 eV/A
  | Net torque on center of mass:  -0.214660E-28  0.536650E-29  0.516296E-17 eV

  Energy and forces in a compact form:
  | Total energy uncorrected      :         -0.207272205585142E+04 eV
  | Total energy corrected        :         -0.207272205585142E+04 eV  <-- do not rely on this value for anything but (periodic) metals
  | Electronic free energy        :         -0.207272205585142E+04 eV
  Total atomic forces (unitary forces cleaned) [eV/Ang]:
  |   1         -0.326528014362822E-01          0.353358528293578E-01         -0.143487342351483E-12
  |   2          0.344757809332643E-01         -0.312659103210559E-01          0.478633212921906E-13
  |   3          0.304201887156068E-02         -0.407161415150320E-02          0.478633212921906E-13
  |   4         -0.486499836854282E-02          0.167164320125267E-05          0.477606997671015E-13

  ------------------------------------ 
  Start decomposition of the XC Energy 
  ------------------------------------ 
  X and C from original XC functional choice 
  Hartree-Fock Energy :          0.000000000 Ha              0.000000000 eV
  X Energy            :         -8.147081994 Ha           -221.693380692 eV
  C Energy            :         -0.663947734 Ha            -18.066937078 eV
  Total XC Energy     :         -8.811029728 Ha           -239.760317770 eV
  ------------------------------------ 
  LDA X and C from self-consistent density 
  X Energy LDA        :         -8.147081994 Ha           -221.693380692 eV
  C Energy LDA        :         -0.663947734 Ha            -18.066937078 eV
  ------------------------------------ 
  End decomposition of the XC Energy 
  ------------------------------------ 

------------------------------------------------------------

------------------------------------------------------------------------------
  Final output of selected total energy values:

  The following output summarizes some interesting total energy values
  at the end of a run (AFTER all relaxation, molecular dynamics, etc.).

  | Total energy of the DFT / Hartree-Fock s.c.f. calculation      :          -2072.722055851 eV
  | Final zero-broadening corrected energy (caution - metals only) :          -2072.722055851 eV
  | For reference only, the value of 1 Hartree used in FHI-aims is :             27.211384500 eV

  Before relying on these values, please be sure to understand exactly which
  total energy value is referred to by a given number. Different objects may
  all carry the same name 'total energy'. Definitions:

  Total energy of the DFT / Hartree-Fock s.c.f. calculation:
  | Note that this energy does not include ANY quantities calculated after the
  | s.c.f. cycle, in particular not ANY RPA, MP2, etc. many-body perturbation terms.

  Final zero-broadening corrected energy:
  | For metallic systems only, a broadening of the occupation numbers at the Fermi
  | level can be extrapolated back to zero broadening by an electron-gas inspired
  | formula. For all systems that are not real metals, this value can be
  | meaningless and should be avoided.

------------------------------------------------------------------------------
  Methods described in the following list of references were used in this FHI-aims run.
  If you publish the results, please make sure to cite these reference if they apply.
  FHI-aims is an academic code, and for our developers (often, Ph.D. students
  and postdocs), scientific credit in the community is essential.
  Thank you for helping us!

  For any use of FHI-aims, please cite:

    Volker Blum, Ralf Gehrke, Felix Hanke, Paula Havu, Ville Havu,
    Xinguo Ren, Karsten Reuter, and Matthias Scheffler
    'Ab initio molecular simulations with numeric atom-centered orbitals'
    Computer Physics Communications 180, 2175-2196 (2009)
    http://dx.doi.org/10.1016/j.cpc.2009.06.022


  For the real-space grid partitioning and parallelization used in this calculation, please cite:

    Ville Havu, Volker Blum, Paula Havu, and Matthias Scheffler,
    'Efficient O(N) integration for all-electron electronic structure calculation'
    'using numerically tabulated basis functions'
    Journal of Computational Physics 228, 8367-8379 (2009).
    http://dx.doi.org/10.1016/j.jcp.2009.08.008

  Of course, there are many other important community references, e.g., those cited in the
  above references. Our list is limited to references that describe implementations in the
  FHI-aims code. The reason is purely practical (length of this list) - please credit others as well.

------------------------------------------------------------
          Leaving FHI-aims.
          Date     :  20190508, Time     :  170359.527

          Computational steps:
          | Number of self-consistency cycles          :           13
          | Number of SCF (re)initializations          :            1

          Detailed time accounting                     :  max(cpu_time)    wall_clock(cpu1)
          | Total time                                 :        0.982 s           0.982 s
          | Preparation time                           :        0.047 s           0.048 s
          | Boundary condition initalization           :        0.000 s           0.000 s
          | Grid partitioning                          :        0.014 s           0.014 s
          | Preloading free-atom quantities on grid    :        0.001 s           0.001 s
          | Free-atom superposition energy             :        0.012 s           0.012 s
          | Total time for integrations                :        0.413 s           0.413 s
          | Total time for solution of K.-S. equations :        0.003 s           0.006 s
          | Total time for density & force components  :        0.181 s           0.181 s
          | Total time for mixing                      :        0.009 s           0.009 s
          | Total time for Hartree multipole update    :        0.019 s           0.017 s
          | Total time for Hartree multipole sum       :        0.252 s           0.252 s
          | Total time for total energy evaluation     :        0.001 s           0.001 s

 This is a stub MPI_ALLREDUCE call.
 You should not be here. Check your
 setting on the use_mpi variable, or
 link against true MPI-libraries.
