------------------------------------------------------------
          Invoking FHI-aims ...
          Version 171221_1
          Compiled on 2019/05/06 at 14:26:40 on host ffph0xx.

          When using FHI-aims, please cite the following reference:

          Volker Blum, Ralf Gehrke, Felix Hanke, Paula Havu,
          Ville Havu, Xinguo Ren, Karsten Reuter, and Matthias Scheffler,
          'Ab Initio Molecular Simulations with Numeric Atom-Centered Orbitals',
          Computer Physics Communications 180, 2175-2196 (2009)

          For any questions about FHI-aims, please visit the aimsclub website
          with its forums and wiki. Contributions to both the forums and the
          wiki are warmly encouraged - they are for you, and everyone is welcome there.

------------------------------------------------------------



  Date     :  20190514, Time     :  123538.879
  Time zero on CPU 1             :   0.631000000000000E-03  s.
  Internal wall clock time zero  :           327069338.879  s.

  FHI-aims created a unique identifier for this run for later identification
  aims_uuid : E8B96F65-655B-48EA-AB36-011BB046BADA


  Performing system and environment tests:
  *** Environment variable OMP_NUM_THREADS is not set
  *** For performance reasons you might want to set it to 1
  | Stacksize not measured: no C compiler

  Obtaining array dimensions for all initial allocations:
  
  -----------------------------------------------------------------------
  Parsing control.in (first pass over file, find array dimensions only).
  The contents of control.in will be repeated verbatim below
  unless switched off by setting 'verbatim_writeout .false.' .
  in the first line of control.in .
  -----------------------------------------------------------------------
  
  #--- method ---
  xc pw-lda
  spin none
  relativistic atomic_zora scalar
  #---
  
  #--- k-grid settings ---
  k_grid 12 12 12
  #---
  
  
  
  
  
  
  
  
  
  
  
  #-------------------------------------------------------------------------------
  #--- Species defaults for Si
  #-------------------------------------------------------------------------------
  
  ################################################################################
  #
  #  FHI-aims code project
  #  VB, Fritz-Haber Institut, 2009
  #
  #  Suggested "light" defaults for Si atom (to be pasted into control.in file)
  #  Be sure to double-check any results obtained with these settings for post-processing,
  #  e.g., with the "tight" defaults and larger basis sets.
  #
  ################################################################################
    species        Si
  #     global species definitions
      nucleus             14
      mass                28.0855
  #
      l_hartree           4
  #
      cut_pot             3.5          1.5  1.0
      basis_dep_cutoff    1e-4
  #
      radial_base         42 5.0
      radial_multiplier   1
      angular_grids       specified
        division   0.5866   50
        division   0.9616  110
        division   1.2249  194
        division   1.3795  302
  #      division   1.4810  434
  #      division   1.5529  590
  #      division   1.6284  770
  #      division   1.7077  974
  #      division   2.4068 1202
  #      outer_grid   974
        outer_grid 302
  ################################################################################
  #
  #  Definition of "minimal" basis
  #
  ################################################################################
  #     valence basis states
      valence      3  s   2.
      valence      3  p   2.
  #     ion occupancy
      ion_occ      3  s   1.
      ion_occ      3  p   1.
  ################################################################################
  #
  #  Suggested additional basis functions. For production calculations,
  #  uncomment them one after another (the most important basis functions are
  #  listed first).
  #
  #  Constructed for dimers: 1.75 A, 2.0 A, 2.25 A, 2.75 A, 3.75 A
  #
  ################################################################################
  #  "First tier" - improvements: -571.96 meV to -37.03 meV
       hydro 3 d 4.2
       hydro 2 p 1.4
  #     hydro 4 f 6.2
       ionic 3 s auto
  #  "Second tier" - improvements: -16.76 meV to -3.03 meV
  #     hydro 3 d 9
  #     hydro 5 g 9.4
  #     hydro 4 p 4
  #     hydro 1 s 0.65
  #  "Third tier" - improvements: -3.89 meV to -0.60 meV
  #     ionic 3 d auto
  #     hydro 3 s 2.6
  #     hydro 4 f 8.4
  #     hydro 3 d 3.4
  #     hydro 3 p 7.8
  #  "Fourth tier" - improvements: -0.33 meV to -0.11 meV
  #     hydro 2 p 1.6
  #     hydro 5 g 10.8
  #     hydro 5 f 11.2
  #     hydro 3 d 1
  #     hydro 4 s 4.5
  #  Further basis functions that fell out of the optimization - noise
  #  level... < -0.08 meV
  #     hydro 4 d 6.6
  #     hydro 5 g 16.4
  #     hydro 4 d 9
  
  -----------------------------------------------------------------------
  Completed first pass over input file control.in .
  -----------------------------------------------------------------------
  
  
  -----------------------------------------------------------------------
  Parsing geometry.in (first pass over file, find array dimensions only).
  The contents of geometry.in will be repeated verbatim below
  unless switched off by setting 'verbatim_writeout .false.' .
  in the first line of geometry.in .
  -----------------------------------------------------------------------
  
  lattice_vector  -2.150000   2.150000   2.150000
  lattice_vector   2.150000  -2.150000   2.150000
  lattice_vector   2.150000   2.150000  -2.150000
  atom_frac   0.000000   0.000000   0.000000 Si
  
  -----------------------------------------------------------------------
  Completed first pass over input file geometry.in .
  -----------------------------------------------------------------------
  

  Basic array size parameters:
  | Number of species                 :        1
  | Number of atoms                   :        1
  | Number of lattice vectors         :        3
  | Max. basis fn. angular momentum   :        2
  | Max. atomic/ionic basis occupied n:        3
  | Max. number of basis fn. types    :        3
  | Max. radial fns per species/type  :        5
  | Max. logarithmic grid size        :     1346
  | Max. radial integration grid size :       42
  | Max. angular integration grid size:      302
  | Max. angular grid division number :        8
  | Radial grid for Hartree potential :     1346
  | Number of spin channels           :        1

------------------------------------------------------------
          Reading file control.in.
------------------------------------------------------------
  XC: Using Perdew-Wang parametrisation of Ceperley-Alder LDA.
  Spin treatment: No spin polarisation.
  Scalar relativistic treatment of kinetic energy: on-site free-atom approximation to ZORA.
  Found k-point grid:        12        12        12

  Reading configuration options for species Si                  .
  | Found nuclear charge :  14.0000
  | Found atomic mass :    28.085500000000000      amu
  | Found l_max for Hartree potential  :   4
  | Found cutoff potl. onset [A], width [A], scale factor :    3.50000    1.50000    1.00000
  | Threshold for basis-dependent cutoff potential is   0.100000E-03
  | Found data for basic radial integration grid :    42 points, outermost radius =    5.000 A
  | Found multiplier for basic radial grid :   1
  | Found angular grid specification: user-specified.
  | Specified grid contains     5 separate shells.
  | Check grid settings after all constraints further below.
  | Found free-atom valence shell :  3 s   2.000
  | Found free-atom valence shell :  3 p   2.000
  | Found free-ion valence shell :  3 s   1.000
  | Found free-ion valence shell :  3 p   1.000
  | Found hydrogenic basis function :  3 d   4.200
  | Found hydrogenic basis function :  2 p   1.400
  | Found ionic basis function :  3 s , default cutoff radius.
  Species Si                  : Missing cutoff potential type.
  Defaulting to exp(1/x)/(1-x)^2 type cutoff potential.
  Species Si: No 'logarithmic' tag. Using default grid for free atom:
  | Default logarithmic grid data [bohr] : 0.1000E-03 0.1000E+03 0.1012E+01
  | Will include ionic basis functions of  2.0-fold positive Si                   ion.
  Species Si: On-site basis accuracy parameter (for Gram-Schmidt orthonormalisation) not specified.
  Using default value basis_acc =  0.1000000E-03.
  Species Si                  : Using default innermost maximum threshold i_radial=  2 for radial functions.
  Species Si                  : Default cutoff onset for free atom density etc. : 0.35000000E+01 AA.
  Species Si                  : Basic radial grid will be enhanced according to radial_multiplier =   1, to contain    42 grid points.

  Finished reading input file 'control.in'. Consistency checks are next.

  MPI_IN_PLACE appears to work with this MPI implementation.
  | Keeping use_mpi_in_place .true. (see manual).
  Target number of points in a grid batch is not set. Defaulting to  100
  Method for grid partitioning is not set. Defaulting to 'maxmin' partitioning.
  Batch size limit is not set. Defaulting to    200
  By default, will store active basis functions for each batch.
  If in need of memory, prune_basis_once .false. can be used to disable this option.
  communication_type for Hartree potential was not specified.
  Defaulting to calc_hartree .
 * Attention: 
 * You may want to set distributed_spline_storage to .true. in order to save memory.
 * This doesn't harm performance and is perfectly ok unless:
 * - you get error messages in postprocessing (about missing atoms in get_rho_multipole_spl)
 * - you need full spline storage in hirshfeld_analysis
  Defaulting to Pulay charge density mixer.
  Pulay mixer: Number of relevant iterations not set.
  Defaulting to    8 iterations.
  Pulay mixer: Number of initial linear mixing iterations not set.
  Defaulting to    0 iterations.
  Work space size for distributed Hartree potential not set.
  Defaulting to   0.200000E+03 MB.
  Mixing parameter for charge density mixing has not been set.
  Using default: charge_mix_param =     0.0500.
  The mixing parameter will be adjusted in iteration number     2 of the first full s.c.f. cycle only.
  Algorithm-dependent basis array size parameters:
  | n_max_pulay                         :        8
 * Notice: The s.c.f. convergence criterion sc_accuracy_rho was not provided.
 * We used to stop in this case, and ask the user to provide reasonable
 * scf convergence criteria. However, this led some users to employ criteria
 * that led to extremely long run times, e.g., for simple relaxation.
 * We now preset a default value for sc_accuracy_rho if it is not set.
 * You may still wish to check if this setting is too tight or too loose for your needs.
 * Based on n_atoms, FHI-aims chose sc_accuracy_rho =  0.100000E-05 .
  Maximum number of self-consistency iterations not provided.
  Presetting  1000 iterations.
  Presetting      1001 iterations before the initial mixing cycle
  is restarted anyway using the sc_init_iter criterion / keyword.
  Presetting a factor      1.000 between actual scf density residual
  and density convergence criterion sc_accuracy_rho below which sc_init_iter
  takes no effect.
 * No s.c.f. convergence criteria (sc_accuracy_*) were provided in control.in.
 * The run will proceed with a reasonable default guess, but please check whether.
 * the s.c.f. cycles seem to take too much or too little time.
  Calculation of forces was not defined in control.in. No forces will be calculated.
  Geometry relaxation not requested: no relaxation will be performed.
  No accuracy limit for integral partition fn. given. Defaulting to  0.1000E-14.
  No threshold value for u(r) in integrations given. Defaulting to  0.1000E-05.
  No occupation type (smearing scheme) given. Defaulting to Gaussian broadening, width =  0.1000E-01 eV.
  The width will be adjusted in iteration number     2 of the first full s.c.f. cycle only.
  S.C.F. convergence parameters will be adjusted in iteration number     2 of the first full s.c.f. cycle only.
  No accuracy for occupation numbers given. Defaulting to  0.1000E-12.
  No threshold value for occupation numbers given. Defaulting to  0.0000E+00.
  No accuracy for fermi level given. Defaulting to  0.1000E-19.
  Maximum # of iterations to find E_F not set. Defaulting to  200.
  Preferred method for the eigenvalue solver ('KS_method') not specified in 'control.in'.
  Defaulting to serial version, 'lapack_fast'.
  Will not use alltoall communication since running on < 1024 CPUs.
  Threshold for basis singularities not set.
  Default threshold for basis singularities:  0.1000E-04
  partition_type (choice of integration weights) for integrals was not specified.
  | Using a version of the partition function of Stratmann and coworkers ('stratmann_smoother').
  | At each grid point, the set of atoms used to build the partition table is smoothly restricted to
  | only those atoms whose free-atom density would be non-zero at that grid point.
  Partitioning for Hartree potential was not defined. Using partition_type for integrals.
  | Adjusted default value of keyword multip_moments_threshold to:       0.10000000E-11
  | This value may affect high angular momentum components of the Hartree potential in periodic systems.
  Angular momentum expansion for Kerker preconditioner not set explicitly.
  | Using default value of   0
  No explicit requirement for turning off preconditioner.
  | By default, it will be turned off when the charge convergence reaches
  | sc_accuracy_rho  =   0.100000E-05
  No special mixing parameter while Kerker preconditioner is on.
  Using default: charge_mix_param =     0.0500.
  No q(lm)/r^(l+1) cutoff set for long-range Hartree potential.
  | Using default value of  0.100000E-09 .
  | Verify using the multipole_threshold keyword.
  Defaulting to new monopole extrapolation.
  Density update method: automatic selection selected.
  Using density matrix based charge density update.
  Using density matrix based charge density update.
  Using packed matrix style: index .
  Defaulting to use time-reversal symmetry for k-point grid.
------------------------------------------------------------


------------------------------------------------------------
          Reading geometry description geometry.in.
------------------------------------------------------------
  Input structure read successfully.
  The structure contains        1 atoms,  and a total of         14.000 electrons.

  Input geometry:
  | Unit cell:
  |       -2.15000000        2.15000000        2.15000000
  |        2.15000000       -2.15000000        2.15000000
  |        2.15000000        2.15000000       -2.15000000
  | Atomic structure:
  |       Atom                x [A]            y [A]            z [A]
  |    1: Species Si            0.00000000        0.00000000        0.00000000

  Lattice parameters for 3D lattice (in Angstroms) :     3.723909    3.723909    3.723909
  Angle(s) between unit vectors (in degrees)      :   109.471221  109.471221  109.471221

  |

  | The smallest distance between any two atoms is         3.72390924 AA.
  |
  | The first atom of this pair is atom number                      1 .
  | The second atom of this pair is atom number                     1 .
  | Wigner-Seitz cell of the first atom image           0     0     1 .
  | (The Wigner-Seitz cell of the second atom is 0 0 0  by definition.)

  Quantities derived from the lattice vectors:
  | Reciprocal lattice vector 1:  0.000000  1.461206  1.461206
  | Reciprocal lattice vector 2:  1.461206  0.000000  1.461206
  | Reciprocal lattice vector 3:  1.461206  1.461206  0.000000
  | Unit cell volume                               :   0.397535E+02  A^3

  Range separation radius for Ewald summation (hartree_convergence_parameter):      4.96914486 bohr.

  Fractional coordinates:
                         L1                L2                L3
       atom_frac         0.00000000        0.00000000        0.00000000  Si

  Number of empty states per atom not set in control.in - providing a guess from actual geometry.
  | Total number of empty states used during s.c.f. cycle:        3
  If you use a very high smearing, use empty_states (per atom!) in control.in to increase this value.

  Structure-dependent array size parameters: 
  | Maximum number of distinct radial functions  :        8
  | Maximum number of basis functions            :       18
  | Number of Kohn-Sham states (occupied + empty):       10
------------------------------------------------------------

------------------------------------------------------------
          Preparing all fixed parts of the calculation.
------------------------------------------------------------
  Determining machine precision:
     2.2250738585072014E-308
  Setting up grids for atomic and cluster calculations.

  Creating wave function, potential, and density for free atoms.

  Species: Si

  List of occupied orbitals and eigenvalues:
    n    l              occ      energy [Ha]    energy [eV]
    1    0           2.0000       -65.491668     -1782.1190
    2    0           2.0000        -5.087967      -138.4506
    3    0           2.0000        -0.391471       -10.6525
    2    1           6.0000        -3.502246       -95.3010
    3    1           2.0000        -0.143943        -3.9169

  Creating fixed part of basis set: Ionic, confined, hydrogenic.

  Si                   ion:

  List of free ionic orbitals and eigenvalues:
    n    l      energy [Ha]    energy [eV]
    1    0       -66.364436     -1805.8682
    2    0        -5.935799      -161.5213
    3    0        -1.078166       -29.3384
    2    1        -4.351123      -118.4001
    3    1        -0.781733       -21.2720


  List of ionic basis orbitals and eigenvalues:
    n    l      energy [Ha]    energy [eV]    outer radius [A]
    3    0        -1.078146       -29.3378       4.214062


  Si                   hydrogenic:

  List of hydrogenic basis orbitals: 
    n    l      effective z      eigenvalue [eV]  inner max. [A]     outer max. [A]     outer radius [A]   
    3    2         4.200000       -26.6624           1.139231           1.139231           4.534782
    2    1         1.400000        -6.4613           1.472672           1.472672           4.590560


  Adding cutoff potential to free-atom effective potential.
  Creating atomic-like basis functions for current effective potential.

  Species Si                  :

  List of atomic basis orbitals and eigenvalues:
    n    l      energy [Ha]    energy [eV]    outer radius [A]
    1    0       -65.491668     -1782.1190       0.789468
    2    0        -5.087967      -138.4506       2.815114
    3    0        -0.391471       -10.6525       4.534782
    2    1        -3.502246       -95.3010       3.259919
    3    1        -0.143943        -3.9169       4.590560

  Assembling full basis from fixed parts.
  | Species Si :   atomic orbital   1 s accepted.
  | Species Si :   atomic orbital   2 s accepted.
  | Species Si :    ionic orbital   3 s accepted.
  | Species Si :   atomic orbital   3 s accepted.
  | Species Si :   atomic orbital   2 p accepted.
  | Species Si :   atomic orbital   3 p accepted.
  | Species Si :    hydro orbital   2 p accepted.
  | Species Si :    hydro orbital   3 d accepted.

  Basis size parameters after reduction:
  | Total number of radial functions:        8
  | Total number of basis functions :       18

  Per-task memory consumption for arrays in subroutine allocate_ext:
  |           2.757468MB.
  Testing on-site integration grid accuracy.
  |  Species  Function  <phi|h_atom|phi> (log., in eV)  <phi|h_atom|phi> (rad., in eV)
           1        1              -1782.1189727076              -1782.1182429251
           1        2               -138.4506350693               -138.4506310079
           1        3                -10.3030408815                -10.3029120678
           1        4                  5.0238999146                  4.9457540310 ***
           1        5                -95.3009689499                -95.3009689315
           1        6                 -3.9266496564                 -3.9420918374
           1        7                  6.3453628447                  6.1632372158 ***
           1        8                  6.2883050744                  6.2861881409
 * Note: Onsite integrals marked "***" above are less accurate than
 * onsite_accuracy_threshold =    0.03000 eV. Usually, this is harmless.
 * When in doubt, tighten the "radial" and/or "radial_multiplier" flags to check.

  Preparing densities etc. for the partition functions (integrals / Hartree potential).

  Preparations completed.
  max(cpu_time)          :      0.099 s.
  Wall clock time (cpu1) :      0.100 s.
------------------------------------------------------------

------------------------------------------------------------
          Begin self-consistency loop: Initialization.

          Date     :  20190514, Time     :  123538.980
------------------------------------------------------------

  Initializing index lists of integration centers etc. from given atomic structure:
  Mapping all atomic coordinates to central unit cell.

  Initializing the k-points
          Using symmetry for reducing the k-points
  | k-points reduced from:     1728 to      868
  | Number of k-points                             :       868
  The eigenvectors in the calculations are COMPLEX.
  | K-points in task   0:       868
  | Number of basis functions in the Hamiltonian integrals :       742
  | Number of basis functions in a single unit cell        :        18
  | Number of centers in hartree potential         :       531
  | Number of centers in hartree multipole         :       137
  | Number of centers in electron density summation:        89
  | Number of centers in basis integrals           :       113
  | Number of centers in integrals                 :        51
  | Number of centers in hamiltonian               :        89
  | Consuming       1220 KiB for k_phase.
  | Number of super-cells (origin) [n_cells]                     :        3375
  | Number of super-cells (after PM_index) [n_cells]             :          90
  | Number of super-cells in hamiltonian [n_cells_in_hamiltonian]:          90
  | Size of matrix packed + index [n_hamiltonian_matrix_size] :       11368
  Partitioning the integration grid into batches with maxmin method.
  | Maximal weight for a single point:     1.000
  | Minimal weight for a single point:     0.500
  | Number of batches:       64
  | Maximal batch size:      90
  | Minimal batch size:      85
  | Average batch size:      87.562
  | Standard deviation of batch sizes:       1.499
  Initializing partition tables, free-atom densities, potentials, etc. across the integration grid (initialize_grid_storage).
  | initialize_grid_storage: Actual outermost partition radius vs. multipole_radius_free
  | (-- VB: in principle, multipole_radius_free should be larger, hence this output)
  | Species        1: Confinement radius =              4.999999999999999 AA, multipole_radius_free =              5.000694715736543 AA.
  | Species        1: outer_partition_radius set to              5.000694715736543 AA .
  | Original list of interatomic distances with         113 x        113 entries is created.
  | Net number of integration points:     5604
  | of which are non-zero points    :     5232
  | Numerical average free-atom electrostatic potential    :     -6.61742331 eV
  Renormalizing the initial density to the exact electron count on the 3D integration grid.
  | Initial density: Formal number of electrons (from input files) :      14.0000000000
  | Integrated number of electrons on 3D grid     :      13.9999868711
  | Charge integration error                      :      -0.0000131289
  | Normalization factor for density and gradient :       1.0000009378
  Obtaining max. number of non-zero basis functions in each batch (get_n_compute_maxes).
  | Maximal number of non-zero basis functions:      255 in task     0
  Allocating        2.500 MB for KS_eigenvector_complex
  Integrating Hamiltonian matrix: batch-based integration.
  Time summed over all CPUs for integration: real work        0.105 s, elapsed        0.105 s
  Integrating overlap matrix.
  Time summed over all CPUs for integration: real work        0.071 s, elapsed        0.071 s
  Decreasing sparse matrix size:
   Tolerance:   9.9999998245167004E-014
   Hamiltonian matrix
  | Array has     7279 nonzero elements out of    11368 elements
  | Sparsity factor is 0.360
   Overlap matrix
  | Array has     7159 nonzero elements out of    11368 elements
  | Sparsity factor is 0.370
  New size of hamiltonian matrix:        7418

  Updating Kohn-Sham eigenvalues, eigenvectors, occupation numbers, and Fermi level.
  Solving generalized eigenproblem
  Transforming overlap matrix and checking for singularities.
  Overlap matrix is nonsingular at first k-point:
  | Lowest eigenvalue:  0.119194E-01

  Obtaining occupation numbers and chemical potential using ELSI.
  | Chemical potential (Fermi level):    -4.68201218eV
  Writing Kohn-Sham eigenvalues.
  K-point:       1 at    0.000000    0.000000    0.000000 (in units of recip. lattice)

  State    Occupation    Eigenvalue [Ha]    Eigenvalue [eV]
      1       2.00000         -65.491700        -1782.11984
      2       2.00000          -5.088082         -138.45375
      3       2.00000          -3.502361          -95.30408
      4       2.00000          -3.502361          -95.30408
      5       2.00000          -3.502361          -95.30408
      6       2.00000          -0.470237          -12.79581
      7       0.00000          -0.046079           -1.25387
      8       0.00000          -0.046079           -1.25387
      9       0.00000          -0.046079           -1.25387
     10       0.00000           0.134807            3.66829

  What follows are estimated values for band gap, HOMO, LUMO, etc.
  | They are estimated on a discrete k-point grid and not necessarily exact.
  | For converged numbers, create a DOS and/or band structure plot on a denser k-grid.

  Highest occupied state (VBM) at     -4.68253674 eV (relative to internal zero)
  | Occupation number:      1.05913591
  | K-point:     672 at    0.500000    0.500000    0.583333 (in units of recip. lattice)

  Lowest unoccupied state (CBM) at    -4.67528768 eV (relative to internal zero)
  | Occupation number:      0.34161016
  | K-point:     592 at    0.416667    0.750000    0.500000 (in units of recip. lattice)

  ESTIMATED overall HOMO-LUMO gap:      0.00724906 eV between HOMO at k-point 672 and LUMO at k-point 592
  | This appears to be an indirect band gap.
  | Smallest direct gap :      0.08338475 eV for k_point 672 at    0.416667    0.750000    0.500000 (in units of recip. lattice)
  However, this system has fractional occupation numbers. Since we use a finite k-point grid,
  this material is metallic within the approximate finite broadening function (occupation_type)
  applied to determine the occupation numbers.
  Calculating total energy contributions from superposition of free atom densities.

  Total energy components:
  | Sum of eigenvalues            :        -163.40047030 Ha       -4446.35302478 eV
  | XC energy correction          :         -19.66609252 Ha        -535.14160530 eV
  | XC potential correction       :          25.98362921 Ha         707.05052526 eV
  | Free-atom electrostatic energy:        -132.18944301 Ha       -3597.05776054 eV
  | Hartree energy correction     :          -0.00000000 Ha          -0.00000000 eV
  | Entropy correction            :          -0.00000395 Ha          -0.00010749 eV
  | ---------------------------
  | Total energy                  :        -289.27237662 Ha       -7871.50186535 eV
  | Total energy, T -> 0          :        -289.27238057 Ha       -7871.50197284 eV  <-- do not rely on this value for anything but (periodic) metals
  | Electronic free energy        :        -289.27238452 Ha       -7871.50208033 eV

  Derived energy quantities:
  | Kinetic energy                :         289.55249181 Ha        7879.12418756 eV
  | Electrostatic energy          :        -559.15877590 Ha      -15215.48444762 eV
  | Energy correction for multipole
  | error in Hartree potential    :           0.00000000 Ha           0.00000000 eV
  | Sum of eigenvalues per atom                           :       -4446.35302478 eV
  | Total energy (T->0) per atom                          :       -7871.50197284 eV  <-- do not rely on this value for anything but (periodic) metals
  | Electronic free energy per atom                       :       -7871.50208033 eV
  Initialize hartree_potential_storage
  Max. number of atoms included in rho_multipole:            1

  End scf initialization - timings             :  max(cpu_time)    wall_clock(cpu1)
  | Time for scf. initialization               :        0.499 s           0.498 s
  | Boundary condition initialization          :        0.037 s           0.037 s
  | Integration                                :        0.176 s           0.176 s
  | Solution of K.-S. eqns.                    :        0.231 s           0.230 s
  | Grid partitioning                          :        0.011 s           0.011 s
  | Preloading free-atom quantities on grid    :        0.001 s           0.000 s
  | Free-atom superposition energy             :        0.009 s           0.010 s
  | Total energy evaluation                    :        0.000 s           0.000 s

  Partial memory accounting:
  | Current value for overall tracked memory usage on task 0  :           2.648 MB
  | Peak value for overall tracked memory usage on task 0     :           3.798 MB after allocating wave
  | Largest tracked array allocation on task 0 so far         :           2.500 MB  when allocating +KS_eigenvector_complex
  Note:  These values currently only include a subset of arrays which are explicitly tracked.
  The "true" memory usage will be greater.
------------------------------------------------------------

------------------------------------------------------------
          Begin self-consistency iteration #    1

  Date     :  20190514, Time     :  123539.478
------------------------------------------------------------
  Evaluating new KS density using the density matrix
  Evaluating density matrix
  Time summed over all CPUs for getting density from density matrix: real work        0.163 s, elapsed        0.163 s
  Integration grid: deviation in total charge (<rho> - N_e) =  -4.796163E-13
  Pulay mixing of updated and previous charge densities.

  Evaluating partitioned Hartree potential by multipole expansion.
  | Analytical far-field extrapolation by fixed multipoles:
  | Hartree multipole sum: apparent total charge =  -0.144118E-03
  Summing up the Hartree potential.
  | Estimated reciprocal-space cutoff momentum G_max:         1.85634622 bohr^-1 .
  | Reciprocal lattice points for long-range Hartree potential:      18
  Time summed over all CPUs for potential: real work        0.131 s, elapsed        0.131 s
  | RMS charge density error from multipole expansion :   0.555059E-04
  | Average real-space part of the electrostatic potential :     -0.01169424 eV

  Integrating Hamiltonian matrix: batch-based integration.
  Time summed over all CPUs for integration: real work        0.104 s, elapsed        0.104 s

  Updating Kohn-Sham eigenvalues, eigenvectors, occupation numbers, and Fermi level.
  Solving generalized eigenproblem

  Obtaining occupation numbers and chemical potential using ELSI.
  | Chemical potential (Fermi level):    -4.69069537eV
  Writing Kohn-Sham eigenvalues.
  K-point:       1 at    0.000000    0.000000    0.000000 (in units of recip. lattice)

  State    Occupation    Eigenvalue [Ha]    Eigenvalue [eV]
      1       2.00000         -65.494049        -1782.18374
      2       2.00000          -5.089758         -138.49938
      3       2.00000          -3.504087          -95.35106
      4       2.00000          -3.504087          -95.35106
      5       2.00000          -3.504087          -95.35106
      6       2.00000          -0.470617          -12.80614
      7       0.00000          -0.046568           -1.26718
      8       0.00000          -0.046568           -1.26718
      9       0.00000          -0.046568           -1.26718
     10       0.00000           0.134348            3.65580

  What follows are estimated values for band gap, HOMO, LUMO, etc.
  | They are estimated on a discrete k-point grid and not necessarily exact.
  | For converged numbers, create a DOS and/or band structure plot on a denser k-grid.

  Highest occupied state (VBM) at     -4.69164101 eV (relative to internal zero)
  | Occupation number:      1.10638651
  | K-point:     663 at    0.500000    0.416667    0.583333 (in units of recip. lattice)

  Lowest unoccupied state (CBM) at    -4.68401869 eV (relative to internal zero)
  | Occupation number:      0.34505459
  | K-point:     484 at    0.333333    0.750000    0.500000 (in units of recip. lattice)

  ESTIMATED overall HOMO-LUMO gap:      0.00762232 eV between HOMO at k-point 663 and LUMO at k-point 484
  | This appears to be an indirect band gap.
  | Smallest direct gap :      0.08323091 eV for k_point 663 at    0.333333    0.750000    0.500000 (in units of recip. lattice)
  However, this system has fractional occupation numbers. Since we use a finite k-point grid,
  this material is metallic within the approximate finite broadening function (occupation_type)
  applied to determine the occupation numbers.

  Total energy components:
  | Sum of eigenvalues            :        -163.42039836 Ha       -4446.89529492 eV
  | XC energy correction          :         -19.66432935 Ha        -535.09362682 eV
  | XC potential correction       :          25.98130240 Ha         706.98720951 eV
  | Free-atom electrostatic energy:        -132.18944301 Ha       -3597.05776054 eV
  | Hartree energy correction     :           0.02059577 Ha           0.56043935 eV
  | Entropy correction            :          -0.00000397 Ha          -0.00010810 eV
  | ---------------------------
  | Total energy                  :        -289.27227255 Ha       -7871.49903341 eV
  | Total energy, T -> 0          :        -289.27227652 Ha       -7871.49914151 eV  <-- do not rely on this value for anything but (periodic) metals
  | Electronic free energy        :        -289.27228049 Ha       -7871.49924960 eV

  Derived energy quantities:
  | Kinetic energy                :         289.53738707 Ha        7878.71316661 eV
  | Electrostatic energy          :        -559.14533026 Ha      -15215.11857320 eV
  | Energy correction for multipole
  | error in Hartree potential    :           0.00000626 Ha           0.00017021 eV
  | Sum of eigenvalues per atom                           :       -4446.89529492 eV
  | Total energy (T->0) per atom                          :       -7871.49914151 eV  <-- do not rely on this value for anything but (periodic) metals
  | Electronic free energy per atom                       :       -7871.49924960 eV

  Self-consistency convergence accuracy:
  | Change of charge density      :  0.2958E-01
  | Change of sum of eigenvalues  : -0.5423E+00 eV
  | Change of total energy        :  0.2832E-02 eV

  End self-consistency iteration #     1       :  max(cpu_time)    wall_clock(cpu1)
  | Time for this iteration                    :        0.545 s           0.545 s
  | Charge density update                      :        0.176 s           0.176 s
  | Density mixing & preconditioning           :        0.018 s           0.018 s
  | Hartree multipole update                   :        0.000 s           0.001 s
  | Hartree multipole summation                :        0.132 s           0.132 s
  | Integration                                :        0.104 s           0.104 s
  | Solution of K.-S. eqns.                    :        0.114 s           0.114 s
  | Total energy evaluation                    :        0.000 s           0.000 s

  Partial memory accounting:
  | Current value for overall tracked memory usage on task 0  :           2.648 MB
  | Peak value for overall tracked memory usage on task 0     :           3.798 MB after allocating wave
  | Largest tracked array allocation on task 0 so far         :           2.500 MB  when allocating +KS_eigenvector_complex
  Note:  These values currently only include a subset of arrays which are explicitly tracked.
  The "true" memory usage will be greater.
------------------------------------------------------------

------------------------------------------------------------
          Begin self-consistency iteration #    2

  Date     :  20190514, Time     :  123540.023
------------------------------------------------------------
  Evaluating new KS density using the density matrix
  Evaluating density matrix
  Time summed over all CPUs for getting density from density matrix: real work        0.162 s, elapsed        0.162 s
  Integration grid: deviation in total charge (<rho> - N_e) =  -4.476419E-13
  Pulay mixing of updated and previous charge densities.

  Evaluating partitioned Hartree potential by multipole expansion.
  | Analytical far-field extrapolation by fixed multipoles:
  | Hartree multipole sum: apparent total charge =  -0.257709E-02
  Summing up the Hartree potential.
  Time summed over all CPUs for potential: real work        0.168 s, elapsed        0.168 s
  | RMS charge density error from multipole expansion :   0.108620E-02
  | Average real-space part of the electrostatic potential :     -0.22997353 eV

  Integrating Hamiltonian matrix: batch-based integration.
  Time summed over all CPUs for integration: real work        0.104 s, elapsed        0.104 s

  Updating Kohn-Sham eigenvalues, eigenvectors, occupation numbers, and Fermi level.
  Solving generalized eigenproblem

  Obtaining occupation numbers and chemical potential using ELSI.
  | Chemical potential (Fermi level):    -4.84975985eV
  What follows are estimated values for band gap, HOMO, LUMO, etc.
  | They are estimated on a discrete k-point grid and not necessarily exact.
  | For converged numbers, create a DOS and/or band structure plot on a denser k-grid.

  Highest occupied state (VBM) at     -4.85918001 eV (relative to internal zero)
  | Occupation number:      1.81720924
  | K-point:     672 at    0.500000    0.500000    0.583333 (in units of recip. lattice)

  Lowest unoccupied state (CBM) at    -4.84653276 eV (relative to internal zero)
  | Occupation number:      0.64811684
  | K-point:     542 at    0.416667    0.250000    0.916667 (in units of recip. lattice)

  ESTIMATED overall HOMO-LUMO gap:      0.01264725 eV between HOMO at k-point 672 and LUMO at k-point 542
  | This appears to be an indirect band gap.
  | Smallest direct gap :      0.08049656 eV for k_point 566 at    0.416667    0.250000    0.916667 (in units of recip. lattice)
  However, this system has fractional occupation numbers. Since we use a finite k-point grid,
  this material is metallic within the approximate finite broadening function (occupation_type)
  applied to determine the occupation numbers.

  Checking to see if s.c.f. parameters should be adjusted.
  Adjusted the Pulay mixing parameter (charge_mix_param) for an expected low-gap system. New value:   0.020000 .
  Adjusted the occupation broadening width for an expected low-gap system. New value:      0.05000000 eV.

  Total energy components:
  | Sum of eigenvalues            :        -163.78943361 Ha       -4456.93725501 eV
  | XC energy correction          :         -19.63260802 Ha        -534.23044567 eV
  | XC potential correction       :          25.93943900 Ha         705.84804828 eV
  | Free-atom electrostatic energy:        -132.18944301 Ha       -3597.05776054 eV
  | Hartree energy correction     :           0.40088556 Ha          10.90865118 eV
  | Entropy correction            :          -0.00002960 Ha          -0.00080544 eV
  | ---------------------------
  | Total energy                  :        -289.27116008 Ha       -7871.46876175 eV
  | Total energy, T -> 0          :        -289.27118968 Ha       -7871.46956719 eV  <-- do not rely on this value for anything but (periodic) metals
  | Electronic free energy        :        -289.27121928 Ha       -7871.47037264 eV

  Derived energy quantities:
  | Kinetic energy                :         289.25524996 Ha        7871.03582517 eV
  | Electrostatic energy          :        -558.89380201 Ha      -15208.27414125 eV
  | Energy correction for multipole
  | error in Hartree potential    :           0.00013492 Ha           0.00367131 eV
  | Sum of eigenvalues per atom                           :       -4456.93725501 eV
  | Total energy (T->0) per atom                          :       -7871.46956719 eV  <-- do not rely on this value for anything but (periodic) metals
  | Electronic free energy per atom                       :       -7871.47037264 eV

  Self-consistency convergence accuracy:
  | Change of charge density      :  0.2814E-01
  | Change of sum of eigenvalues  : -0.1004E+02 eV
  | Change of total energy        :  0.3027E-01 eV

  End self-consistency iteration #     2       :  max(cpu_time)    wall_clock(cpu1)
  | Time for this iteration                    :        0.576 s           0.576 s
  | Charge density update                      :        0.174 s           0.174 s
  | Density mixing & preconditioning           :        0.018 s           0.018 s
  | Hartree multipole update                   :        0.000 s           0.001 s
  | Hartree multipole summation                :        0.169 s           0.169 s
  | Integration                                :        0.104 s           0.104 s
  | Solution of K.-S. eqns.                    :        0.110 s           0.110 s
  | Total energy evaluation                    :        0.000 s           0.000 s

  Partial memory accounting:
  | Current value for overall tracked memory usage on task 0  :           2.650 MB
  | Peak value for overall tracked memory usage on task 0     :           3.798 MB after allocating wave
  | Largest tracked array allocation on task 0 so far         :           2.500 MB  when allocating +KS_eigenvector_complex
  Note:  These values currently only include a subset of arrays which are explicitly tracked.
  The "true" memory usage will be greater.
------------------------------------------------------------

------------------------------------------------------------
          Begin self-consistency iteration #    3

  Date     :  20190514, Time     :  123540.599
------------------------------------------------------------
  Evaluating new KS density using the density matrix
  Evaluating density matrix
  Time summed over all CPUs for getting density from density matrix: real work        0.160 s, elapsed        0.160 s
  Integration grid: deviation in total charge (<rho> - N_e) =  -4.369838E-13
  Pulay mixing of updated and previous charge densities.

  Evaluating partitioned Hartree potential by multipole expansion.
  | Analytical far-field extrapolation by fixed multipoles:
  | Hartree multipole sum: apparent total charge =  -0.310424E-02
  Summing up the Hartree potential.
  Time summed over all CPUs for potential: real work        0.173 s, elapsed        0.173 s
  | RMS charge density error from multipole expansion :   0.132840E-02
  | Average real-space part of the electrostatic potential :     -0.26480940 eV

  Integrating Hamiltonian matrix: batch-based integration.
  Time summed over all CPUs for integration: real work        0.107 s, elapsed        0.107 s

  Updating Kohn-Sham eigenvalues, eigenvectors, occupation numbers, and Fermi level.
  Solving generalized eigenproblem

  Obtaining occupation numbers and chemical potential using ELSI.
  | Chemical potential (Fermi level):    -4.87386359eV
  What follows are estimated values for band gap, HOMO, LUMO, etc.
  | They are estimated on a discrete k-point grid and not necessarily exact.
  | For converged numbers, create a DOS and/or band structure plot on a denser k-grid.

  Highest occupied state (VBM) at     -4.87792681 eV (relative to internal zero)
  | Occupation number:      1.09149570
  | K-point:     574 at    0.416667    0.583333    0.500000 (in units of recip. lattice)

  Lowest unoccupied state (CBM) at    -4.86417992 eV (relative to internal zero)
  | Occupation number:      0.78416496
  | K-point:     542 at    0.416667    0.250000    0.916667 (in units of recip. lattice)

  ESTIMATED overall HOMO-LUMO gap:      0.01374689 eV between HOMO at k-point 574 and LUMO at k-point 542
  | This appears to be an indirect band gap.
  | Smallest direct gap :      0.08024461 eV for k_point 574 at    0.416667    0.250000    0.916667 (in units of recip. lattice)
  However, this system has fractional occupation numbers. Since we use a finite k-point grid,
  this material is metallic within the approximate finite broadening function (occupation_type)
  applied to determine the occupation numbers.

  Total energy components:
  | Sum of eigenvalues            :        -163.78323856 Ha       -4456.76867905 eV
  | XC energy correction          :         -19.63545064 Ha        -534.30779722 eV
  | XC potential correction       :          25.94325107 Ha         705.95178005 eV
  | Free-atom electrostatic energy:        -132.18944301 Ha       -3597.05776054 eV
  | Hartree energy correction     :           0.39375874 Ha          10.71472061 eV
  | Entropy correction            :          -0.00002882 Ha          -0.00078420 eV
  | ---------------------------
  | Total energy                  :        -289.27112239 Ha       -7871.46773614 eV
  | Total energy, T -> 0          :        -289.27115121 Ha       -7871.46852034 eV  <-- do not rely on this value for anything but (periodic) metals
  | Electronic free energy        :        -289.27118003 Ha       -7871.46930454 eV

  Derived energy quantities:
  | Kinetic energy                :         289.35150144 Ha        7873.65496135 eV
  | Electrostatic energy          :        -558.98717319 Ha      -15210.81490027 eV
  | Energy correction for multipole
  | error in Hartree potential    :           0.00016570 Ha           0.00450898 eV
  | Sum of eigenvalues per atom                           :       -4456.76867905 eV
  | Total energy (T->0) per atom                          :       -7871.46852034 eV  <-- do not rely on this value for anything but (periodic) metals
  | Electronic free energy per atom                       :       -7871.46930454 eV

  Self-consistency convergence accuracy:
  | Change of charge density      :  0.7037E-02
  | Change of sum of eigenvalues  :  0.1686E+00 eV
  | Change of total energy        :  0.1026E-02 eV

  End self-consistency iteration #     3       :  max(cpu_time)    wall_clock(cpu1)
  | Time for this iteration                    :        0.582 s           0.583 s
  | Charge density update                      :        0.173 s           0.173 s
  | Density mixing & preconditioning           :        0.017 s           0.017 s
  | Hartree multipole update                   :        0.000 s           0.001 s
  | Hartree multipole summation                :        0.176 s           0.175 s
  | Integration                                :        0.106 s           0.107 s
  | Solution of K.-S. eqns.                    :        0.110 s           0.110 s
  | Total energy evaluation                    :        0.000 s           0.000 s

  Partial memory accounting:
  | Current value for overall tracked memory usage on task 0  :           2.650 MB
  | Peak value for overall tracked memory usage on task 0     :           3.798 MB after allocating wave
  | Largest tracked array allocation on task 0 so far         :           2.500 MB  when allocating +KS_eigenvector_complex
  Note:  These values currently only include a subset of arrays which are explicitly tracked.
  The "true" memory usage will be greater.
------------------------------------------------------------

------------------------------------------------------------
          Begin self-consistency iteration #    4

  Date     :  20190514, Time     :  123541.182
------------------------------------------------------------
  Evaluating new KS density using the density matrix
  Evaluating density matrix
  Time summed over all CPUs for getting density from density matrix: real work        0.163 s, elapsed        0.163 s
  Integration grid: deviation in total charge (<rho> - N_e) =  -2.806644E-13
  Pulay mixing of updated and previous charge densities.

  Evaluating partitioned Hartree potential by multipole expansion.
  | Analytical far-field extrapolation by fixed multipoles:
  | Hartree multipole sum: apparent total charge =  -0.342460E-02
  Summing up the Hartree potential.
  Time summed over all CPUs for potential: real work        0.173 s, elapsed        0.173 s
  | RMS charge density error from multipole expansion :   0.150173E-02
  | Average real-space part of the electrostatic potential :     -0.30213784 eV

  Integrating Hamiltonian matrix: batch-based integration.
  Time summed over all CPUs for integration: real work        0.104 s, elapsed        0.104 s

  Updating Kohn-Sham eigenvalues, eigenvectors, occupation numbers, and Fermi level.
  Solving generalized eigenproblem

  Obtaining occupation numbers and chemical potential using ELSI.
  | Chemical potential (Fermi level):    -4.90024378eV
  What follows are estimated values for band gap, HOMO, LUMO, etc.
  | They are estimated on a discrete k-point grid and not necessarily exact.
  | For converged numbers, create a DOS and/or band structure plot on a denser k-grid.

  Highest occupied state (VBM) at     -4.90309892 eV (relative to internal zero)
  | Occupation number:      1.06436356
  | K-point:     204 at    0.166667    0.166667    0.333333 (in units of recip. lattice)

  Lowest unoccupied state (CBM) at    -4.88974761 eV (relative to internal zero)
  | Occupation number:      0.76656062
  | K-point:     542 at    0.416667    0.250000    0.916667 (in units of recip. lattice)

  ESTIMATED overall HOMO-LUMO gap:      0.01335131 eV between HOMO at k-point 204 and LUMO at k-point 542
  | This appears to be an indirect band gap.
  | Smallest direct gap :      0.07980865 eV for k_point 574 at    0.416667    0.250000    0.916667 (in units of recip. lattice)
  However, this system has fractional occupation numbers. Since we use a finite k-point grid,
  this material is metallic within the approximate finite broadening function (occupation_type)
  applied to determine the occupation numbers.

  Total energy components:
  | Sum of eigenvalues            :        -163.84521950 Ha       -4458.45526638 eV
  | XC energy correction          :         -19.63022376 Ha        -534.16556657 eV
  | XC potential correction       :          25.93635242 Ha         705.76405826 eV
  | Free-atom electrostatic energy:        -132.18944301 Ha       -3597.05776054 eV
  | Hartree energy correction     :           0.45742273 Ha          12.44710590 eV
  | Entropy correction            :          -0.00002898 Ha          -0.00078871 eV
  | ---------------------------
  | Total energy                  :        -289.27111112 Ha       -7871.46742933 eV
  | Total energy, T -> 0          :        -289.27114010 Ha       -7871.46821804 eV  <-- do not rely on this value for anything but (periodic) metals
  | Electronic free energy        :        -289.27116909 Ha       -7871.46900675 eV

  Derived energy quantities:
  | Kinetic energy                :         289.30378083 Ha        7872.35641751 eV
  | Electrostatic energy          :        -558.94466819 Ha      -15209.65828028 eV
  | Energy correction for multipole
  | error in Hartree potential    :           0.00019067 Ha           0.00518849 eV
  | Sum of eigenvalues per atom                           :       -4458.45526638 eV
  | Total energy (T->0) per atom                          :       -7871.46821804 eV  <-- do not rely on this value for anything but (periodic) metals
  | Electronic free energy per atom                       :       -7871.46900675 eV

  Self-consistency convergence accuracy:
  | Change of charge density      :  0.2881E-02
  | Change of sum of eigenvalues  : -0.1687E+01 eV
  | Change of total energy        :  0.3068E-03 eV

  End self-consistency iteration #     4       :  max(cpu_time)    wall_clock(cpu1)
  | Time for this iteration                    :        0.583 s           0.583 s
  | Charge density update                      :        0.176 s           0.176 s
  | Density mixing & preconditioning           :        0.017 s           0.017 s
  | Hartree multipole update                   :        0.000 s           0.000 s
  | Hartree multipole summation                :        0.175 s           0.175 s
  | Integration                                :        0.104 s           0.104 s
  | Solution of K.-S. eqns.                    :        0.111 s           0.111 s
  | Total energy evaluation                    :        0.000 s           0.000 s

  Partial memory accounting:
  | Current value for overall tracked memory usage on task 0  :           2.650 MB
  | Peak value for overall tracked memory usage on task 0     :           3.798 MB after allocating wave
  | Largest tracked array allocation on task 0 so far         :           2.500 MB  when allocating +KS_eigenvector_complex
  Note:  These values currently only include a subset of arrays which are explicitly tracked.
  The "true" memory usage will be greater.
------------------------------------------------------------

------------------------------------------------------------
          Begin self-consistency iteration #    5

  Date     :  20190514, Time     :  123541.765
------------------------------------------------------------
  Evaluating new KS density using the density matrix
  Evaluating density matrix
  Time summed over all CPUs for getting density from density matrix: real work        0.161 s, elapsed        0.161 s
  Integration grid: deviation in total charge (<rho> - N_e) =  -3.339551E-13
  Pulay mixing of updated and previous charge densities.

  Evaluating partitioned Hartree potential by multipole expansion.
  | Analytical far-field extrapolation by fixed multipoles:
  | Hartree multipole sum: apparent total charge =  -0.883219E-03
  Summing up the Hartree potential.
  Time summed over all CPUs for potential: real work        0.173 s, elapsed        0.173 s
  | RMS charge density error from multipole expansion :   0.147982E-02
  | Average real-space part of the electrostatic potential :     -0.30975743 eV

  Integrating Hamiltonian matrix: batch-based integration.
  Time summed over all CPUs for integration: real work        0.104 s, elapsed        0.104 s

  Updating Kohn-Sham eigenvalues, eigenvectors, occupation numbers, and Fermi level.
  Solving generalized eigenproblem

  Obtaining occupation numbers and chemical potential using ELSI.
  | Chemical potential (Fermi level):    -4.89300119eV
  What follows are estimated values for band gap, HOMO, LUMO, etc.
  | They are estimated on a discrete k-point grid and not necessarily exact.
  | For converged numbers, create a DOS and/or band structure plot on a denser k-grid.

  Highest occupied state (VBM) at     -4.89621071 eV (relative to internal zero)
  | Occupation number:      1.07233173
  | K-point:     420 at    0.333333    0.166667    0.333333 (in units of recip. lattice)

  Lowest unoccupied state (CBM) at    -4.88268205 eV (relative to internal zero)
  | Occupation number:      0.77038668
  | K-point:     608 at    0.416667    0.916667    0.250000 (in units of recip. lattice)

  ESTIMATED overall HOMO-LUMO gap:      0.01352865 eV between HOMO at k-point 420 and LUMO at k-point 608
  | This appears to be an indirect band gap.
  | Smallest direct gap :      0.07990323 eV for k_point 663 at    0.416667    0.916667    0.250000 (in units of recip. lattice)
  However, this system has fractional occupation numbers. Since we use a finite k-point grid,
  this material is metallic within the approximate finite broadening function (occupation_type)
  applied to determine the occupation numbers.

  Total energy components:
  | Sum of eigenvalues            :        -163.83085735 Ha       -4458.06445233 eV
  | XC energy correction          :         -19.63055458 Ha        -534.17456871 eV
  | XC potential correction       :          25.93679981 Ha         705.77623238 eV
  | Free-atom electrostatic energy:        -132.18944301 Ha       -3597.05776054 eV
  | Hartree energy correction     :           0.44294583 Ha          12.05316936 eV
  | Entropy correction            :          -0.00002895 Ha          -0.00078772 eV
  | ---------------------------
  | Total energy                  :        -289.27110930 Ha       -7871.46737984 eV
  | Total energy, T -> 0          :        -289.27113825 Ha       -7871.46816755 eV  <-- do not rely on this value for anything but (periodic) metals
  | Electronic free energy        :        -289.27116719 Ha       -7871.46895527 eV

  Derived energy quantities:
  | Kinetic energy                :         289.31135500 Ha        7872.56252115 eV
  | Electrostatic energy          :        -558.95190972 Ha      -15209.85533228 eV
  | Energy correction for multipole
  | error in Hartree potential    :           0.00018759 Ha           0.00510458 eV
  | Sum of eigenvalues per atom                           :       -4458.06445233 eV
  | Total energy (T->0) per atom                          :       -7871.46816755 eV  <-- do not rely on this value for anything but (periodic) metals
  | Electronic free energy per atom                       :       -7871.46895527 eV

  Self-consistency convergence accuracy:
  | Change of charge density      :  0.1845E-02
  | Change of sum of eigenvalues  :  0.3908E+00 eV
  | Change of total energy        :  0.4949E-04 eV

  End self-consistency iteration #     5       :  max(cpu_time)    wall_clock(cpu1)
  | Time for this iteration                    :        0.580 s           0.580 s
  | Charge density update                      :        0.174 s           0.174 s
  | Density mixing & preconditioning           :        0.017 s           0.017 s
  | Hartree multipole update                   :        0.000 s           0.001 s
  | Hartree multipole summation                :        0.174 s           0.174 s
  | Integration                                :        0.104 s           0.104 s
  | Solution of K.-S. eqns.                    :        0.110 s           0.110 s
  | Total energy evaluation                    :        0.000 s           0.000 s

  Partial memory accounting:
  | Current value for overall tracked memory usage on task 0  :           2.650 MB
  | Peak value for overall tracked memory usage on task 0     :           3.798 MB after allocating wave
  | Largest tracked array allocation on task 0 so far         :           2.500 MB  when allocating +KS_eigenvector_complex
  Note:  These values currently only include a subset of arrays which are explicitly tracked.
  The "true" memory usage will be greater.
------------------------------------------------------------

------------------------------------------------------------
          Begin self-consistency iteration #    6

  Date     :  20190514, Time     :  123542.345
------------------------------------------------------------
  Evaluating new KS density using the density matrix
  Evaluating density matrix
  Time summed over all CPUs for getting density from density matrix: real work        0.162 s, elapsed        0.162 s
  Integration grid: deviation in total charge (<rho> - N_e) =  -2.717826E-13
  Pulay mixing of updated and previous charge densities.

  Evaluating partitioned Hartree potential by multipole expansion.
  | Analytical far-field extrapolation by fixed multipoles:
  | Hartree multipole sum: apparent total charge =  -0.258604E-03
  Summing up the Hartree potential.
  Time summed over all CPUs for potential: real work        0.173 s, elapsed        0.173 s
  | RMS charge density error from multipole expansion :   0.146250E-02
  | Average real-space part of the electrostatic potential :     -0.30853842 eV

  Integrating Hamiltonian matrix: batch-based integration.
  Time summed over all CPUs for integration: real work        0.103 s, elapsed        0.103 s

  Updating Kohn-Sham eigenvalues, eigenvectors, occupation numbers, and Fermi level.
  Solving generalized eigenproblem

  Obtaining occupation numbers and chemical potential using ELSI.
  | Chemical potential (Fermi level):    -4.88902226eV
  What follows are estimated values for band gap, HOMO, LUMO, etc.
  | They are estimated on a discrete k-point grid and not necessarily exact.
  | For converged numbers, create a DOS and/or band structure plot on a denser k-grid.

  Highest occupied state (VBM) at     -4.89246068 eV (relative to internal zero)
  | Occupation number:      1.07747477
  | K-point:     222 at    0.166667    0.333333    0.333333 (in units of recip. lattice)

  Lowest unoccupied state (CBM) at    -4.87881773 eV (relative to internal zero)
  | Occupation number:      0.77286633
  | K-point:     560 at    0.416667    0.416667    0.916667 (in units of recip. lattice)

  ESTIMATED overall HOMO-LUMO gap:      0.01364295 eV between HOMO at k-point 222 and LUMO at k-point 560
  | This appears to be an indirect band gap.
  | Smallest direct gap :      0.07996374 eV for k_point 565 at    0.416667    0.416667    0.916667 (in units of recip. lattice)
  However, this system has fractional occupation numbers. Since we use a finite k-point grid,
  this material is metallic within the approximate finite broadening function (occupation_type)
  applied to determine the occupation numbers.

  Total energy components:
  | Sum of eigenvalues            :        -163.82124698 Ha       -4457.80294087 eV
  | XC energy correction          :         -19.63119959 Ha        -534.19212024 eV
  | XC potential correction       :          25.93765478 Ha         705.79949721 eV
  | Free-atom electrostatic energy:        -132.18944301 Ha       -3597.05776054 eV
  | Hartree energy correction     :           0.43312551 Ha          11.78594477 eV
  | Entropy correction            :          -0.00002892 Ha          -0.00078708 eV
  | ---------------------------
  | Total energy                  :        -289.27110929 Ha       -7871.46737967 eV
  | Total energy, T -> 0          :        -289.27113822 Ha       -7871.46816675 eV  <-- do not rely on this value for anything but (periodic) metals
  | Electronic free energy        :        -289.27116714 Ha       -7871.46895383 eV

  Derived energy quantities:
  | Kinetic energy                :         289.31961663 Ha        7872.78733155 eV
  | Electrostatic energy          :        -558.95952633 Ha      -15210.06259098 eV
  | Energy correction for multipole
  | error in Hartree potential    :           0.00018496 Ha           0.00503312 eV
  | Sum of eigenvalues per atom                           :       -4457.80294087 eV
  | Total energy (T->0) per atom                          :       -7871.46816675 eV  <-- do not rely on this value for anything but (periodic) metals
  | Electronic free energy per atom                       :       -7871.46895383 eV

  Self-consistency convergence accuracy:
  | Change of charge density      :  0.8589E-03
  | Change of sum of eigenvalues  :  0.2615E+00 eV
  | Change of total energy        :  0.1659E-06 eV

  End self-consistency iteration #     6       :  max(cpu_time)    wall_clock(cpu1)
  | Time for this iteration                    :        0.581 s           0.582 s
  | Charge density update                      :        0.174 s           0.175 s
  | Density mixing & preconditioning           :        0.017 s           0.017 s
  | Hartree multipole update                   :        0.001 s           0.001 s
  | Hartree multipole summation                :        0.174 s           0.174 s
  | Integration                                :        0.104 s           0.103 s
  | Solution of K.-S. eqns.                    :        0.111 s           0.111 s
  | Total energy evaluation                    :        0.000 s           0.000 s

  Partial memory accounting:
  | Current value for overall tracked memory usage on task 0  :           2.651 MB
  | Peak value for overall tracked memory usage on task 0     :           3.798 MB after allocating wave
  | Largest tracked array allocation on task 0 so far         :           2.500 MB  when allocating +KS_eigenvector_complex
  Note:  These values currently only include a subset of arrays which are explicitly tracked.
  The "true" memory usage will be greater.
------------------------------------------------------------

------------------------------------------------------------
          Begin self-consistency iteration #    7

  Date     :  20190514, Time     :  123542.927
------------------------------------------------------------
  Evaluating new KS density using the density matrix
  Evaluating density matrix
  Time summed over all CPUs for getting density from density matrix: real work        0.158 s, elapsed        0.158 s
  Integration grid: deviation in total charge (<rho> - N_e) =  -2.682299E-13
  Pulay mixing of updated and previous charge densities.

  Evaluating partitioned Hartree potential by multipole expansion.
  | Analytical far-field extrapolation by fixed multipoles:
  | Hartree multipole sum: apparent total charge =   0.406258E-05
  Summing up the Hartree potential.
  Time summed over all CPUs for potential: real work        0.172 s, elapsed        0.172 s
  | RMS charge density error from multipole expansion :   0.145589E-02
  | Average real-space part of the electrostatic potential :     -0.30914287 eV

  Integrating Hamiltonian matrix: batch-based integration.
  Time summed over all CPUs for integration: real work        0.104 s, elapsed        0.104 s

  Updating Kohn-Sham eigenvalues, eigenvectors, occupation numbers, and Fermi level.
  Solving generalized eigenproblem

  Obtaining occupation numbers and chemical potential using ELSI.
  | Chemical potential (Fermi level):    -4.88824083eV
  What follows are estimated values for band gap, HOMO, LUMO, etc.
  | They are estimated on a discrete k-point grid and not necessarily exact.
  | For converged numbers, create a DOS and/or band structure plot on a denser k-grid.

  Highest occupied state (VBM) at     -4.89171416 eV (relative to internal zero)
  | Occupation number:      1.07825873
  | K-point:     204 at    0.166667    0.166667    0.333333 (in units of recip. lattice)

  Lowest unoccupied state (CBM) at    -4.87805395 eV (relative to internal zero)
  | Occupation number:      0.77324843
  | K-point:     542 at    0.416667    0.250000    0.916667 (in units of recip. lattice)

  ESTIMATED overall HOMO-LUMO gap:      0.01366021 eV between HOMO at k-point 204 and LUMO at k-point 542
  | This appears to be an indirect band gap.
  | Smallest direct gap :      0.07997475 eV for k_point 566 at    0.416667    0.250000    0.916667 (in units of recip. lattice)
  However, this system has fractional occupation numbers. Since we use a finite k-point grid,
  this material is metallic within the approximate finite broadening function (occupation_type)
  applied to determine the occupation numbers.

  Total energy components:
  | Sum of eigenvalues            :        -163.81952923 Ha       -4457.75619854 eV
  | XC energy correction          :         -19.63126391 Ha        -534.19387060 eV
  | XC potential correction       :          25.93774091 Ha         705.80184103 eV
  | Free-atom electrostatic energy:        -132.18944301 Ha       -3597.05776054 eV
  | Hartree energy correction     :           0.43138580 Ha          11.73860482 eV
  | Entropy correction            :          -0.00002892 Ha          -0.00078697 eV
  | ---------------------------
  | Total energy                  :        -289.27110944 Ha       -7871.46738382 eV
  | Total energy, T -> 0          :        -289.27113836 Ha       -7871.46817079 eV  <-- do not rely on this value for anything but (periodic) metals
  | Electronic free energy        :        -289.27116729 Ha       -7871.46895776 eV

  Derived energy quantities:
  | Kinetic energy                :         289.32079865 Ha        7872.81949597 eV
  | Electrostatic energy          :        -558.96064418 Ha      -15210.09300919 eV
  | Energy correction for multipole
  | error in Hartree potential    :           0.00018406 Ha           0.00500858 eV
  | Sum of eigenvalues per atom                           :       -4457.75619854 eV
  | Total energy (T->0) per atom                          :       -7871.46817079 eV  <-- do not rely on this value for anything but (periodic) metals
  | Electronic free energy per atom                       :       -7871.46895776 eV

  Self-consistency convergence accuracy:
  | Change of charge density      :  0.1282E-03
  | Change of sum of eigenvalues  :  0.4674E-01 eV
  | Change of total energy        : -0.4151E-05 eV

  End self-consistency iteration #     7       :  max(cpu_time)    wall_clock(cpu1)
  | Time for this iteration                    :        0.579 s           0.578 s
  | Charge density update                      :        0.171 s           0.171 s
  | Density mixing & preconditioning           :        0.017 s           0.017 s
  | Hartree multipole update                   :        0.000 s           0.000 s
  | Hartree multipole summation                :        0.174 s           0.174 s
  | Integration                                :        0.104 s           0.104 s
  | Solution of K.-S. eqns.                    :        0.112 s           0.112 s
  | Total energy evaluation                    :        0.000 s           0.000 s

  Partial memory accounting:
  | Current value for overall tracked memory usage on task 0  :           2.651 MB
  | Peak value for overall tracked memory usage on task 0     :           3.798 MB after allocating wave
  | Largest tracked array allocation on task 0 so far         :           2.500 MB  when allocating +KS_eigenvector_complex
  Note:  These values currently only include a subset of arrays which are explicitly tracked.
  The "true" memory usage will be greater.
------------------------------------------------------------

------------------------------------------------------------
          Begin self-consistency iteration #    8

  Date     :  20190514, Time     :  123543.506
------------------------------------------------------------
  Evaluating new KS density using the density matrix
  Evaluating density matrix
  Time summed over all CPUs for getting density from density matrix: real work        0.161 s, elapsed        0.161 s
  Integration grid: deviation in total charge (<rho> - N_e) =  -4.458656E-13
  Pulay mixing of updated and previous charge densities.

  Evaluating partitioned Hartree potential by multipole expansion.
  | Analytical far-field extrapolation by fixed multipoles:
  | Hartree multipole sum: apparent total charge =   0.220981E-04
  Summing up the Hartree potential.
  Time summed over all CPUs for potential: real work        0.181 s, elapsed        0.181 s
  | RMS charge density error from multipole expansion :   0.145565E-02
  | Average real-space part of the electrostatic potential :     -0.30920958 eV

  Integrating Hamiltonian matrix: batch-based integration.
  Time summed over all CPUs for integration: real work        0.103 s, elapsed        0.103 s

  Updating Kohn-Sham eigenvalues, eigenvectors, occupation numbers, and Fermi level.
  Solving generalized eigenproblem

  Obtaining occupation numbers and chemical potential using ELSI.
  | Chemical potential (Fermi level):    -4.88820903eV
  What follows are estimated values for band gap, HOMO, LUMO, etc.
  | They are estimated on a discrete k-point grid and not necessarily exact.
  | For converged numbers, create a DOS and/or band structure plot on a denser k-grid.

  Highest occupied state (VBM) at     -4.89168323 eV (relative to internal zero)
  | Occupation number:      1.07827848
  | K-point:     204 at    0.166667    0.166667    0.333333 (in units of recip. lattice)

  Lowest unoccupied state (CBM) at    -4.87802258 eV (relative to internal zero)
  | Occupation number:      0.77325786
  | K-point:     542 at    0.416667    0.250000    0.916667 (in units of recip. lattice)

  ESTIMATED overall HOMO-LUMO gap:      0.01366065 eV between HOMO at k-point 204 and LUMO at k-point 542
  | This appears to be an indirect band gap.
  | Smallest direct gap :      0.07997506 eV for k_point 566 at    0.416667    0.250000    0.916667 (in units of recip. lattice)
  However, this system has fractional occupation numbers. Since we use a finite k-point grid,
  this material is metallic within the approximate finite broadening function (occupation_type)
  applied to determine the occupation numbers.

  Total energy components:
  | Sum of eigenvalues            :        -163.81953126 Ha       -4457.75625377 eV
  | XC energy correction          :         -19.63125473 Ha        -534.19362070 eV
  | XC potential correction       :          25.93772879 Ha         705.80151126 eV
  | Free-atom electrostatic energy:        -132.18944301 Ha       -3597.05776054 eV
  | Hartree energy correction     :           0.43139076 Ha          11.73873973 eV
  | Entropy correction            :          -0.00002892 Ha          -0.00078697 eV
  | ---------------------------
  | Total energy                  :        -289.27110945 Ha       -7871.46738402 eV
  | Total energy, T -> 0          :        -289.27113837 Ha       -7871.46817099 eV  <-- do not rely on this value for anything but (periodic) metals
  | Electronic free energy        :        -289.27116729 Ha       -7871.46895796 eV

  Derived energy quantities:
  | Kinetic energy                :         289.32066006 Ha        7872.81572482 eV
  | Electrostatic energy          :        -558.96051479 Ha      -15210.08948814 eV
  | Energy correction for multipole
  | error in Hartree potential    :           0.00018403 Ha           0.00500772 eV
  | Sum of eigenvalues per atom                           :       -4457.75625377 eV
  | Total energy (T->0) per atom                          :       -7871.46817099 eV  <-- do not rely on this value for anything but (periodic) metals
  | Electronic free energy per atom                       :       -7871.46895796 eV

  Self-consistency convergence accuracy:
  | Change of charge density      :  0.1315E-04
  | Change of sum of eigenvalues  : -0.5524E-04 eV
  | Change of total energy        : -0.2005E-06 eV

  End self-consistency iteration #     8       :  max(cpu_time)    wall_clock(cpu1)
  | Time for this iteration                    :        0.588 s           0.587 s
  | Charge density update                      :        0.174 s           0.173 s
  | Density mixing & preconditioning           :        0.017 s           0.017 s
  | Hartree multipole update                   :        0.000 s           0.001 s
  | Hartree multipole summation                :        0.183 s           0.182 s
  | Integration                                :        0.102 s           0.103 s
  | Solution of K.-S. eqns.                    :        0.112 s           0.111 s
  | Total energy evaluation                    :        0.000 s           0.000 s

  Partial memory accounting:
  | Current value for overall tracked memory usage on task 0  :           2.651 MB
  | Peak value for overall tracked memory usage on task 0     :           3.798 MB after allocating wave
  | Largest tracked array allocation on task 0 so far         :           2.500 MB  when allocating +KS_eigenvector_complex
  Note:  These values currently only include a subset of arrays which are explicitly tracked.
  The "true" memory usage will be greater.
------------------------------------------------------------

------------------------------------------------------------
          Begin self-consistency iteration #    9

  Date     :  20190514, Time     :  123544.093
------------------------------------------------------------
  Evaluating new KS density using the density matrix
  Evaluating density matrix
  Time summed over all CPUs for getting density from density matrix: real work        0.166 s, elapsed        0.166 s
  Integration grid: deviation in total charge (<rho> - N_e) =  -2.646772E-13
  Pulay mixing of updated and previous charge densities.

  Evaluating partitioned Hartree potential by multipole expansion.
  | Analytical far-field extrapolation by fixed multipoles:
  | Hartree multipole sum: apparent total charge =   0.153178E-04
  Summing up the Hartree potential.
  Time summed over all CPUs for potential: real work        0.171 s, elapsed        0.171 s
  | RMS charge density error from multipole expansion :   0.145535E-02
  | Average real-space part of the electrostatic potential :     -0.30907544 eV

  Integrating Hamiltonian matrix: batch-based integration.
  Time summed over all CPUs for integration: real work        0.102 s, elapsed        0.102 s

  Updating Kohn-Sham eigenvalues, eigenvectors, occupation numbers, and Fermi level.
  Solving generalized eigenproblem

  Obtaining occupation numbers and chemical potential using ELSI.
  | Chemical potential (Fermi level):    -4.88813650eV
  What follows are estimated values for band gap, HOMO, LUMO, etc.
  | They are estimated on a discrete k-point grid and not necessarily exact.
  | For converged numbers, create a DOS and/or band structure plot on a denser k-grid.

  Highest occupied state (VBM) at     -4.89161620 eV (relative to internal zero)
  | Occupation number:      1.07840170
  | K-point:     220 at    0.166667    0.333333    0.166667 (in units of recip. lattice)

  Lowest unoccupied state (CBM) at    -4.87795278 eV (relative to internal zero)
  | Occupation number:      0.77331662
  | K-point:     783 at    0.750000    0.583333    0.583333 (in units of recip. lattice)

  ESTIMATED overall HOMO-LUMO gap:      0.01366342 eV between HOMO at k-point 220 and LUMO at k-point 783
  | This appears to be an indirect band gap.
  | Smallest direct gap :      0.07997651 eV for k_point 662 at    0.750000    0.583333    0.583333 (in units of recip. lattice)
  However, this system has fractional occupation numbers. Since we use a finite k-point grid,
  this material is metallic within the approximate finite broadening function (occupation_type)
  applied to determine the occupation numbers.

  Total energy components:
  | Sum of eigenvalues            :        -163.81932481 Ha       -4457.75063597 eV
  | XC energy correction          :         -19.63127406 Ha        -534.19414655 eV
  | XC potential correction       :          25.93775428 Ha         705.80220483 eV
  | Free-atom electrostatic energy:        -132.18944301 Ha       -3597.05776054 eV
  | Hartree energy correction     :           0.43117813 Ha          11.73295384 eV
  | Entropy correction            :          -0.00002892 Ha          -0.00078695 eV
  | ---------------------------
  | Total energy                  :        -289.27110946 Ha       -7871.46738439 eV
  | Total energy, T -> 0          :        -289.27113838 Ha       -7871.46817134 eV  <-- do not rely on this value for anything but (periodic) metals
  | Electronic free energy        :        -289.27116730 Ha       -7871.46895829 eV

  Derived energy quantities:
  | Kinetic energy                :         289.32082761 Ha        7872.82028407 eV
  | Electrostatic energy          :        -558.96066302 Ha      -15210.09352191 eV
  | Energy correction for multipole
  | error in Hartree potential    :           0.00018399 Ha           0.00500651 eV
  | Sum of eigenvalues per atom                           :       -4457.75063597 eV
  | Total energy (T->0) per atom                          :       -7871.46817134 eV  <-- do not rely on this value for anything but (periodic) metals
  | Electronic free energy per atom                       :       -7871.46895829 eV

  Self-consistency convergence accuracy:
  | Change of charge density      :  0.1381E-04
  | Change of sum of eigenvalues  :  0.5618E-02 eV
  | Change of total energy        : -0.3643E-06 eV

  End self-consistency iteration #     9       :  max(cpu_time)    wall_clock(cpu1)
  | Time for this iteration                    :        0.584 s           0.584 s
  | Charge density update                      :        0.179 s           0.178 s
  | Density mixing & preconditioning           :        0.017 s           0.017 s
  | Hartree multipole update                   :        0.000 s           0.000 s
  | Hartree multipole summation                :        0.173 s           0.174 s
  | Integration                                :        0.102 s           0.102 s
  | Solution of K.-S. eqns.                    :        0.112 s           0.112 s
  | Total energy evaluation                    :        0.000 s           0.000 s

  Partial memory accounting:
  | Current value for overall tracked memory usage on task 0  :           2.652 MB
  | Peak value for overall tracked memory usage on task 0     :           3.798 MB after allocating wave
  | Largest tracked array allocation on task 0 so far         :           2.500 MB  when allocating +KS_eigenvector_complex
  Note:  These values currently only include a subset of arrays which are explicitly tracked.
  The "true" memory usage will be greater.
------------------------------------------------------------

------------------------------------------------------------
          Begin self-consistency iteration #   10

  Date     :  20190514, Time     :  123544.677
------------------------------------------------------------
  Evaluating new KS density using the density matrix
  Evaluating density matrix
  Time summed over all CPUs for getting density from density matrix: real work        0.162 s, elapsed        0.162 s
  Integration grid: deviation in total charge (<rho> - N_e) =  -3.304024E-13
  Pulay mixing of updated and previous charge densities.

  Evaluating partitioned Hartree potential by multipole expansion.
  | Analytical far-field extrapolation by fixed multipoles:
  | Hartree multipole sum: apparent total charge =   0.153567E-04
  Summing up the Hartree potential.
  Time summed over all CPUs for potential: real work        0.175 s, elapsed        0.175 s
  | RMS charge density error from multipole expansion :   0.145536E-02
  | Average real-space part of the electrostatic potential :     -0.30907835 eV

  Integrating Hamiltonian matrix: batch-based integration.
  Time summed over all CPUs for integration: real work        0.106 s, elapsed        0.106 s

  Updating Kohn-Sham eigenvalues, eigenvectors, occupation numbers, and Fermi level.
  Solving generalized eigenproblem

  Obtaining occupation numbers and chemical potential using ELSI.
  | Chemical potential (Fermi level):    -4.88813852eV
  What follows are estimated values for band gap, HOMO, LUMO, etc.
  | They are estimated on a discrete k-point grid and not necessarily exact.
  | For converged numbers, create a DOS and/or band structure plot on a denser k-grid.

  Highest occupied state (VBM) at     -4.89161808 eV (relative to internal zero)
  | Occupation number:      1.07839857
  | K-point:     220 at    0.166667    0.333333    0.166667 (in units of recip. lattice)

  Lowest unoccupied state (CBM) at    -4.87795473 eV (relative to internal zero)
  | Occupation number:      0.77331512
  | K-point:     143 at    0.083333    0.583333    0.583333 (in units of recip. lattice)

  ESTIMATED overall HOMO-LUMO gap:      0.01366335 eV between HOMO at k-point 220 and LUMO at k-point 143
  | This appears to be an indirect band gap.
  | Smallest direct gap :      0.07997648 eV for k_point 662 at    0.083333    0.583333    0.583333 (in units of recip. lattice)
  However, this system has fractional occupation numbers. Since we use a finite k-point grid,
  this material is metallic within the approximate finite broadening function (occupation_type)
  applied to determine the occupation numbers.

  Total energy components:
  | Sum of eigenvalues            :        -163.81933012 Ha       -4457.75078043 eV
  | XC energy correction          :         -19.63127360 Ha        -534.19413411 eV
  | XC potential correction       :          25.93775368 Ha         705.80218841 eV
  | Free-atom electrostatic energy:        -132.18944301 Ha       -3597.05776054 eV
  | Hartree energy correction     :           0.43118358 Ha          11.73310228 eV
  | Entropy correction            :          -0.00002892 Ha          -0.00078695 eV
  | ---------------------------
  | Total energy                  :        -289.27110946 Ha       -7871.46738437 eV
  | Total energy, T -> 0          :        -289.27113838 Ha       -7871.46817133 eV  <-- do not rely on this value for anything but (periodic) metals
  | Electronic free energy        :        -289.27116730 Ha       -7871.46895828 eV

  Derived energy quantities:
  | Kinetic energy                :         289.32082346 Ha        7872.82017112 eV
  | Electrostatic energy          :        -558.96065933 Ha      -15210.09342138 eV
  | Energy correction for multipole
  | error in Hartree potential    :           0.00018399 Ha           0.00500655 eV
  | Sum of eigenvalues per atom                           :       -4457.75078043 eV
  | Total energy (T->0) per atom                          :       -7871.46817133 eV  <-- do not rely on this value for anything but (periodic) metals
  | Electronic free energy per atom                       :       -7871.46895828 eV

  Self-consistency convergence accuracy:
  | Change of charge density      :  0.5771E-06
  | Change of sum of eigenvalues  : -0.1445E-03 eV
  | Change of total energy        :  0.1076E-07 eV

  Preliminary charge convergence reached. Turning off preconditioner.

  Writing Kohn-Sham eigenvalues.
  K-point:       1 at    0.000000    0.000000    0.000000 (in units of recip. lattice)

  State    Occupation    Eigenvalue [Ha]    Eigenvalue [eV]
      1       2.00000         -65.536719        -1783.34486
      2       2.00000          -5.124299         -139.43926
      3       2.00000          -3.539208          -96.30674
      4       2.00000          -3.539208          -96.30674
      5       2.00000          -3.539208          -96.30674
      6       2.00000          -0.479088          -13.03664
      7       0.00000          -0.057379           -1.56136
      8       0.00000          -0.057379           -1.56136
      9       0.00000          -0.057379           -1.56136
     10       0.00000           0.124352            3.38380

  What follows are estimated values for band gap, HOMO, LUMO, etc.
  | They are estimated on a discrete k-point grid and not necessarily exact.
  | For converged numbers, create a DOS and/or band structure plot on a denser k-grid.

  Highest occupied state (VBM) at     -4.89161808 eV (relative to internal zero)
  | Occupation number:      1.07839857
  | K-point:     220 at    0.166667    0.333333    0.166667 (in units of recip. lattice)

  Lowest unoccupied state (CBM) at    -4.87795473 eV (relative to internal zero)
  | Occupation number:      0.77331512
  | K-point:     143 at    0.083333    0.583333    0.583333 (in units of recip. lattice)

  ESTIMATED overall HOMO-LUMO gap:      0.01366335 eV between HOMO at k-point 220 and LUMO at k-point 143
  | This appears to be an indirect band gap.
  | Smallest direct gap :      0.07997648 eV for k_point 662 at    0.083333    0.583333    0.583333 (in units of recip. lattice)
  However, this system has fractional occupation numbers. Since we use a finite k-point grid,
  this material is metallic within the approximate finite broadening function (occupation_type)
  applied to determine the occupation numbers.

  Self-consistency cycle converged.

  End self-consistency iteration #    10       :  max(cpu_time)    wall_clock(cpu1)
  | Time for this iteration                    :        0.591 s           0.591 s
  | Charge density update                      :        0.175 s           0.175 s
  | Density mixing                             :        0.017 s           0.017 s
  | Hartree multipole update                   :        0.000 s           0.001 s
  | Hartree multipole summation                :        0.177 s           0.177 s
  | Integration                                :        0.107 s           0.107 s
  | Solution of K.-S. eqns.                    :        0.114 s           0.113 s
  | Total energy evaluation                    :        0.000 s           0.001 s

  Partial memory accounting:
  | Current value for overall tracked memory usage on task 0  :           2.652 MB
  | Peak value for overall tracked memory usage on task 0     :           3.798 MB after allocating wave
  | Largest tracked array allocation on task 0 so far         :           2.500 MB  when allocating +KS_eigenvector_complex
  Note:  These values currently only include a subset of arrays which are explicitly tracked.
  The "true" memory usage will be greater.
------------------------------------------------------------

  Energy and forces in a compact form:
  | Total energy uncorrected      :         -0.787146738437445E+04 eV
  | Total energy corrected        :         -0.787146817132918E+04 eV  <-- do not rely on this value for anything but (periodic) metals
  | Electronic free energy        :         -0.787146895828391E+04 eV

  ------------------------------------ 
  Start decomposition of the XC Energy 
  ------------------------------------ 
  X and C from original XC functional choice 
  Hartree-Fock Energy :          0.000000000 Ha              0.000000000 eV
  X Energy            :        -18.575855675 Ha           -505.474751189 eV
  C Energy            :         -1.055417923 Ha            -28.719382921 eV
  Total XC Energy     :        -19.631273598 Ha           -534.194134110 eV
  ------------------------------------ 
  LDA X and C from self-consistent density 
  X Energy LDA        :        -18.575855675 Ha           -505.474751189 eV
  C Energy LDA        :         -1.055417923 Ha            -28.719382921 eV
  ------------------------------------ 
  End decomposition of the XC Energy 
  ------------------------------------ 

------------------------------------------------------------

------------------------------------------------------------------------------
  Final output of selected total energy values:

  The following output summarizes some interesting total energy values
  at the end of a run (AFTER all relaxation, molecular dynamics, etc.).

  | Total energy of the DFT / Hartree-Fock s.c.f. calculation      :          -7871.467384374 eV
  | Final zero-broadening corrected energy (caution - metals only) :          -7871.468171329 eV
  | For reference only, the value of 1 Hartree used in FHI-aims is :             27.211384500 eV

  Before relying on these values, please be sure to understand exactly which
  total energy value is referred to by a given number. Different objects may
  all carry the same name 'total energy'. Definitions:

  Total energy of the DFT / Hartree-Fock s.c.f. calculation:
  | Note that this energy does not include ANY quantities calculated after the
  | s.c.f. cycle, in particular not ANY RPA, MP2, etc. many-body perturbation terms.

  Final zero-broadening corrected energy:
  | For metallic systems only, a broadening of the occupation numbers at the Fermi
  | level can be extrapolated back to zero broadening by an electron-gas inspired
  | formula. For all systems that are not real metals, this value can be
  | meaningless and should be avoided.

------------------------------------------------------------------------------
  Methods described in the following list of references were used in this FHI-aims run.
  If you publish the results, please make sure to cite these reference if they apply.
  FHI-aims is an academic code, and for our developers (often, Ph.D. students
  and postdocs), scientific credit in the community is essential.
  Thank you for helping us!

  For any use of FHI-aims, please cite:

    Volker Blum, Ralf Gehrke, Felix Hanke, Paula Havu, Ville Havu,
    Xinguo Ren, Karsten Reuter, and Matthias Scheffler
    'Ab initio molecular simulations with numeric atom-centered orbitals'
    Computer Physics Communications 180, 2175-2196 (2009)
    http://dx.doi.org/10.1016/j.cpc.2009.06.022


  For the real-space grid partitioning and parallelization used in this calculation, please cite:

    Ville Havu, Volker Blum, Paula Havu, and Matthias Scheffler,
    'Efficient O(N) integration for all-electron electronic structure calculation'
    'using numerically tabulated basis functions'
    Journal of Computational Physics 228, 8367-8379 (2009).
    http://dx.doi.org/10.1016/j.jcp.2009.08.008

  Of course, there are many other important community references, e.g., those cited in the
  above references. Our list is limited to references that describe implementations in the
  FHI-aims code. The reason is purely practical (length of this list) - please credit others as well.

------------------------------------------------------------
          Leaving FHI-aims.
          Date     :  20190514, Time     :  123545.273

          Computational steps:
          | Number of self-consistency cycles          :           10
          | Number of SCF (re)initializations          :            1

          Detailed time accounting                     :  max(cpu_time)    wall_clock(cpu1)
          | Total time                                 :        6.394 s           6.394 s
          | Preparation time                           :        0.099 s           0.100 s
          | Boundary condition initalization           :        0.037 s           0.037 s
          | Grid partitioning                          :        0.011 s           0.011 s
          | Preloading free-atom quantities on grid    :        0.001 s           0.000 s
          | Free-atom superposition energy             :        0.009 s           0.010 s
          | Total time for integrations                :        1.217 s           1.218 s
          | Total time for solution of K.-S. equations :        1.345 s           1.344 s
          | Total time for density update              :        1.746 s           1.745 s
          | Total time for mixing & preconditioning    :        0.173 s           0.172 s
          | Total time for Hartree multipole update    :        0.004 s           0.007 s
          | Total time for Hartree multipole sum       :        1.707 s           1.706 s
          | Total time for total energy evaluation     :        0.002 s           0.001 s
          | Total time for scaled ZORA corrections     :        0.000 s           0.000 s

 This is a stub MPI_ALLREDUCE call.
 You should not be here. Check your
 setting on the use_mpi variable, or
 link against true MPI-libraries.
