------------------------------------------------------------
          Invoking FHI-aims ...
          Version 171221_1
          Compiled on 2019/05/06 at 14:26:40 on host ffph0xx.

          When using FHI-aims, please cite the following reference:

          Volker Blum, Ralf Gehrke, Felix Hanke, Paula Havu,
          Ville Havu, Xinguo Ren, Karsten Reuter, and Matthias Scheffler,
          'Ab Initio Molecular Simulations with Numeric Atom-Centered Orbitals',
          Computer Physics Communications 180, 2175-2196 (2009)

          For any questions about FHI-aims, please visit the aimsclub website
          with its forums and wiki. Contributions to both the forums and the
          wiki are warmly encouraged - they are for you, and everyone is welcome there.

------------------------------------------------------------



  Date     :  20190514, Time     :  105002.761
  Time zero on CPU 1             :   0.647000000000000E-03  s.
  Internal wall clock time zero  :           327063002.761  s.

  FHI-aims created a unique identifier for this run for later identification
  aims_uuid : 29366BA6-F48A-44D6-A10C-1D24FE2E94D2


  Performing system and environment tests:
  *** Environment variable OMP_NUM_THREADS is not set
  *** For performance reasons you might want to set it to 1
  | Stacksize not measured: no C compiler

  Obtaining array dimensions for all initial allocations:
  
  -----------------------------------------------------------------------
  Parsing control.in (first pass over file, find array dimensions only).
  The contents of control.in will be repeated verbatim below
  unless switched off by setting 'verbatim_writeout .false.' .
  in the first line of control.in .
  -----------------------------------------------------------------------
  
  #--- method ---
  xc pw-lda
  spin none
  relativistic atomic_zora scalar
  #---
  
  #--- k-grid settings ---
  k_grid 12 12 12
  #---
  
  
  
  
  
  
  
  
  
  
  
  #-------------------------------------------------------------------------------
  #--- Species defaults for Si
  #-------------------------------------------------------------------------------
  
  ################################################################################
  #
  #  FHI-aims code project
  #  VB, Fritz-Haber Institut, 2009
  #
  #  Suggested "light" defaults for Si atom (to be pasted into control.in file)
  #  Be sure to double-check any results obtained with these settings for post-processing,
  #  e.g., with the "tight" defaults and larger basis sets.
  #
  ################################################################################
    species        Si
  #     global species definitions
      nucleus             14
      mass                28.0855
  #
      l_hartree           4
  #
      cut_pot             3.5          1.5  1.0
      basis_dep_cutoff    1e-4
  #
      radial_base         42 5.0
      radial_multiplier   1
      angular_grids       specified
        division   0.5866   50
        division   0.9616  110
        division   1.2249  194
        division   1.3795  302
  #      division   1.4810  434
  #      division   1.5529  590
  #      division   1.6284  770
  #      division   1.7077  974
  #      division   2.4068 1202
  #      outer_grid   974
        outer_grid 302
  ################################################################################
  #
  #  Definition of "minimal" basis
  #
  ################################################################################
  #     valence basis states
      valence      3  s   2.
      valence      3  p   2.
  #     ion occupancy
      ion_occ      3  s   1.
      ion_occ      3  p   1.
  ################################################################################
  #
  #  Suggested additional basis functions. For production calculations,
  #  uncomment them one after another (the most important basis functions are
  #  listed first).
  #
  #  Constructed for dimers: 1.75 A, 2.0 A, 2.25 A, 2.75 A, 3.75 A
  #
  ################################################################################
  #  "First tier" - improvements: -571.96 meV to -37.03 meV
       hydro 3 d 4.2
       hydro 2 p 1.4
  #     hydro 4 f 6.2
       ionic 3 s auto
  #  "Second tier" - improvements: -16.76 meV to -3.03 meV
  #     hydro 3 d 9
  #     hydro 5 g 9.4
  #     hydro 4 p 4
  #     hydro 1 s 0.65
  #  "Third tier" - improvements: -3.89 meV to -0.60 meV
  #     ionic 3 d auto
  #     hydro 3 s 2.6
  #     hydro 4 f 8.4
  #     hydro 3 d 3.4
  #     hydro 3 p 7.8
  #  "Fourth tier" - improvements: -0.33 meV to -0.11 meV
  #     hydro 2 p 1.6
  #     hydro 5 g 10.8
  #     hydro 5 f 11.2
  #     hydro 3 d 1
  #     hydro 4 s 4.5
  #  Further basis functions that fell out of the optimization - noise
  #  level... < -0.08 meV
  #     hydro 4 d 6.6
  #     hydro 5 g 16.4
  #     hydro 4 d 9
  
  -----------------------------------------------------------------------
  Completed first pass over input file control.in .
  -----------------------------------------------------------------------
  
  
  -----------------------------------------------------------------------
  Parsing geometry.in (first pass over file, find array dimensions only).
  The contents of geometry.in will be repeated verbatim below
  unless switched off by setting 'verbatim_writeout .false.' .
  in the first line of geometry.in .
  -----------------------------------------------------------------------
  
  lattice_vector   0.000000   2.550000   2.550000
  lattice_vector   2.550000   0.000000   2.550000
  lattice_vector   2.550000   2.550000   0.000000
  atom_frac   0.000000   0.000000   0.000000 Si
  
  -----------------------------------------------------------------------
  Completed first pass over input file geometry.in .
  -----------------------------------------------------------------------
  

  Basic array size parameters:
  | Number of species                 :        1
  | Number of atoms                   :        1
  | Number of lattice vectors         :        3
  | Max. basis fn. angular momentum   :        2
  | Max. atomic/ionic basis occupied n:        3
  | Max. number of basis fn. types    :        3
  | Max. radial fns per species/type  :        5
  | Max. logarithmic grid size        :     1346
  | Max. radial integration grid size :       42
  | Max. angular integration grid size:      302
  | Max. angular grid division number :        8
  | Radial grid for Hartree potential :     1346
  | Number of spin channels           :        1

------------------------------------------------------------
          Reading file control.in.
------------------------------------------------------------
  XC: Using Perdew-Wang parametrisation of Ceperley-Alder LDA.
  Spin treatment: No spin polarisation.
  Scalar relativistic treatment of kinetic energy: on-site free-atom approximation to ZORA.
  Found k-point grid:        12        12        12

  Reading configuration options for species Si                  .
  | Found nuclear charge :  14.0000
  | Found atomic mass :    28.085500000000000      amu
  | Found l_max for Hartree potential  :   4
  | Found cutoff potl. onset [A], width [A], scale factor :    3.50000    1.50000    1.00000
  | Threshold for basis-dependent cutoff potential is   0.100000E-03
  | Found data for basic radial integration grid :    42 points, outermost radius =    5.000 A
  | Found multiplier for basic radial grid :   1
  | Found angular grid specification: user-specified.
  | Specified grid contains     5 separate shells.
  | Check grid settings after all constraints further below.
  | Found free-atom valence shell :  3 s   2.000
  | Found free-atom valence shell :  3 p   2.000
  | Found free-ion valence shell :  3 s   1.000
  | Found free-ion valence shell :  3 p   1.000
  | Found hydrogenic basis function :  3 d   4.200
  | Found hydrogenic basis function :  2 p   1.400
  | Found ionic basis function :  3 s , default cutoff radius.
  Species Si                  : Missing cutoff potential type.
  Defaulting to exp(1/x)/(1-x)^2 type cutoff potential.
  Species Si: No 'logarithmic' tag. Using default grid for free atom:
  | Default logarithmic grid data [bohr] : 0.1000E-03 0.1000E+03 0.1012E+01
  | Will include ionic basis functions of  2.0-fold positive Si                   ion.
  Species Si: On-site basis accuracy parameter (for Gram-Schmidt orthonormalisation) not specified.
  Using default value basis_acc =  0.1000000E-03.
  Species Si                  : Using default innermost maximum threshold i_radial=  2 for radial functions.
  Species Si                  : Default cutoff onset for free atom density etc. : 0.35000000E+01 AA.
  Species Si                  : Basic radial grid will be enhanced according to radial_multiplier =   1, to contain    42 grid points.

  Finished reading input file 'control.in'. Consistency checks are next.

  MPI_IN_PLACE appears to work with this MPI implementation.
  | Keeping use_mpi_in_place .true. (see manual).
  Target number of points in a grid batch is not set. Defaulting to  100
  Method for grid partitioning is not set. Defaulting to 'maxmin' partitioning.
  Batch size limit is not set. Defaulting to    200
  By default, will store active basis functions for each batch.
  If in need of memory, prune_basis_once .false. can be used to disable this option.
  communication_type for Hartree potential was not specified.
  Defaulting to calc_hartree .
 * Attention: 
 * You may want to set distributed_spline_storage to .true. in order to save memory.
 * This doesn't harm performance and is perfectly ok unless:
 * - you get error messages in postprocessing (about missing atoms in get_rho_multipole_spl)
 * - you need full spline storage in hirshfeld_analysis
  Defaulting to Pulay charge density mixer.
  Pulay mixer: Number of relevant iterations not set.
  Defaulting to    8 iterations.
  Pulay mixer: Number of initial linear mixing iterations not set.
  Defaulting to    0 iterations.
  Work space size for distributed Hartree potential not set.
  Defaulting to   0.200000E+03 MB.
  Mixing parameter for charge density mixing has not been set.
  Using default: charge_mix_param =     0.0500.
  The mixing parameter will be adjusted in iteration number     2 of the first full s.c.f. cycle only.
  Algorithm-dependent basis array size parameters:
  | n_max_pulay                         :        8
 * Notice: The s.c.f. convergence criterion sc_accuracy_rho was not provided.
 * We used to stop in this case, and ask the user to provide reasonable
 * scf convergence criteria. However, this led some users to employ criteria
 * that led to extremely long run times, e.g., for simple relaxation.
 * We now preset a default value for sc_accuracy_rho if it is not set.
 * You may still wish to check if this setting is too tight or too loose for your needs.
 * Based on n_atoms, FHI-aims chose sc_accuracy_rho =  0.100000E-05 .
  Maximum number of self-consistency iterations not provided.
  Presetting  1000 iterations.
  Presetting      1001 iterations before the initial mixing cycle
  is restarted anyway using the sc_init_iter criterion / keyword.
  Presetting a factor      1.000 between actual scf density residual
  and density convergence criterion sc_accuracy_rho below which sc_init_iter
  takes no effect.
 * No s.c.f. convergence criteria (sc_accuracy_*) were provided in control.in.
 * The run will proceed with a reasonable default guess, but please check whether.
 * the s.c.f. cycles seem to take too much or too little time.
  Calculation of forces was not defined in control.in. No forces will be calculated.
  Geometry relaxation not requested: no relaxation will be performed.
  No accuracy limit for integral partition fn. given. Defaulting to  0.1000E-14.
  No threshold value for u(r) in integrations given. Defaulting to  0.1000E-05.
  No occupation type (smearing scheme) given. Defaulting to Gaussian broadening, width =  0.1000E-01 eV.
  The width will be adjusted in iteration number     2 of the first full s.c.f. cycle only.
  S.C.F. convergence parameters will be adjusted in iteration number     2 of the first full s.c.f. cycle only.
  No accuracy for occupation numbers given. Defaulting to  0.1000E-12.
  No threshold value for occupation numbers given. Defaulting to  0.0000E+00.
  No accuracy for fermi level given. Defaulting to  0.1000E-19.
  Maximum # of iterations to find E_F not set. Defaulting to  200.
  Preferred method for the eigenvalue solver ('KS_method') not specified in 'control.in'.
  Defaulting to serial version, 'lapack_fast'.
  Will not use alltoall communication since running on < 1024 CPUs.
  Threshold for basis singularities not set.
  Default threshold for basis singularities:  0.1000E-04
  partition_type (choice of integration weights) for integrals was not specified.
  | Using a version of the partition function of Stratmann and coworkers ('stratmann_smoother').
  | At each grid point, the set of atoms used to build the partition table is smoothly restricted to
  | only those atoms whose free-atom density would be non-zero at that grid point.
  Partitioning for Hartree potential was not defined. Using partition_type for integrals.
  | Adjusted default value of keyword multip_moments_threshold to:       0.10000000E-11
  | This value may affect high angular momentum components of the Hartree potential in periodic systems.
  Angular momentum expansion for Kerker preconditioner not set explicitly.
  | Using default value of   0
  No explicit requirement for turning off preconditioner.
  | By default, it will be turned off when the charge convergence reaches
  | sc_accuracy_rho  =   0.100000E-05
  No special mixing parameter while Kerker preconditioner is on.
  Using default: charge_mix_param =     0.0500.
  No q(lm)/r^(l+1) cutoff set for long-range Hartree potential.
  | Using default value of  0.100000E-09 .
  | Verify using the multipole_threshold keyword.
  Defaulting to new monopole extrapolation.
  Density update method: automatic selection selected.
  Using density matrix based charge density update.
  Using density matrix based charge density update.
  Using packed matrix style: index .
  Defaulting to use time-reversal symmetry for k-point grid.
------------------------------------------------------------


------------------------------------------------------------
          Reading geometry description geometry.in.
------------------------------------------------------------
  Input structure read successfully.
  The structure contains        1 atoms,  and a total of         14.000 electrons.

  Input geometry:
  | Unit cell:
  |        0.00000000        2.55000000        2.55000000
  |        2.55000000        0.00000000        2.55000000
  |        2.55000000        2.55000000        0.00000000
  | Atomic structure:
  |       Atom                x [A]            y [A]            z [A]
  |    1: Species Si            0.00000000        0.00000000        0.00000000

  Lattice parameters for 3D lattice (in Angstroms) :     3.606245    3.606245    3.606245
  Angle(s) between unit vectors (in degrees)      :    60.000000   60.000000   60.000000

  |

  | The smallest distance between any two atoms is         3.60624458 AA.
  |
  | The first atom of this pair is atom number                      1 .
  | The second atom of this pair is atom number                     1 .
  | Wigner-Seitz cell of the first atom image          -1     0     1 .
  | (The Wigner-Seitz cell of the second atom is 0 0 0  by definition.)

  Quantities derived from the lattice vectors:
  | Reciprocal lattice vector 1: -1.231997  1.231997  1.231997
  | Reciprocal lattice vector 2:  1.231997 -1.231997  1.231997
  | Reciprocal lattice vector 3:  1.231997  1.231997 -1.231997
  | Unit cell volume                               :   0.331627E+02  A^3

  Range separation radius for Ewald summation (hartree_convergence_parameter):      4.66253319 bohr.

  Fractional coordinates:
                         L1                L2                L3
       atom_frac         0.00000000        0.00000000        0.00000000  Si

  Number of empty states per atom not set in control.in - providing a guess from actual geometry.
  | Total number of empty states used during s.c.f. cycle:        3
  If you use a very high smearing, use empty_states (per atom!) in control.in to increase this value.

  Structure-dependent array size parameters: 
  | Maximum number of distinct radial functions  :        8
  | Maximum number of basis functions            :       18
  | Number of Kohn-Sham states (occupied + empty):       10
------------------------------------------------------------

------------------------------------------------------------
          Preparing all fixed parts of the calculation.
------------------------------------------------------------
  Determining machine precision:
     2.2250738585072014E-308
  Setting up grids for atomic and cluster calculations.

  Creating wave function, potential, and density for free atoms.

  Species: Si

  List of occupied orbitals and eigenvalues:
    n    l              occ      energy [Ha]    energy [eV]
    1    0           2.0000       -65.491668     -1782.1190
    2    0           2.0000        -5.087967      -138.4506
    3    0           2.0000        -0.391471       -10.6525
    2    1           6.0000        -3.502246       -95.3010
    3    1           2.0000        -0.143943        -3.9169

  Creating fixed part of basis set: Ionic, confined, hydrogenic.

  Si                   ion:

  List of free ionic orbitals and eigenvalues:
    n    l      energy [Ha]    energy [eV]
    1    0       -66.364436     -1805.8682
    2    0        -5.935799      -161.5213
    3    0        -1.078166       -29.3384
    2    1        -4.351123      -118.4001
    3    1        -0.781733       -21.2720


  List of ionic basis orbitals and eigenvalues:
    n    l      energy [Ha]    energy [eV]    outer radius [A]
    3    0        -1.078146       -29.3378       4.214062


  Si                   hydrogenic:

  List of hydrogenic basis orbitals: 
    n    l      effective z      eigenvalue [eV]  inner max. [A]     outer max. [A]     outer radius [A]   
    3    2         4.200000       -26.6624           1.139231           1.139231           4.534782
    2    1         1.400000        -6.4613           1.472672           1.472672           4.590560


  Adding cutoff potential to free-atom effective potential.
  Creating atomic-like basis functions for current effective potential.

  Species Si                  :

  List of atomic basis orbitals and eigenvalues:
    n    l      energy [Ha]    energy [eV]    outer radius [A]
    1    0       -65.491668     -1782.1190       0.789468
    2    0        -5.087967      -138.4506       2.815114
    3    0        -0.391471       -10.6525       4.534782
    2    1        -3.502246       -95.3010       3.259919
    3    1        -0.143943        -3.9169       4.590560

  Assembling full basis from fixed parts.
  | Species Si :   atomic orbital   1 s accepted.
  | Species Si :   atomic orbital   2 s accepted.
  | Species Si :    ionic orbital   3 s accepted.
  | Species Si :   atomic orbital   3 s accepted.
  | Species Si :   atomic orbital   2 p accepted.
  | Species Si :   atomic orbital   3 p accepted.
  | Species Si :    hydro orbital   2 p accepted.
  | Species Si :    hydro orbital   3 d accepted.

  Basis size parameters after reduction:
  | Total number of radial functions:        8
  | Total number of basis functions :       18

  Per-task memory consumption for arrays in subroutine allocate_ext:
  |           2.757468MB.
  Testing on-site integration grid accuracy.
  |  Species  Function  <phi|h_atom|phi> (log., in eV)  <phi|h_atom|phi> (rad., in eV)
           1        1              -1782.1189727076              -1782.1182429251
           1        2               -138.4506350693               -138.4506310079
           1        3                -10.3030408815                -10.3029120678
           1        4                  5.0238999146                  4.9457540310 ***
           1        5                -95.3009689499                -95.3009689315
           1        6                 -3.9266496564                 -3.9420918374
           1        7                  6.3453628447                  6.1632372158 ***
           1        8                  6.2883050744                  6.2861881409
 * Note: Onsite integrals marked "***" above are less accurate than
 * onsite_accuracy_threshold =    0.03000 eV. Usually, this is harmless.
 * When in doubt, tighten the "radial" and/or "radial_multiplier" flags to check.

  Preparing densities etc. for the partition functions (integrals / Hartree potential).

  Preparations completed.
  max(cpu_time)          :      0.110 s.
  Wall clock time (cpu1) :      0.110 s.
------------------------------------------------------------

------------------------------------------------------------
          Begin self-consistency loop: Initialization.

          Date     :  20190514, Time     :  105002.872
------------------------------------------------------------

  Initializing index lists of integration centers etc. from given atomic structure:
  Mapping all atomic coordinates to central unit cell.

  Initializing the k-points
          Using symmetry for reducing the k-points
  | k-points reduced from:     1728 to      868
  | Number of k-points                             :       868
  The eigenvectors in the calculations are COMPLEX.
  | K-points in task   0:       868
  | Number of basis functions in the Hamiltonian integrals :       764
  | Number of basis functions in a single unit cell        :        18
  | Number of centers in hartree potential         :       555
  | Number of centers in hartree multipole         :       177
  | Number of centers in electron density summation:        87
  | Number of centers in basis integrals           :       135
  | Number of centers in integrals                 :        51
  | Number of centers in hamiltonian               :        87
  | Consuming       1193 KiB for k_phase.
  | Number of super-cells (origin) [n_cells]                     :        3375
  | Number of super-cells (after PM_index) [n_cells]             :          88
  | Number of super-cells in hamiltonian [n_cells_in_hamiltonian]:          88
  | Size of matrix packed + index [n_hamiltonian_matrix_size] :       12340
  Partitioning the integration grid into batches with maxmin method.
  | Maximal weight for a single point:     1.000
  | Minimal weight for a single point:     0.670
  | Number of batches:       64
  | Maximal batch size:      90
  | Minimal batch size:      85
  | Average batch size:      87.562
  | Standard deviation of batch sizes:       1.488
  Initializing partition tables, free-atom densities, potentials, etc. across the integration grid (initialize_grid_storage).
  | initialize_grid_storage: Actual outermost partition radius vs. multipole_radius_free
  | (-- VB: in principle, multipole_radius_free should be larger, hence this output)
  | Species        1: Confinement radius =              4.999999999999999 AA, multipole_radius_free =              5.000694715736543 AA.
  | Species        1: outer_partition_radius set to              5.000694715736543 AA .
  | Original list of interatomic distances with         135 x        135 entries is created.
  | Net number of integration points:     5604
  | of which are non-zero points    :     5094
  | Numerical average free-atom electrostatic potential    :     -7.93264786 eV
  Renormalizing the initial density to the exact electron count on the 3D integration grid.
  | Initial density: Formal number of electrons (from input files) :      14.0000000000
  | Integrated number of electrons on 3D grid     :      14.0001491336
  | Charge integration error                      :       0.0001491336
  | Normalization factor for density and gradient :       0.9999893477
  Obtaining max. number of non-zero basis functions in each batch (get_n_compute_maxes).
  | Maximal number of non-zero basis functions:      302 in task     0
  Allocating        2.500 MB for KS_eigenvector_complex
  Integrating Hamiltonian matrix: batch-based integration.
  Time summed over all CPUs for integration: real work        0.146 s, elapsed        0.146 s
  Integrating overlap matrix.
  Time summed over all CPUs for integration: real work        0.104 s, elapsed        0.104 s
  Decreasing sparse matrix size:
   Tolerance:   9.9999998245167004E-014
   Hamiltonian matrix
  | Array has     8089 nonzero elements out of    12340 elements
  | Sparsity factor is 0.344
   Overlap matrix
  | Array has     7829 nonzero elements out of    12340 elements
  | Sparsity factor is 0.366
  New size of hamiltonian matrix:        8228

  Updating Kohn-Sham eigenvalues, eigenvectors, occupation numbers, and Fermi level.
  Solving generalized eigenproblem
  Transforming overlap matrix and checking for singularities.
  Overlap matrix is nonsingular at first k-point:
  | Lowest eigenvalue:  0.784128E-02

  Obtaining occupation numbers and chemical potential using ELSI.
  | Chemical potential (Fermi level):    -4.79702740eV
  Writing Kohn-Sham eigenvalues.
  K-point:       1 at    0.000000    0.000000    0.000000 (in units of recip. lattice)

  State    Occupation    Eigenvalue [Ha]    Eigenvalue [eV]
      1       2.00000         -65.491786        -1782.12216
      2       2.00000          -5.088318         -138.46017
      3       2.00000          -3.502592          -95.31038
      4       2.00000          -3.502592          -95.31038
      5       2.00000          -3.502592          -95.31038
      6       2.00000          -0.499496          -13.59198
      7       0.00000          -0.018091           -0.49227
      8       0.00000          -0.018091           -0.49227
      9       0.00000          -0.018091           -0.49227
     10       0.00000           0.197914            5.38551

  What follows are estimated values for band gap, HOMO, LUMO, etc.
  | They are estimated on a discrete k-point grid and not necessarily exact.
  | For converged numbers, create a DOS and/or band structure plot on a denser k-grid.

  Highest occupied state (VBM) at     -4.79952716 eV (relative to internal zero)
  | Occupation number:      1.27630051
  | K-point:     859 at    0.916667    0.666667    0.916667 (in units of recip. lattice)

  Lowest unoccupied state (CBM) at    -4.78008059 eV (relative to internal zero)
  | Occupation number:      0.01654610
  | K-point:     696 at    0.583333    0.166667    0.583333 (in units of recip. lattice)

  ESTIMATED overall HOMO-LUMO gap:      0.01944657 eV between HOMO at k-point 859 and LUMO at k-point 696
  | This appears to be an indirect band gap.
  | Smallest direct gap :      0.53060920 eV for k_point 656 at    0.583333    0.166667    0.583333 (in units of recip. lattice)
  However, this system has fractional occupation numbers. Since we use a finite k-point grid,
  this material is metallic within the approximate finite broadening function (occupation_type)
  applied to determine the occupation numbers.
  Calculating total energy contributions from superposition of free atom densities.

  Total energy components:
  | Sum of eigenvalues            :        -163.44309617 Ha       -4447.51293373 eV
  | XC energy correction          :         -19.68713637 Ha        -535.71423745 eV
  | XC potential correction       :          26.01114703 Ha         707.79932316 eV
  | Free-atom electrostatic energy:        -132.17256572 Ha       -3596.59850611 eV
  | Hartree energy correction     :          -0.00000000 Ha          -0.00000000 eV
  | Entropy correction            :          -0.00000202 Ha          -0.00005494 eV
  | ---------------------------
  | Total energy                  :        -289.29165123 Ha       -7872.02635413 eV
  | Total energy, T -> 0          :        -289.29165324 Ha       -7872.02640908 eV  <-- do not rely on this value for anything but (periodic) metals
  | Electronic free energy        :        -289.29165526 Ha       -7872.02646402 eV

  Derived energy quantities:
  | Kinetic energy                :         289.56974567 Ha        7879.59368903 eV
  | Electrostatic energy          :        -559.17426053 Ha      -15215.90580572 eV
  | Energy correction for multipole
  | error in Hartree potential    :           0.00000000 Ha           0.00000000 eV
  | Sum of eigenvalues per atom                           :       -4447.51293373 eV
  | Total energy (T->0) per atom                          :       -7872.02640908 eV  <-- do not rely on this value for anything but (periodic) metals
  | Electronic free energy per atom                       :       -7872.02646402 eV
  Initialize hartree_potential_storage
  Max. number of atoms included in rho_multipole:            1

  End scf initialization - timings             :  max(cpu_time)    wall_clock(cpu1)
  | Time for scf. initialization               :        0.594 s           0.594 s
  | Boundary condition initialization          :        0.028 s           0.028 s
  | Integration                                :        0.250 s           0.250 s
  | Solution of K.-S. eqns.                    :        0.250 s           0.249 s
  | Grid partitioning                          :        0.011 s           0.012 s
  | Preloading free-atom quantities on grid    :        0.001 s           0.000 s
  | Free-atom superposition energy             :        0.011 s           0.012 s
  | Total energy evaluation                    :        0.000 s           0.000 s

  Partial memory accounting:
  | Current value for overall tracked memory usage on task 0  :           2.665 MB
  | Peak value for overall tracked memory usage on task 0     :           4.129 MB after allocating wave
  | Largest tracked array allocation on task 0 so far         :           2.500 MB  when allocating +KS_eigenvector_complex
  Note:  These values currently only include a subset of arrays which are explicitly tracked.
  The "true" memory usage will be greater.
------------------------------------------------------------

------------------------------------------------------------
          Begin self-consistency iteration #    1

  Date     :  20190514, Time     :  105003.466
------------------------------------------------------------
  Evaluating new KS density using the density matrix
  Evaluating density matrix
  Time summed over all CPUs for getting density from density matrix: real work        0.231 s, elapsed        0.231 s
  Integration grid: deviation in total charge (<rho> - N_e) =  -3.161915E-13
  Pulay mixing of updated and previous charge densities.

  Evaluating partitioned Hartree potential by multipole expansion.
  | Analytical far-field extrapolation by fixed multipoles:
  | Hartree multipole sum: apparent total charge =   0.395028E-04
  Summing up the Hartree potential.
  | Estimated reciprocal-space cutoff momentum G_max:         1.98462569 bohr^-1 .
  | Reciprocal lattice points for long-range Hartree potential:      26
  Time summed over all CPUs for potential: real work        0.121 s, elapsed        0.121 s
  | RMS charge density error from multipole expansion :   0.908935E-04
  | Average real-space part of the electrostatic potential :     -0.01176973 eV

  Integrating Hamiltonian matrix: batch-based integration.
  Time summed over all CPUs for integration: real work        0.152 s, elapsed        0.152 s

  Updating Kohn-Sham eigenvalues, eigenvectors, occupation numbers, and Fermi level.
  Solving generalized eigenproblem

  Obtaining occupation numbers and chemical potential using ELSI.
  | Chemical potential (Fermi level):    -4.80425533eV
  Writing Kohn-Sham eigenvalues.
  K-point:       1 at    0.000000    0.000000    0.000000 (in units of recip. lattice)

  State    Occupation    Eigenvalue [Ha]    Eigenvalue [eV]
      1       2.00000         -65.494247        -1782.18914
      2       2.00000          -5.089936         -138.50421
      3       2.00000          -3.504267          -95.35596
      4       2.00000          -3.504267          -95.35596
      5       2.00000          -3.504267          -95.35596
      6       2.00000          -0.499780          -13.59970
      7       0.00000          -0.018503           -0.50350
      8       0.00000          -0.018503           -0.50350
      9       0.00000          -0.018503           -0.50350
     10       0.00000           0.197660            5.37861

  What follows are estimated values for band gap, HOMO, LUMO, etc.
  | They are estimated on a discrete k-point grid and not necessarily exact.
  | For converged numbers, create a DOS and/or band structure plot on a denser k-grid.

  Highest occupied state (VBM) at     -4.80710569 eV (relative to internal zero)
  | Occupation number:      1.31312624
  | K-point:     321 at    0.250000    0.250000    0.333333 (in units of recip. lattice)

  Lowest unoccupied state (CBM) at    -4.78615261 eV (relative to internal zero)
  | Occupation number:      0.01046384
  | K-point:      61 at    0.000000    0.583333    0.416667 (in units of recip. lattice)

  ESTIMATED overall HOMO-LUMO gap:      0.02095308 eV between HOMO at k-point 321 and LUMO at k-point 61
  | This appears to be an indirect band gap.
  | Smallest direct gap :      0.53115001 eV for k_point 460 at    0.000000    0.583333    0.416667 (in units of recip. lattice)
  However, this system has fractional occupation numbers. Since we use a finite k-point grid,
  this material is metallic within the approximate finite broadening function (occupation_type)
  applied to determine the occupation numbers.

  Total energy components:
  | Sum of eigenvalues            :        -163.46249371 Ha       -4448.04076755 eV
  | XC energy correction          :         -19.68561992 Ha        -535.67297288 eV
  | XC potential correction       :          26.00914431 Ha         707.74482630 eV
  | Free-atom electrostatic energy:        -132.17256572 Ha       -3596.59850611 eV
  | Hartree energy correction     :           0.01996785 Ha           0.54335281 eV
  | Entropy correction            :          -0.00000205 Ha          -0.00005588 eV
  | ---------------------------
  | Total energy                  :        -289.29156719 Ha       -7872.02406743 eV
  | Total energy, T -> 0          :        -289.29156924 Ha       -7872.02412331 eV  <-- do not rely on this value for anything but (periodic) metals
  | Electronic free energy        :        -289.29157130 Ha       -7872.02417919 eV

  Derived energy quantities:
  | Kinetic energy                :         289.55075059 Ha        7879.07680648 eV
  | Electrostatic energy          :        -559.15669785 Ha      -15215.42790103 eV
  | Energy correction for multipole
  | error in Hartree potential    :           0.00000937 Ha           0.00025502 eV
  | Sum of eigenvalues per atom                           :       -4448.04076755 eV
  | Total energy (T->0) per atom                          :       -7872.02412331 eV  <-- do not rely on this value for anything but (periodic) metals
  | Electronic free energy per atom                       :       -7872.02417919 eV

  Self-consistency convergence accuracy:
  | Change of charge density      :  0.2705E-01
  | Change of sum of eigenvalues  : -0.5278E+00 eV
  | Change of total energy        :  0.2287E-02 eV

  End self-consistency iteration #     1       :  max(cpu_time)    wall_clock(cpu1)
  | Time for this iteration                    :        0.671 s           0.671 s
  | Charge density update                      :        0.247 s           0.247 s
  | Density mixing & preconditioning           :        0.020 s           0.020 s
  | Hartree multipole update                   :        0.000 s           0.001 s
  | Hartree multipole summation                :        0.125 s           0.124 s
  | Integration                                :        0.152 s           0.152 s
  | Solution of K.-S. eqns.                    :        0.126 s           0.126 s
  | Total energy evaluation                    :        0.000 s           0.001 s

  Partial memory accounting:
  | Current value for overall tracked memory usage on task 0  :           2.665 MB
  | Peak value for overall tracked memory usage on task 0     :           4.129 MB after allocating wave
  | Largest tracked array allocation on task 0 so far         :           2.500 MB  when allocating +KS_eigenvector_complex
  Note:  These values currently only include a subset of arrays which are explicitly tracked.
  The "true" memory usage will be greater.
------------------------------------------------------------

------------------------------------------------------------
          Begin self-consistency iteration #    2

  Date     :  20190514, Time     :  105004.137
------------------------------------------------------------
  Evaluating new KS density using the density matrix
  Evaluating density matrix
  Time summed over all CPUs for getting density from density matrix: real work        0.265 s, elapsed        0.265 s
  Integration grid: deviation in total charge (<rho> - N_e) =  -2.824407E-13
  Pulay mixing of updated and previous charge densities.

  Evaluating partitioned Hartree potential by multipole expansion.
  | Analytical far-field extrapolation by fixed multipoles:
  | Hartree multipole sum: apparent total charge =  -0.194676E-02
  Summing up the Hartree potential.
  Time summed over all CPUs for potential: real work        0.179 s, elapsed        0.179 s
  | RMS charge density error from multipole expansion :   0.171990E-02
  | Average real-space part of the electrostatic potential :     -0.20196430 eV

  Integrating Hamiltonian matrix: batch-based integration.
  Time summed over all CPUs for integration: real work        0.190 s, elapsed        0.190 s

  Updating Kohn-Sham eigenvalues, eigenvectors, occupation numbers, and Fermi level.
  Solving generalized eigenproblem

  Obtaining occupation numbers and chemical potential using ELSI.
  | Chemical potential (Fermi level):    -4.92433913eV
  What follows are estimated values for band gap, HOMO, LUMO, etc.
  | They are estimated on a discrete k-point grid and not necessarily exact.
  | For converged numbers, create a DOS and/or band structure plot on a denser k-grid.

  Highest occupied state (VBM) at     -4.93412220 eV (relative to internal zero)
  | Occupation number:      1.83349904
  | K-point:     323 at    0.250000    0.250000    0.583333 (in units of recip. lattice)

  Lowest unoccupied state (CBM) at    -4.92202646 eV (relative to internal zero)
  | Occupation number:      0.74362148
  | K-point:     493 at    0.333333    0.833333    0.500000 (in units of recip. lattice)

  ESTIMATED overall HOMO-LUMO gap:      0.01209574 eV between HOMO at k-point 323 and LUMO at k-point 493
  | This appears to be an indirect band gap.
  | Smallest direct gap :      1.05721510 eV for k_point 642 at    0.333333    0.833333    0.500000 (in units of recip. lattice)
  However, this system has fractional occupation numbers. Since we use a finite k-point grid,
  this material is metallic within the approximate finite broadening function (occupation_type)
  applied to determine the occupation numbers.

  Checking to see if s.c.f. parameters should be adjusted.
  Adjusted the Pulay mixing parameter (charge_mix_param) for an expected low-gap system. New value:   0.020000 .
  Adjusted the occupation broadening width for an expected low-gap system. New value:      0.05000000 eV.

  Total energy components:
  | Sum of eigenvalues            :        -163.77357243 Ha       -4456.50565031 eV
  | XC energy correction          :         -19.65915273 Ha        -534.95276386 eV
  | XC potential correction       :          25.97418918 Ha         706.79364878 eV
  | Free-atom electrostatic energy:        -132.17256572 Ha       -3596.59850611 eV
  | Hartree energy correction     :           0.34036355 Ha           9.26176347 eV
  | Entropy correction            :          -0.00004256 Ha          -0.00115821 eV
  | ---------------------------
  | Total energy                  :        -289.29073815 Ha       -7872.00150804 eV
  | Total energy, T -> 0          :        -289.29078071 Ha       -7872.00266624 eV  <-- do not rely on this value for anything but (periodic) metals
  | Electronic free energy        :        -289.29082327 Ha       -7872.00382445 eV

  Derived energy quantities:
  | Kinetic energy                :         289.29652204 Ha        7872.15889561 eV
  | Electrostatic energy          :        -558.92810745 Ha      -15209.20763979 eV
  | Energy correction for multipole
  | error in Hartree potential    :           0.00019063 Ha           0.00518728 eV
  | Sum of eigenvalues per atom                           :       -4456.50565031 eV
  | Total energy (T->0) per atom                          :       -7872.00266624 eV  <-- do not rely on this value for anything but (periodic) metals
  | Electronic free energy per atom                       :       -7872.00382445 eV

  Self-consistency convergence accuracy:
  | Change of charge density      :  0.2570E-01
  | Change of sum of eigenvalues  : -0.8465E+01 eV
  | Change of total energy        :  0.2256E-01 eV

  End self-consistency iteration #     2       :  max(cpu_time)    wall_clock(cpu1)
  | Time for this iteration                    :        0.827 s           0.827 s
  | Charge density update                      :        0.281 s           0.281 s
  | Density mixing & preconditioning           :        0.027 s           0.027 s
  | Hartree multipole update                   :        0.000 s           0.001 s
  | Hartree multipole summation                :        0.181 s           0.181 s
  | Integration                                :        0.190 s           0.190 s
  | Solution of K.-S. eqns.                    :        0.146 s           0.146 s
  | Total energy evaluation                    :        0.000 s           0.001 s

  Partial memory accounting:
  | Current value for overall tracked memory usage on task 0  :           2.666 MB
  | Peak value for overall tracked memory usage on task 0     :           4.129 MB after allocating wave
  | Largest tracked array allocation on task 0 so far         :           2.500 MB  when allocating +KS_eigenvector_complex
  Note:  These values currently only include a subset of arrays which are explicitly tracked.
  The "true" memory usage will be greater.
------------------------------------------------------------

------------------------------------------------------------
          Begin self-consistency iteration #    3

  Date     :  20190514, Time     :  105004.964
------------------------------------------------------------
  Evaluating new KS density using the density matrix
  Evaluating density matrix
  Time summed over all CPUs for getting density from density matrix: real work        0.263 s, elapsed        0.263 s
  Integration grid: deviation in total charge (<rho> - N_e) =  -2.504663E-13
  Pulay mixing of updated and previous charge densities.

  Evaluating partitioned Hartree potential by multipole expansion.
  | Analytical far-field extrapolation by fixed multipoles:
  | Hartree multipole sum: apparent total charge =  -0.285474E-02
  Summing up the Hartree potential.
  Time summed over all CPUs for potential: real work        0.161 s, elapsed        0.161 s
  | RMS charge density error from multipole expansion :   0.232217E-02
  | Average real-space part of the electrostatic potential :     -0.27411814 eV

  Integrating Hamiltonian matrix: batch-based integration.
  Time summed over all CPUs for integration: real work        0.145 s, elapsed        0.145 s

  Updating Kohn-Sham eigenvalues, eigenvectors, occupation numbers, and Fermi level.
  Solving generalized eigenproblem

  Obtaining occupation numbers and chemical potential using ELSI.
  | Chemical potential (Fermi level):    -4.94456562eV
  What follows are estimated values for band gap, HOMO, LUMO, etc.
  | They are estimated on a discrete k-point grid and not necessarily exact.
  | For converged numbers, create a DOS and/or band structure plot on a denser k-grid.

  Highest occupied state (VBM) at     -4.96250188 eV (relative to internal zero)
  | Occupation number:      1.38806555
  | K-point:     637 at    0.500000    0.166667    0.666667 (in units of recip. lattice)

  Lowest unoccupied state (CBM) at    -4.92854739 eV (relative to internal zero)
  | Occupation number:      0.65050269
  | K-point:     559 at    0.416667    0.416667    0.833333 (in units of recip. lattice)

  ESTIMATED overall HOMO-LUMO gap:      0.03395449 eV between HOMO at k-point 637 and LUMO at k-point 559
  | This appears to be an indirect band gap.
  | Smallest direct gap :      0.54316574 eV for k_point 656 at    0.416667    0.416667    0.833333 (in units of recip. lattice)
  However, this system has fractional occupation numbers. Since we use a finite k-point grid,
  this material is metallic within the approximate finite broadening function (occupation_type)
  applied to determine the occupation numbers.

  Total energy components:
  | Sum of eigenvalues            :        -163.86965588 Ha       -4459.12021397 eV
  | XC energy correction          :         -19.65213896 Ha        -534.76190944 eV
  | XC potential correction       :          25.96494477 Ha         706.54209556 eV
  | Free-atom electrostatic energy:        -132.17256572 Ha       -3596.59850611 eV
  | Hartree energy correction     :           0.43874971 Ha          11.93898719 eV
  | Entropy correction            :          -0.00003469 Ha          -0.00094391 eV
  | ---------------------------
  | Total energy                  :        -289.29066607 Ha       -7871.99954678 eV
  | Total energy, T -> 0          :        -289.29070076 Ha       -7872.00049069 eV  <-- do not rely on this value for anything but (periodic) metals
  | Electronic free energy        :        -289.29073545 Ha       -7872.00143460 eV

  Derived energy quantities:
  | Kinetic energy                :         289.25175653 Ha        7870.94076434 eV
  | Electrostatic energy          :        -558.89028365 Ha      -15208.17840167 eV
  | Energy correction for multipole
  | error in Hartree potential    :           0.00026960 Ha           0.00733617 eV
  | Sum of eigenvalues per atom                           :       -4459.12021397 eV
  | Total energy (T->0) per atom                          :       -7872.00049069 eV  <-- do not rely on this value for anything but (periodic) metals
  | Electronic free energy per atom                       :       -7872.00143460 eV

  Self-consistency convergence accuracy:
  | Change of charge density      :  0.6438E-02
  | Change of sum of eigenvalues  : -0.2615E+01 eV
  | Change of total energy        :  0.1961E-02 eV

  End self-consistency iteration #     3       :  max(cpu_time)    wall_clock(cpu1)
  | Time for this iteration                    :        0.736 s           0.736 s
  | Charge density update                      :        0.281 s           0.281 s
  | Density mixing & preconditioning           :        0.020 s           0.020 s
  | Hartree multipole update                   :        0.000 s           0.001 s
  | Hartree multipole summation                :        0.163 s           0.163 s
  | Integration                                :        0.145 s           0.145 s
  | Solution of K.-S. eqns.                    :        0.126 s           0.125 s
  | Total energy evaluation                    :        0.000 s           0.000 s

  Partial memory accounting:
  | Current value for overall tracked memory usage on task 0  :           2.666 MB
  | Peak value for overall tracked memory usage on task 0     :           4.129 MB after allocating wave
  | Largest tracked array allocation on task 0 so far         :           2.500 MB  when allocating +KS_eigenvector_complex
  Note:  These values currently only include a subset of arrays which are explicitly tracked.
  The "true" memory usage will be greater.
------------------------------------------------------------

------------------------------------------------------------
          Begin self-consistency iteration #    4

  Date     :  20190514, Time     :  105005.700
------------------------------------------------------------
  Evaluating new KS density using the density matrix
  Evaluating density matrix
  Time summed over all CPUs for getting density from density matrix: real work        0.240 s, elapsed        0.240 s
  Integration grid: deviation in total charge (<rho> - N_e) =  -4.192202E-13
  Pulay mixing of updated and previous charge densities.

  Evaluating partitioned Hartree potential by multipole expansion.
  | Analytical far-field extrapolation by fixed multipoles:
  | Hartree multipole sum: apparent total charge =  -0.284750E-02
  Summing up the Hartree potential.
  Time summed over all CPUs for potential: real work        0.168 s, elapsed        0.168 s
  | RMS charge density error from multipole expansion :   0.214688E-02
  | Average real-space part of the electrostatic potential :     -0.25652442 eV

  Integrating Hamiltonian matrix: batch-based integration.
  Time summed over all CPUs for integration: real work        0.151 s, elapsed        0.151 s

  Updating Kohn-Sham eigenvalues, eigenvectors, occupation numbers, and Fermi level.
  Solving generalized eigenproblem

  Obtaining occupation numbers and chemical potential using ELSI.
  | Chemical potential (Fermi level):    -4.93138628eV
  What follows are estimated values for band gap, HOMO, LUMO, etc.
  | They are estimated on a discrete k-point grid and not necessarily exact.
  | For converged numbers, create a DOS and/or band structure plot on a denser k-grid.

  Highest occupied state (VBM) at     -4.95004182 eV (relative to internal zero)
  | Occupation number:      1.40226348
  | K-point:     637 at    0.500000    0.166667    0.666667 (in units of recip. lattice)

  Lowest unoccupied state (CBM) at    -4.91688562 eV (relative to internal zero)
  | Occupation number:      0.68170284
  | K-point:     559 at    0.416667    0.416667    0.833333 (in units of recip. lattice)

  ESTIMATED overall HOMO-LUMO gap:      0.03315620 eV between HOMO at k-point 637 and LUMO at k-point 559
  | This appears to be an indirect band gap.
  | Smallest direct gap :      0.54228531 eV for k_point 656 at    0.416667    0.416667    0.833333 (in units of recip. lattice)
  However, this system has fractional occupation numbers. Since we use a finite k-point grid,
  this material is metallic within the approximate finite broadening function (occupation_type)
  applied to determine the occupation numbers.

  Total energy components:
  | Sum of eigenvalues            :        -163.80634312 Ha       -4457.39738622 eV
  | XC energy correction          :         -19.65896282 Ha        -534.94759618 eV
  | XC potential correction       :          25.97398900 Ha         706.78820159 eV
  | Free-atom electrostatic energy:        -132.17256572 Ha       -3596.59850611 eV
  | Hartree energy correction     :           0.37322560 Ha          10.15598530 eV
  | Entropy correction            :          -0.00003465 Ha          -0.00094299 eV
  | ---------------------------
  | Total energy                  :        -289.29065706 Ha       -7871.99930162 eV
  | Total energy, T -> 0          :        -289.29069172 Ha       -7872.00024461 eV  <-- do not rely on this value for anything but (periodic) metals
  | Electronic free energy        :        -289.29072637 Ha       -7872.00118760 eV

  Derived energy quantities:
  | Kinetic energy                :         289.35689375 Ha        7873.80169361 eV
  | Electrostatic energy          :        -558.98858799 Ha      -15210.85339904 eV
  | Energy correction for multipole
  | error in Hartree potential    :           0.00025653 Ha           0.00698064 eV
  | Sum of eigenvalues per atom                           :       -4457.39738622 eV
  | Total energy (T->0) per atom                          :       -7872.00024461 eV  <-- do not rely on this value for anything but (periodic) metals
  | Electronic free energy per atom                       :       -7872.00118760 eV

  Self-consistency convergence accuracy:
  | Change of charge density      :  0.6780E-02
  | Change of sum of eigenvalues  :  0.1723E+01 eV
  | Change of total energy        :  0.2452E-03 eV

  End self-consistency iteration #     4       :  max(cpu_time)    wall_clock(cpu1)
  | Time for this iteration                    :        0.717 s           0.717 s
  | Charge density update                      :        0.258 s           0.259 s
  | Density mixing & preconditioning           :        0.020 s           0.019 s
  | Hartree multipole update                   :        0.000 s           0.000 s
  | Hartree multipole summation                :        0.170 s           0.170 s
  | Integration                                :        0.151 s           0.151 s
  | Solution of K.-S. eqns.                    :        0.117 s           0.118 s
  | Total energy evaluation                    :        0.000 s           0.000 s

  Partial memory accounting:
  | Current value for overall tracked memory usage on task 0  :           2.666 MB
  | Peak value for overall tracked memory usage on task 0     :           4.129 MB after allocating wave
  | Largest tracked array allocation on task 0 so far         :           2.500 MB  when allocating +KS_eigenvector_complex
  Note:  These values currently only include a subset of arrays which are explicitly tracked.
  The "true" memory usage will be greater.
------------------------------------------------------------

------------------------------------------------------------
          Begin self-consistency iteration #    5

  Date     :  20190514, Time     :  105006.417
------------------------------------------------------------
  Evaluating new KS density using the density matrix
  Evaluating density matrix
  Time summed over all CPUs for getting density from density matrix: real work        0.235 s, elapsed        0.235 s
  Integration grid: deviation in total charge (<rho> - N_e) =  -3.410605E-13
  Pulay mixing of updated and previous charge densities.

  Evaluating partitioned Hartree potential by multipole expansion.
  | Analytical far-field extrapolation by fixed multipoles:
  | Hartree multipole sum: apparent total charge =  -0.278408E-02
  Summing up the Hartree potential.
  Time summed over all CPUs for potential: real work        0.166 s, elapsed        0.166 s
  | RMS charge density error from multipole expansion :   0.214266E-02
  | Average real-space part of the electrostatic potential :     -0.25647314 eV

  Integrating Hamiltonian matrix: batch-based integration.
  Time summed over all CPUs for integration: real work        0.154 s, elapsed        0.154 s

  Updating Kohn-Sham eigenvalues, eigenvectors, occupation numbers, and Fermi level.
  Solving generalized eigenproblem

  Obtaining occupation numbers and chemical potential using ELSI.
  | Chemical potential (Fermi level):    -4.93109760eV
  What follows are estimated values for band gap, HOMO, LUMO, etc.
  | They are estimated on a discrete k-point grid and not necessarily exact.
  | For converged numbers, create a DOS and/or band structure plot on a denser k-grid.

  Highest occupied state (VBM) at     -4.94976536 eV (relative to internal zero)
  | Occupation number:      1.40250349
  | K-point:     637 at    0.500000    0.166667    0.666667 (in units of recip. lattice)

  Lowest unoccupied state (CBM) at    -4.91662251 eV (relative to internal zero)
  | Occupation number:      0.68223344
  | K-point:     559 at    0.416667    0.416667    0.833333 (in units of recip. lattice)

  ESTIMATED overall HOMO-LUMO gap:      0.03314285 eV between HOMO at k-point 637 and LUMO at k-point 559
  | This appears to be an indirect band gap.
  | Smallest direct gap :      0.54226991 eV for k_point 656 at    0.416667    0.416667    0.833333 (in units of recip. lattice)
  However, this system has fractional occupation numbers. Since we use a finite k-point grid,
  this material is metallic within the approximate finite broadening function (occupation_type)
  applied to determine the occupation numbers.

  Total energy components:
  | Sum of eigenvalues            :        -163.80568867 Ha       -4457.37957781 eV
  | XC energy correction          :         -19.65899419 Ha        -534.94844991 eV
  | XC potential correction       :          25.97403069 Ha         706.78933608 eV
  | Free-atom electrostatic energy:        -132.17256572 Ha       -3596.59850611 eV
  | Hartree energy correction     :           0.37256070 Ha          10.13789257 eV
  | Entropy correction            :          -0.00003465 Ha          -0.00094298 eV
  | ---------------------------
  | Total energy                  :        -289.29065720 Ha       -7871.99930519 eV
  | Total energy, T -> 0          :        -289.29069185 Ha       -7872.00024818 eV  <-- do not rely on this value for anything but (periodic) metals
  | Electronic free energy        :        -289.29072650 Ha       -7872.00119116 eV

  Derived energy quantities:
  | Kinetic energy                :         289.35731733 Ha        7873.81321973 eV
  | Electrostatic energy          :        -558.98898033 Ha      -15210.86407501 eV
  | Energy correction for multipole
  | error in Hartree potential    :           0.00025608 Ha           0.00696825 eV
  | Sum of eigenvalues per atom                           :       -4457.37957781 eV
  | Total energy (T->0) per atom                          :       -7872.00024818 eV  <-- do not rely on this value for anything but (periodic) metals
  | Electronic free energy per atom                       :       -7872.00119116 eV

  Self-consistency convergence accuracy:
  | Change of charge density      :  0.8748E-03
  | Change of sum of eigenvalues  :  0.1781E-01 eV
  | Change of total energy        : -0.3573E-05 eV

  End self-consistency iteration #     5       :  max(cpu_time)    wall_clock(cpu1)
  | Time for this iteration                    :        0.712 s           0.713 s
  | Charge density update                      :        0.252 s           0.252 s
  | Density mixing & preconditioning           :        0.020 s           0.020 s
  | Hartree multipole update                   :        0.001 s           0.001 s
  | Hartree multipole summation                :        0.168 s           0.167 s
  | Integration                                :        0.153 s           0.154 s
  | Solution of K.-S. eqns.                    :        0.118 s           0.117 s
  | Total energy evaluation                    :        0.000 s           0.001 s

  Partial memory accounting:
  | Current value for overall tracked memory usage on task 0  :           2.667 MB
  | Peak value for overall tracked memory usage on task 0     :           4.129 MB after allocating wave
  | Largest tracked array allocation on task 0 so far         :           2.500 MB  when allocating +KS_eigenvector_complex
  Note:  These values currently only include a subset of arrays which are explicitly tracked.
  The "true" memory usage will be greater.
------------------------------------------------------------

------------------------------------------------------------
          Begin self-consistency iteration #    6

  Date     :  20190514, Time     :  105007.130
------------------------------------------------------------
  Evaluating new KS density using the density matrix
  Evaluating density matrix
  Time summed over all CPUs for getting density from density matrix: real work        0.233 s, elapsed        0.233 s
  Integration grid: deviation in total charge (<rho> - N_e) =  -2.664535E-13
  Pulay mixing of updated and previous charge densities.

  Evaluating partitioned Hartree potential by multipole expansion.
  | Analytical far-field extrapolation by fixed multipoles:
  | Hartree multipole sum: apparent total charge =  -0.123854E-03
  Summing up the Hartree potential.
  Time summed over all CPUs for potential: real work        0.164 s, elapsed        0.164 s
  | RMS charge density error from multipole expansion :   0.214268E-02
  | Average real-space part of the electrostatic potential :     -0.27619958 eV

  Integrating Hamiltonian matrix: batch-based integration.
  Time summed over all CPUs for integration: real work        0.148 s, elapsed        0.148 s

  Updating Kohn-Sham eigenvalues, eigenvectors, occupation numbers, and Fermi level.
  Solving generalized eigenproblem

  Obtaining occupation numbers and chemical potential using ELSI.
  | Chemical potential (Fermi level):    -4.93143857eV
  What follows are estimated values for band gap, HOMO, LUMO, etc.
  | They are estimated on a discrete k-point grid and not necessarily exact.
  | For converged numbers, create a DOS and/or band structure plot on a denser k-grid.

  Highest occupied state (VBM) at     -4.95000450 eV (relative to internal zero)
  | Occupation number:      1.40050303
  | K-point:     493 at    0.333333    0.833333    0.500000 (in units of recip. lattice)

  Lowest unoccupied state (CBM) at    -4.91666767 eV (relative to internal zero)
  | Occupation number:      0.67610508
  | K-point:      61 at    0.000000    0.583333    0.416667 (in units of recip. lattice)

  ESTIMATED overall HOMO-LUMO gap:      0.03333683 eV between HOMO at k-point 493 and LUMO at k-point 61
  | This appears to be an indirect band gap.
  | Smallest direct gap :      0.54254819 eV for k_point 493 at    0.000000    0.583333    0.416667 (in units of recip. lattice)
  However, this system has fractional occupation numbers. Since we use a finite k-point grid,
  this material is metallic within the approximate finite broadening function (occupation_type)
  applied to determine the occupation numbers.

  Total energy components:
  | Sum of eigenvalues            :        -163.81310047 Ha       -4457.58126311 eV
  | XC energy correction          :         -19.65727619 Ha        -534.90170075 eV
  | XC potential correction       :          25.97177183 Ha         706.72786947 eV
  | Free-atom electrostatic energy:        -132.17256572 Ha       -3596.59850611 eV
  | Hartree energy correction     :           0.38051430 Ha          10.35432079 eV
  | Entropy correction            :          -0.00003466 Ha          -0.00094310 eV
  | ---------------------------
  | Total energy                  :        -289.29065626 Ha       -7871.99927970 eV
  | Total energy, T -> 0          :        -289.29069092 Ha       -7872.00022280 eV  <-- do not rely on this value for anything but (periodic) metals
  | Electronic free energy        :        -289.29072557 Ha       -7872.00116590 eV

  Derived energy quantities:
  | Kinetic energy                :         289.34429958 Ha        7873.45898879 eV
  | Electrostatic energy          :        -558.97767965 Ha      -15210.55656774 eV
  | Energy correction for multipole
  | error in Hartree potential    :           0.00025851 Ha           0.00703440 eV
  | Sum of eigenvalues per atom                           :       -4457.58126311 eV
  | Total energy (T->0) per atom                          :       -7872.00022280 eV  <-- do not rely on this value for anything but (periodic) metals
  | Electronic free energy per atom                       :       -7872.00116590 eV

  Self-consistency convergence accuracy:
  | Change of charge density      :  0.9054E-03
  | Change of sum of eigenvalues  : -0.2017E+00 eV
  | Change of total energy        :  0.2549E-04 eV

  End self-consistency iteration #     6       :  max(cpu_time)    wall_clock(cpu1)
  | Time for this iteration                    :        0.702 s           0.701 s
  | Charge density update                      :        0.249 s           0.249 s
  | Density mixing & preconditioning           :        0.019 s           0.019 s
  | Hartree multipole update                   :        0.000 s           0.001 s
  | Hartree multipole summation                :        0.165 s           0.165 s
  | Integration                                :        0.147 s           0.148 s
  | Solution of K.-S. eqns.                    :        0.119 s           0.119 s
  | Total energy evaluation                    :        0.000 s           0.000 s

  Partial memory accounting:
  | Current value for overall tracked memory usage on task 0  :           2.667 MB
  | Peak value for overall tracked memory usage on task 0     :           4.129 MB after allocating wave
  | Largest tracked array allocation on task 0 so far         :           2.500 MB  when allocating +KS_eigenvector_complex
  Note:  These values currently only include a subset of arrays which are explicitly tracked.
  The "true" memory usage will be greater.
------------------------------------------------------------

------------------------------------------------------------
          Begin self-consistency iteration #    7

  Date     :  20190514, Time     :  105007.831
------------------------------------------------------------
  Evaluating new KS density using the density matrix
  Evaluating density matrix
  Time summed over all CPUs for getting density from density matrix: real work        0.241 s, elapsed        0.241 s
  Integration grid: deviation in total charge (<rho> - N_e) =  -3.002043E-13
  Pulay mixing of updated and previous charge densities.

  Evaluating partitioned Hartree potential by multipole expansion.
  | Analytical far-field extrapolation by fixed multipoles:
  | Hartree multipole sum: apparent total charge =  -0.109303E-03
  Summing up the Hartree potential.
  Time summed over all CPUs for potential: real work        0.168 s, elapsed        0.168 s
  | RMS charge density error from multipole expansion :   0.214221E-02
  | Average real-space part of the electrostatic potential :     -0.27624112 eV

  Integrating Hamiltonian matrix: batch-based integration.
  Time summed over all CPUs for integration: real work        0.149 s, elapsed        0.149 s

  Updating Kohn-Sham eigenvalues, eigenvectors, occupation numbers, and Fermi level.
  Solving generalized eigenproblem

  Obtaining occupation numbers and chemical potential using ELSI.
  | Chemical potential (Fermi level):    -4.93140598eV
  What follows are estimated values for band gap, HOMO, LUMO, etc.
  | They are estimated on a discrete k-point grid and not necessarily exact.
  | For converged numbers, create a DOS and/or band structure plot on a denser k-grid.

  Highest occupied state (VBM) at     -4.94997300 eV (relative to internal zero)
  | Occupation number:      1.40052421
  | K-point:     493 at    0.333333    0.833333    0.500000 (in units of recip. lattice)

  Lowest unoccupied state (CBM) at    -4.91663719 eV (relative to internal zero)
  | Occupation number:      0.67614844
  | K-point:      61 at    0.000000    0.583333    0.416667 (in units of recip. lattice)

  ESTIMATED overall HOMO-LUMO gap:      0.03333581 eV between HOMO at k-point 493 and LUMO at k-point 61
  | This appears to be an indirect band gap.
  | Smallest direct gap :      0.54254705 eV for k_point 493 at    0.000000    0.583333    0.416667 (in units of recip. lattice)
  However, this system has fractional occupation numbers. Since we use a finite k-point grid,
  this material is metallic within the approximate finite broadening function (occupation_type)
  applied to determine the occupation numbers.

  Total energy components:
  | Sum of eigenvalues            :        -163.81306016 Ha       -4457.58016603 eV
  | XC energy correction          :         -19.65727324 Ha        -534.90162033 eV
  | XC potential correction       :          25.97176797 Ha         706.72776433 eV
  | Free-atom electrostatic energy:        -132.17256572 Ha       -3596.59850611 eV
  | Hartree energy correction     :           0.38047488 Ha          10.35324826 eV
  | Entropy correction            :          -0.00003466 Ha          -0.00094310 eV
  | ---------------------------
  | Total energy                  :        -289.29065627 Ha       -7871.99927988 eV
  | Total energy, T -> 0          :        -289.29069092 Ha       -7872.00022298 eV  <-- do not rely on this value for anything but (periodic) metals
  | Electronic free energy        :        -289.29072558 Ha       -7872.00116608 eV

  Derived energy quantities:
  | Kinetic energy                :         289.34427345 Ha        7873.45827784 eV
  | Electrostatic energy          :        -558.97765648 Ha      -15210.55593739 eV
  | Energy correction for multipole
  | error in Hartree potential    :           0.00025845 Ha           0.00703284 eV
  | Sum of eigenvalues per atom                           :       -4457.58016603 eV
  | Total energy (T->0) per atom                          :       -7872.00022298 eV  <-- do not rely on this value for anything but (periodic) metals
  | Electronic free energy per atom                       :       -7872.00116608 eV

  Self-consistency convergence accuracy:
  | Change of charge density      :  0.4662E-04
  | Change of sum of eigenvalues  :  0.1097E-02 eV
  | Change of total energy        : -0.1849E-06 eV

  End self-consistency iteration #     7       :  max(cpu_time)    wall_clock(cpu1)
  | Time for this iteration                    :        0.717 s           0.717 s
  | Charge density update                      :        0.257 s           0.257 s
  | Density mixing & preconditioning           :        0.021 s           0.021 s
  | Hartree multipole update                   :        0.000 s           0.000 s
  | Hartree multipole summation                :        0.170 s           0.170 s
  | Integration                                :        0.149 s           0.149 s
  | Solution of K.-S. eqns.                    :        0.119 s           0.119 s
  | Total energy evaluation                    :        0.000 s           0.000 s

  Partial memory accounting:
  | Current value for overall tracked memory usage on task 0  :           2.667 MB
  | Peak value for overall tracked memory usage on task 0     :           4.129 MB after allocating wave
  | Largest tracked array allocation on task 0 so far         :           2.500 MB  when allocating +KS_eigenvector_complex
  Note:  These values currently only include a subset of arrays which are explicitly tracked.
  The "true" memory usage will be greater.
------------------------------------------------------------

------------------------------------------------------------
          Begin self-consistency iteration #    8

  Date     :  20190514, Time     :  105008.548
------------------------------------------------------------
  Evaluating new KS density using the density matrix
  Evaluating density matrix
  Time summed over all CPUs for getting density from density matrix: real work        0.234 s, elapsed        0.234 s
  Integration grid: deviation in total charge (<rho> - N_e) =  -3.748113E-13
  Pulay mixing of updated and previous charge densities.

  Evaluating partitioned Hartree potential by multipole expansion.
  | Analytical far-field extrapolation by fixed multipoles:
  | Hartree multipole sum: apparent total charge =   0.144919E-03
  Summing up the Hartree potential.
  Time summed over all CPUs for potential: real work        0.168 s, elapsed        0.169 s
  | RMS charge density error from multipole expansion :   0.214043E-02
  | Average real-space part of the electrostatic potential :     -0.27769528 eV

  Integrating Hamiltonian matrix: batch-based integration.
  Time summed over all CPUs for integration: real work        0.150 s, elapsed        0.150 s

  Updating Kohn-Sham eigenvalues, eigenvectors, occupation numbers, and Fermi level.
  Solving generalized eigenproblem

  Obtaining occupation numbers and chemical potential using ELSI.
  | Chemical potential (Fermi level):    -4.93125540eV
  What follows are estimated values for band gap, HOMO, LUMO, etc.
  | They are estimated on a discrete k-point grid and not necessarily exact.
  | For converged numbers, create a DOS and/or band structure plot on a denser k-grid.

  Highest occupied state (VBM) at     -4.94982080 eV (relative to internal zero)
  | Occupation number:      1.40049247
  | K-point:     637 at    0.500000    0.166667    0.666667 (in units of recip. lattice)

  Lowest unoccupied state (CBM) at    -4.91647758 eV (relative to internal zero)
  | Occupation number:      0.67596197
  | K-point:     570 at    0.416667    0.583333    0.000000 (in units of recip. lattice)

  ESTIMATED overall HOMO-LUMO gap:      0.03334321 eV between HOMO at k-point 637 and LUMO at k-point 570
  | This appears to be an indirect band gap.
  | Smallest direct gap :      0.54255711 eV for k_point 637 at    0.416667    0.583333    0.000000 (in units of recip. lattice)
  However, this system has fractional occupation numbers. Since we use a finite k-point grid,
  this material is metallic within the approximate finite broadening function (occupation_type)
  applied to determine the occupation numbers.

  Total energy components:
  | Sum of eigenvalues            :        -163.81314445 Ha       -4457.58245986 eV
  | XC energy correction          :         -19.65717849 Ha        -534.89904220 eV
  | XC potential correction       :          25.97164397 Ha         706.72439013 eV
  | Free-atom electrostatic energy:        -132.17256572 Ha       -3596.59850611 eV
  | Hartree energy correction     :           0.38058849 Ha          10.35633977 eV
  | Entropy correction            :          -0.00003466 Ha          -0.00094311 eV
  | ---------------------------
  | Total energy                  :        -289.29065621 Ha       -7871.99927828 eV
  | Total energy, T -> 0          :        -289.29069086 Ha       -7872.00022139 eV  <-- do not rely on this value for anything but (periodic) metals
  | Electronic free energy        :        -289.29072552 Ha       -7872.00116450 eV

  Derived energy quantities:
  | Kinetic energy                :         289.34392780 Ha        7873.44887214 eV
  | Electrostatic energy          :        -558.97740551 Ha      -15210.54910821 eV
  | Energy correction for multipole
  | error in Hartree potential    :           0.00025816 Ha           0.00702485 eV
  | Sum of eigenvalues per atom                           :       -4457.58245986 eV
  | Total energy (T->0) per atom                          :       -7872.00022139 eV  <-- do not rely on this value for anything but (periodic) metals
  | Electronic free energy per atom                       :       -7872.00116450 eV

  Self-consistency convergence accuracy:
  | Change of charge density      :  0.4528E-04
  | Change of sum of eigenvalues  : -0.2294E-02 eV
  | Change of total energy        :  0.1604E-05 eV

  End self-consistency iteration #     8       :  max(cpu_time)    wall_clock(cpu1)
  | Time for this iteration                    :        0.713 s           0.713 s
  | Charge density update                      :        0.250 s           0.250 s
  | Density mixing & preconditioning           :        0.021 s           0.022 s
  | Hartree multipole update                   :        0.000 s           0.000 s
  | Hartree multipole summation                :        0.171 s           0.171 s
  | Integration                                :        0.150 s           0.150 s
  | Solution of K.-S. eqns.                    :        0.120 s           0.119 s
  | Total energy evaluation                    :        0.000 s           0.001 s

  Partial memory accounting:
  | Current value for overall tracked memory usage on task 0  :           2.667 MB
  | Peak value for overall tracked memory usage on task 0     :           4.129 MB after allocating wave
  | Largest tracked array allocation on task 0 so far         :           2.500 MB  when allocating +KS_eigenvector_complex
  Note:  These values currently only include a subset of arrays which are explicitly tracked.
  The "true" memory usage will be greater.
------------------------------------------------------------

------------------------------------------------------------
          Begin self-consistency iteration #    9

  Date     :  20190514, Time     :  105009.261
------------------------------------------------------------
  Evaluating new KS density using the density matrix
  Evaluating density matrix
  Time summed over all CPUs for getting density from density matrix: real work        0.234 s, elapsed        0.234 s
  Integration grid: deviation in total charge (<rho> - N_e) =  -2.167155E-13
  Pulay mixing of updated and previous charge densities.

  Evaluating partitioned Hartree potential by multipole expansion.
  | Analytical far-field extrapolation by fixed multipoles:
  | Hartree multipole sum: apparent total charge =   0.147334E-03
  Summing up the Hartree potential.
  Time summed over all CPUs for potential: real work        0.170 s, elapsed        0.170 s
  | RMS charge density error from multipole expansion :   0.214037E-02
  | Average real-space part of the electrostatic potential :     -0.27770376 eV

  Integrating Hamiltonian matrix: batch-based integration.
  Time summed over all CPUs for integration: real work        0.152 s, elapsed        0.152 s

  Updating Kohn-Sham eigenvalues, eigenvectors, occupation numbers, and Fermi level.
  Solving generalized eigenproblem

  Obtaining occupation numbers and chemical potential using ELSI.
  | Chemical potential (Fermi level):    -4.93125095eV
  What follows are estimated values for band gap, HOMO, LUMO, etc.
  | They are estimated on a discrete k-point grid and not necessarily exact.
  | For converged numbers, create a DOS and/or band structure plot on a denser k-grid.

  Highest occupied state (VBM) at     -4.94981646 eV (relative to internal zero)
  | Occupation number:      1.40049465
  | K-point:     656 at    0.500000    0.333333    0.833333 (in units of recip. lattice)

  Lowest unoccupied state (CBM) at    -4.91647333 eV (relative to internal zero)
  | Occupation number:      0.67596604
  | K-point:     696 at    0.583333    0.166667    0.583333 (in units of recip. lattice)

  ESTIMATED overall HOMO-LUMO gap:      0.03334313 eV between HOMO at k-point 656 and LUMO at k-point 696
  | This appears to be an indirect band gap.
  | Smallest direct gap :      0.54255703 eV for k_point 656 at    0.583333    0.166667    0.583333 (in units of recip. lattice)
  However, this system has fractional occupation numbers. Since we use a finite k-point grid,
  this material is metallic within the approximate finite broadening function (occupation_type)
  applied to determine the occupation numbers.

  Total energy components:
  | Sum of eigenvalues            :        -163.81314229 Ha       -4457.58240105 eV
  | XC energy correction          :         -19.65717758 Ha        -534.89901723 eV
  | XC potential correction       :          25.97164276 Ha         706.72435732 eV
  | Free-atom electrostatic energy:        -132.17256572 Ha       -3596.59850611 eV
  | Hartree energy correction     :           0.38058662 Ha          10.35628877 eV
  | Entropy correction            :          -0.00003466 Ha          -0.00094311 eV
  | ---------------------------
  | Total energy                  :        -289.29065621 Ha       -7871.99927831 eV
  | Total energy, T -> 0          :        -289.29069087 Ha       -7872.00022142 eV  <-- do not rely on this value for anything but (periodic) metals
  | Electronic free energy        :        -289.29072552 Ha       -7872.00116453 eV

  Derived energy quantities:
  | Kinetic energy                :         289.34392167 Ha        7873.44870522 eV
  | Electrostatic energy          :        -558.97740030 Ha      -15210.54896630 eV
  | Energy correction for multipole
  | error in Hartree potential    :           0.00025815 Ha           0.00702466 eV
  | Sum of eigenvalues per atom                           :       -4457.58240105 eV
[...]
  | Hartree multipole update                   :        0.000 s           0.000 s
  | Hartree multipole summation                :        0.172 s           0.172 s
  | Integration                                :        0.152 s           0.152 s
  | Solution of K.-S. eqns.                    :        0.123 s           0.123 s
  | Total energy evaluation                    :        0.000 s           0.000 s

  Partial memory accounting:
  | Current value for overall tracked memory usage on task 0  :           2.668 MB
  | Peak value for overall tracked memory usage on task 0     :           4.129 MB after allocating wave
  | Largest tracked array allocation on task 0 so far         :           2.500 MB  when allocating +KS_eigenvector_complex
  Note:  These values currently only include a subset of arrays which are explicitly tracked.
  The "true" memory usage will be greater.
------------------------------------------------------------

------------------------------------------------------------
          Begin self-consistency iteration #   10

  Date     :  20190514, Time     :  105009.978
------------------------------------------------------------
  Evaluating new KS density using the density matrix
  Evaluating density matrix
  Time summed over all CPUs for getting density from density matrix: real work        0.232 s, elapsed        0.232 s
  Integration grid: deviation in total charge (<rho> - N_e) =  -2.451372E-13
  Pulay mixing of updated and previous charge densities.

  Evaluating partitioned Hartree potential by multipole expansion.
  | Analytical far-field extrapolation by fixed multipoles:
  | Hartree multipole sum: apparent total charge =   0.146650E-03
  Summing up the Hartree potential.
  Time summed over all CPUs for potential: real work        0.168 s, elapsed        0.168 s
  | RMS charge density error from multipole expansion :   0.214043E-02
  | Average real-space part of the electrostatic potential :     -0.27770423 eV

  Integrating Hamiltonian matrix: batch-based integration.
  Time summed over all CPUs for integration: real work        0.151 s, elapsed        0.151 s

  Updating Kohn-Sham eigenvalues, eigenvectors, occupation numbers, and Fermi level.
  Solving generalized eigenproblem

  Obtaining occupation numbers and chemical potential using ELSI.
  | Chemical potential (Fermi level):    -4.93125474eV
  What follows are estimated values for band gap, HOMO, LUMO, etc.
  | They are estimated on a discrete k-point grid and not necessarily exact.
  | For converged numbers, create a DOS and/or band structure plot on a denser k-grid.

  Highest occupied state (VBM) at     -4.94982005 eV (relative to internal zero)
  | Occupation number:      1.40049071
  | K-point:     656 at    0.500000    0.333333    0.833333 (in units of recip. lattice)

  Lowest unoccupied state (CBM) at    -4.91647671 eV (relative to internal zero)
  | Occupation number:      0.67595753
  | K-point:     559 at    0.416667    0.416667    0.833333 (in units of recip. lattice)

  ESTIMATED overall HOMO-LUMO gap:      0.03334334 eV between HOMO at k-point 656 and LUMO at k-point 559
  | This appears to be an indirect band gap.
  | Smallest direct gap :      0.54255727 eV for k_point 656 at    0.416667    0.416667    0.833333 (in units of recip. lattice)
  However, this system has fractional occupation numbers. Since we use a finite k-point grid,
  this material is metallic within the approximate finite broadening function (occupation_type)
  applied to determine the occupation numbers.

  Total energy components:
  | Sum of eigenvalues            :        -163.81315772 Ha       -4457.58282097 eV
  | XC energy correction          :         -19.65717626 Ha        -534.89898150 eV
  | XC potential correction       :          25.97164102 Ha         706.72430989 eV
  | Free-atom electrostatic energy:        -132.17256572 Ha       -3596.59850611 eV
  | Hartree energy correction     :           0.38060248 Ha          10.35672038 eV
  | Entropy correction            :          -0.00003466 Ha          -0.00094311 eV
  | ---------------------------
  | Total energy                  :        -289.29065621 Ha       -7871.99927831 eV
  | Total energy, T -> 0          :        -289.29069087 Ha       -7872.00022142 eV  <-- do not rely on this value for anything but (periodic) metals
  | Electronic free energy        :        -289.29072552 Ha       -7872.00116452 eV

  Derived energy quantities:
  | Kinetic energy                :         289.34390360 Ha        7873.44821347 eV
  | Electrostatic energy          :        -558.97738354 Ha      -15210.54851028 eV
  | Energy correction for multipole
  | error in Hartree potential    :           0.00025816 Ha           0.00702479 eV
  | Sum of eigenvalues per atom                           :       -4457.58282097 eV
  | Total energy (T->0) per atom                          :       -7872.00022142 eV  <-- do not rely on this value for anything but (periodic) metals
  | Electronic free energy per atom                       :       -7872.00116452 eV

  Self-consistency convergence accuracy:
  | Change of charge density      :  0.1395E-05
  | Change of sum of eigenvalues  : -0.4199E-03 eV
  | Change of total energy        :  0.5387E-08 eV

  End self-consistency iteration #    10       :  max(cpu_time)    wall_clock(cpu1)
  | Time for this iteration                    :        0.711 s           0.711 s
  | Charge density update                      :        0.248 s           0.249 s
  | Density mixing & preconditioning           :        0.020 s           0.019 s
  | Hartree multipole update                   :        0.000 s           0.001 s
  | Hartree multipole summation                :        0.169 s           0.169 s
  | Integration                                :        0.151 s           0.151 s
  | Solution of K.-S. eqns.                    :        0.122 s           0.122 s
  | Total energy evaluation                    :        0.000 s           0.000 s

  Partial memory accounting:
  | Current value for overall tracked memory usage on task 0  :           2.668 MB
  | Peak value for overall tracked memory usage on task 0     :           4.129 MB after allocating wave
  | Largest tracked array allocation on task 0 so far         :           2.500 MB  when allocating +KS_eigenvector_complex
  Note:  These values currently only include a subset of arrays which are explicitly tracked.
  The "true" memory usage will be greater.
------------------------------------------------------------

------------------------------------------------------------
          Begin self-consistency iteration #   11

  Date     :  20190514, Time     :  105010.689
------------------------------------------------------------
  Evaluating new KS density using the density matrix
  Evaluating density matrix
  Time summed over all CPUs for getting density from density matrix: real work        0.236 s, elapsed        0.236 s
  Integration grid: deviation in total charge (<rho> - N_e) =  -3.801404E-13
  Pulay mixing of updated and previous charge densities.

  Evaluating partitioned Hartree potential by multipole expansion.
  | Analytical far-field extrapolation by fixed multipoles:
  | Hartree multipole sum: apparent total charge =   0.146680E-03
  Summing up the Hartree potential.
  Time summed over all CPUs for potential: real work        0.167 s, elapsed        0.167 s
  | RMS charge density error from multipole expansion :   0.214043E-02
  | Average real-space part of the electrostatic potential :     -0.27770474 eV

  Integrating Hamiltonian matrix: batch-based integration.
  Time summed over all CPUs for integration: real work        0.152 s, elapsed        0.152 s

  Updating Kohn-Sham eigenvalues, eigenvectors, occupation numbers, and Fermi level.
  Solving generalized eigenproblem

  Obtaining occupation numbers and chemical potential using ELSI.
  | Chemical potential (Fermi level):    -4.93125494eV
  What follows are estimated values for band gap, HOMO, LUMO, etc.
  | They are estimated on a discrete k-point grid and not necessarily exact.
  | For converged numbers, create a DOS and/or band structure plot on a denser k-grid.

  Highest occupied state (VBM) at     -4.94982024 eV (relative to internal zero)
  | Occupation number:      1.40049046
  | K-point:     637 at    0.500000    0.166667    0.666667 (in units of recip. lattice)

  Lowest unoccupied state (CBM) at    -4.91647689 eV (relative to internal zero)
  | Occupation number:      0.67595709
  | K-point:     559 at    0.416667    0.416667    0.833333 (in units of recip. lattice)

  ESTIMATED overall HOMO-LUMO gap:      0.03334335 eV between HOMO at k-point 637 and LUMO at k-point 559
  | This appears to be an indirect band gap.
  | Smallest direct gap :      0.54255728 eV for k_point 656 at    0.416667    0.416667    0.833333 (in units of recip. lattice)
  However, this system has fractional occupation numbers. Since we use a finite k-point grid,
  this material is metallic within the approximate finite broadening function (occupation_type)
  applied to determine the occupation numbers.

  Total energy components:
  | Sum of eigenvalues            :        -163.81315800 Ha       -4457.58282859 eV
  | XC energy correction          :         -19.65717625 Ha        -534.89898111 eV
  | XC potential correction       :          25.97164100 Ha         706.72430939 eV
  | Free-atom electrostatic energy:        -132.17256572 Ha       -3596.59850611 eV
  | Hartree energy correction     :           0.38060276 Ha          10.35672811 eV
  | Entropy correction            :          -0.00003466 Ha          -0.00094311 eV
  | ---------------------------
  | Total energy                  :        -289.29065621 Ha       -7871.99927831 eV
  | Total energy, T -> 0          :        -289.29069087 Ha       -7872.00022142 eV  <-- do not rely on this value for anything but (periodic) metals
  | Electronic free energy        :        -289.29072552 Ha       -7872.00116452 eV

  Derived energy quantities:
  | Kinetic energy                :         289.34390365 Ha        7873.44821493 eV
  | Electrostatic energy          :        -558.97738361 Ha      -15210.54851213 eV
  | Energy correction for multipole
  | error in Hartree potential    :           0.00025816 Ha           0.00702479 eV
  | Sum of eigenvalues per atom                           :       -4457.58282859 eV
  | Total energy (T->0) per atom                          :       -7872.00022142 eV  <-- do not rely on this value for anything but (periodic) metals
  | Electronic free energy per atom                       :       -7872.00116452 eV

  Self-consistency convergence accuracy:
  | Change of charge density      :  0.4862E-07
  | Change of sum of eigenvalues  : -0.7618E-05 eV
  | Change of total energy        :  0.3635E-09 eV

  Preliminary charge convergence reached. Turning off preconditioner.

  Writing Kohn-Sham eigenvalues.
  K-point:       1 at    0.000000    0.000000    0.000000 (in units of recip. lattice)

  State    Occupation    Eigenvalue [Ha]    Eigenvalue [eV]
      1       2.00000         -65.532725        -1783.23617
      2       2.00000          -5.120557         -139.33745
      3       2.00000          -3.535441          -96.20423
      4       2.00000          -3.535441          -96.20423
      5       2.00000          -3.535441          -96.20423
      6       2.00000          -0.505895          -13.76610
      7       0.00000          -0.027221           -0.74072
      8       0.00000          -0.027221           -0.74072
      9       0.00000          -0.027221           -0.74072
     10       0.00000           0.190315            5.17872

  What follows are estimated values for band gap, HOMO, LUMO, etc.
  | They are estimated on a discrete k-point grid and not necessarily exact.
  | For converged numbers, create a DOS and/or band structure plot on a denser k-grid.

  Highest occupied state (VBM) at     -4.94982024 eV (relative to internal zero)
  | Occupation number:      1.40049046
  | K-point:     637 at    0.500000    0.166667    0.666667 (in units of recip. lattice)

  Lowest unoccupied state (CBM) at    -4.91647689 eV (relative to internal zero)
  | Occupation number:      0.67595709
  | K-point:     559 at    0.416667    0.416667    0.833333 (in units of recip. lattice)

  ESTIMATED overall HOMO-LUMO gap:      0.03334335 eV between HOMO at k-point 637 and LUMO at k-point 559
  | This appears to be an indirect band gap.
  | Smallest direct gap :      0.54255728 eV for k_point 656 at    0.416667    0.416667    0.833333 (in units of recip. lattice)
  However, this system has fractional occupation numbers. Since we use a finite k-point grid,
  this material is metallic within the approximate finite broadening function (occupation_type)
  applied to determine the occupation numbers.

  Self-consistency cycle converged.

  End self-consistency iteration #    11       :  max(cpu_time)    wall_clock(cpu1)
  | Time for this iteration                    :        0.718 s           0.719 s
  | Charge density update                      :        0.252 s           0.252 s
  | Density mixing                             :        0.019 s           0.019 s
  | Hartree multipole update                   :        0.000 s           0.001 s
  | Hartree multipole summation                :        0.168 s           0.168 s
  | Integration                                :        0.152 s           0.152 s
  | Solution of K.-S. eqns.                    :        0.125 s           0.126 s
  | Total energy evaluation                    :        0.001 s           0.000 s

  Partial memory accounting:
  | Current value for overall tracked memory usage on task 0  :           2.668 MB
  | Peak value for overall tracked memory usage on task 0     :           4.129 MB after allocating wave
  | Largest tracked array allocation on task 0 so far         :           2.500 MB  when allocating +KS_eigenvector_complex
  Note:  These values currently only include a subset of arrays which are explicitly tracked.
  The "true" memory usage will be greater.
------------------------------------------------------------

  Energy and forces in a compact form:
  | Total energy uncorrected      :         -0.787199927830783E+04 eV
  | Total energy corrected        :         -0.787200022141606E+04 eV  <-- do not rely on this value for anything but (periodic) metals
  | Electronic free energy        :         -0.787200116452428E+04 eV

  ------------------------------------ 
  Start decomposition of the XC Energy 
  ------------------------------------ 
  X and C from original XC functional choice 
  Hartree-Fock Energy :          0.000000000 Ha              0.000000000 eV
  X Energy            :        -18.599149070 Ha           -506.108596725 eV
  C Energy            :         -1.058027179 Ha            -28.790384386 eV
  Total XC Energy     :        -19.657176250 Ha           -534.898981111 eV
  ------------------------------------ 
  LDA X and C from self-consistent density 
  X Energy LDA        :        -18.599149070 Ha           -506.108596725 eV
  C Energy LDA        :         -1.058027179 Ha            -28.790384386 eV
  ------------------------------------ 
  End decomposition of the XC Energy 
  ------------------------------------ 

------------------------------------------------------------

------------------------------------------------------------------------------
  Final output of selected total energy values:

  The following output summarizes some interesting total energy values
  at the end of a run (AFTER all relaxation, molecular dynamics, etc.).

  | Total energy of the DFT / Hartree-Fock s.c.f. calculation      :          -7871.999278308 eV
  | Final zero-broadening corrected energy (caution - metals only) :          -7872.000221416 eV
  | For reference only, the value of 1 Hartree used in FHI-aims is :             27.211384500 eV

  Before relying on these values, please be sure to understand exactly which
  total energy value is referred to by a given number. Different objects may
  all carry the same name 'total energy'. Definitions:

  Total energy of the DFT / Hartree-Fock s.c.f. calculation:
  | Note that this energy does not include ANY quantities calculated after the
  | s.c.f. cycle, in particular not ANY RPA, MP2, etc. many-body perturbation terms.

  Final zero-broadening corrected energy:
  | For metallic systems only, a broadening of the occupation numbers at the Fermi
  | level can be extrapolated back to zero broadening by an electron-gas inspired
  | formula. For all systems that are not real metals, this value can be
  | meaningless and should be avoided.

------------------------------------------------------------------------------
  Methods described in the following list of references were used in this FHI-aims run.
  If you publish the results, please make sure to cite these reference if they apply.
  FHI-aims is an academic code, and for our developers (often, Ph.D. students
  and postdocs), scientific credit in the community is essential.
  Thank you for helping us!

  For any use of FHI-aims, please cite:

    Volker Blum, Ralf Gehrke, Felix Hanke, Paula Havu, Ville Havu,
    Xinguo Ren, Karsten Reuter, and Matthias Scheffler
    'Ab initio molecular simulations with numeric atom-centered orbitals'
    Computer Physics Communications 180, 2175-2196 (2009)
    http://dx.doi.org/10.1016/j.cpc.2009.06.022


  For the real-space grid partitioning and parallelization used in this calculation, please cite:

    Ville Havu, Volker Blum, Paula Havu, and Matthias Scheffler,
    'Efficient O(N) integration for all-electron electronic structure calculation'
    'using numerically tabulated basis functions'
    Journal of Computational Physics 228, 8367-8379 (2009).
    http://dx.doi.org/10.1016/j.jcp.2009.08.008

  Of course, there are many other important community references, e.g., those cited in the
  above references. Our list is limited to references that describe implementations in the
  FHI-aims code. The reason is purely practical (length of this list) - please credit others as well.

------------------------------------------------------------
          Leaving FHI-aims.
          Date     :  20190514, Time     :  105011.412

          Computational steps:
          | Number of self-consistency cycles          :           11
          | Number of SCF (re)initializations          :            1

          Detailed time accounting                     :  max(cpu_time)    wall_clock(cpu1)
          | Total time                                 :        8.651 s           8.651 s
          | Preparation time                           :        0.110 s           0.110 s
          | Boundary condition initalization           :        0.028 s           0.028 s
          | Grid partitioning                          :        0.011 s           0.012 s
          | Preloading free-atom quantities on grid    :        0.001 s           0.000 s
          | Free-atom superposition energy             :        0.011 s           0.012 s
          | Total time for integrations                :        1.944 s           1.944 s
          | Total time for solution of K.-S. equations :        1.610 s           1.609 s
          | Total time for density update              :        2.827 s           2.828 s
          | Total time for mixing & preconditioning    :        0.227 s           0.225 s
          | Total time for Hartree multipole update    :        0.004 s           0.007 s
          | Total time for Hartree multipole sum       :        1.822 s           1.820 s
          | Total time for total energy evaluation     :        0.003 s           0.004 s
          | Total time for scaled ZORA corrections     :        0.000 s           0.000 s

 This is a stub MPI_ALLREDUCE call.
 You should not be here. Check your
 setting on the use_mpi variable, or
 link against true MPI-libraries.
