------------------------------------------------------------
          Invoking FHI-aims ...
          Version 171221_1
          Compiled on 2019/05/06 at 14:26:40 on host ffph0xx.

          When using FHI-aims, please cite the following reference:

          Volker Blum, Ralf Gehrke, Felix Hanke, Paula Havu,
          Ville Havu, Xinguo Ren, Karsten Reuter, and Matthias Scheffler,
          'Ab Initio Molecular Simulations with Numeric Atom-Centered Orbitals',
          Computer Physics Communications 180, 2175-2196 (2009)

          For any questions about FHI-aims, please visit the aimsclub website
          with its forums and wiki. Contributions to both the forums and the
          wiki are warmly encouraged - they are for you, and everyone is welcome there.

------------------------------------------------------------



  Date     :  20190513, Time     :  134933.690
  Time zero on CPU 1             :   0.809000000000000E-03  s.
  Internal wall clock time zero  :           326987373.690  s.

  FHI-aims created a unique identifier for this run for later identification
  aims_uuid : 14BED429-C215-44CE-A00C-6474374B3E6D


  Performing system and environment tests:
  *** Environment variable OMP_NUM_THREADS is not set
  *** For performance reasons you might want to set it to 1
  | Stacksize not measured: no C compiler

  Obtaining array dimensions for all initial allocations:
  
  -----------------------------------------------------------------------
  Parsing control.in (first pass over file, find array dimensions only).
  The contents of control.in will be repeated verbatim below
  unless switched off by setting 'verbatim_writeout .false.' .
  in the first line of control.in .
  -----------------------------------------------------------------------
  
  #--- method ---
  xc pw-lda
  spin none
  relativistic atomic_zora scalar
  #---
  
  #--- k-grid settings ---
  k_grid 16 16 16
  #---
  
  
  
  
  
  
  
  
  
  
  
  #-------------------------------------------------------------------------------
  #--- Species defaults for Si
  #-------------------------------------------------------------------------------
  
  ################################################################################
  #
  #  FHI-aims code project
  #  VB, Fritz-Haber Institut, 2009
  #
  #  Suggested "light" defaults for Si atom (to be pasted into control.in file)
  #  Be sure to double-check any results obtained with these settings for post-processing,
  #  e.g., with the "tight" defaults and larger basis sets.
  #
  ################################################################################
    species        Si
  #     global species definitions
      nucleus             14
      mass                28.0855
  #
      l_hartree           4
  #
      cut_pot             3.5          1.5  1.0
      basis_dep_cutoff    1e-4
  #
      radial_base         42 5.0
      radial_multiplier   1
      angular_grids       specified
        division   0.5866   50
        division   0.9616  110
        division   1.2249  194
        division   1.3795  302
  #      division   1.4810  434
  #      division   1.5529  590
  #      division   1.6284  770
  #      division   1.7077  974
  #      division   2.4068 1202
  #      outer_grid   974
        outer_grid 302
  ################################################################################
  #
  #  Definition of "minimal" basis
  #
  ################################################################################
  #     valence basis states
      valence      3  s   2.
      valence      3  p   2.
  #     ion occupancy
      ion_occ      3  s   1.
      ion_occ      3  p   1.
  ################################################################################
  #
  #  Suggested additional basis functions. For production calculations,
  #  uncomment them one after another (the most important basis functions are
  #  listed first).
  #
  #  Constructed for dimers: 1.75 A, 2.0 A, 2.25 A, 2.75 A, 3.75 A
  #
  ################################################################################
  #  "First tier" - improvements: -571.96 meV to -37.03 meV
       hydro 3 d 4.2
       hydro 2 p 1.4
  #     hydro 4 f 6.2
       ionic 3 s auto
  #  "Second tier" - improvements: -16.76 meV to -3.03 meV
  #     hydro 3 d 9
  #     hydro 5 g 9.4
  #     hydro 4 p 4
  #     hydro 1 s 0.65
  #  "Third tier" - improvements: -3.89 meV to -0.60 meV
  #     ionic 3 d auto
  #     hydro 3 s 2.6
  #     hydro 4 f 8.4
  #     hydro 3 d 3.4
  #     hydro 3 p 7.8
  #  "Fourth tier" - improvements: -0.33 meV to -0.11 meV
  #     hydro 2 p 1.6
  #     hydro 5 g 10.8
  #     hydro 5 f 11.2
  #     hydro 3 d 1
  #     hydro 4 s 4.5
  #  Further basis functions that fell out of the optimization - noise
  #  level... < -0.08 meV
  #     hydro 4 d 6.6
  #     hydro 5 g 16.4
  #     hydro 4 d 9
  
  -----------------------------------------------------------------------
  Completed first pass over input file control.in .
  -----------------------------------------------------------------------
  
  
  -----------------------------------------------------------------------
  Parsing geometry.in (first pass over file, find array dimensions only).
  The contents of geometry.in will be repeated verbatim below
  unless switched off by setting 'verbatim_writeout .false.' .
  in the first line of geometry.in .
  -----------------------------------------------------------------------
  
  lattice_vector   0.000000   2.800000   2.800000
  lattice_vector   2.800000   0.000000   2.800000
  lattice_vector   2.800000   2.800000   0.000000
  atom_frac   0.000000   0.000000   0.000000 Si
  atom_frac   0.250000   0.250000   0.250000 Si
  
  -----------------------------------------------------------------------
  Completed first pass over input file geometry.in .
  -----------------------------------------------------------------------
  

  Basic array size parameters:
  | Number of species                 :        1
  | Number of atoms                   :        2
  | Number of lattice vectors         :        3
  | Max. basis fn. angular momentum   :        2
  | Max. atomic/ionic basis occupied n:        3
  | Max. number of basis fn. types    :        3
  | Max. radial fns per species/type  :        5
  | Max. logarithmic grid size        :     1346
  | Max. radial integration grid size :       42
  | Max. angular integration grid size:      302
  | Max. angular grid division number :        8
  | Radial grid for Hartree potential :     1346
  | Number of spin channels           :        1

------------------------------------------------------------
          Reading file control.in.
------------------------------------------------------------
  XC: Using Perdew-Wang parametrisation of Ceperley-Alder LDA.
  Spin treatment: No spin polarisation.
  Scalar relativistic treatment of kinetic energy: on-site free-atom approximation to ZORA.
  Found k-point grid:        16        16        16

  Reading configuration options for species Si                  .
  | Found nuclear charge :  14.0000
  | Found atomic mass :    28.085500000000000      amu
  | Found l_max for Hartree potential  :   4
  | Found cutoff potl. onset [A], width [A], scale factor :    3.50000    1.50000    1.00000
  | Threshold for basis-dependent cutoff potential is   0.100000E-03
  | Found data for basic radial integration grid :    42 points, outermost radius =    5.000 A
  | Found multiplier for basic radial grid :   1
  | Found angular grid specification: user-specified.
  | Specified grid contains     5 separate shells.
  | Check grid settings after all constraints further below.
  | Found free-atom valence shell :  3 s   2.000
  | Found free-atom valence shell :  3 p   2.000
  | Found free-ion valence shell :  3 s   1.000
  | Found free-ion valence shell :  3 p   1.000
  | Found hydrogenic basis function :  3 d   4.200
  | Found hydrogenic basis function :  2 p   1.400
  | Found ionic basis function :  3 s , default cutoff radius.
  Species Si                  : Missing cutoff potential type.
  Defaulting to exp(1/x)/(1-x)^2 type cutoff potential.
  Species Si: No 'logarithmic' tag. Using default grid for free atom:
  | Default logarithmic grid data [bohr] : 0.1000E-03 0.1000E+03 0.1012E+01
  | Will include ionic basis functions of  2.0-fold positive Si                   ion.
  Species Si: On-site basis accuracy parameter (for Gram-Schmidt orthonormalisation) not specified.
  Using default value basis_acc =  0.1000000E-03.
  Species Si                  : Using default innermost maximum threshold i_radial=  2 for radial functions.
  Species Si                  : Default cutoff onset for free atom density etc. : 0.35000000E+01 AA.
  Species Si                  : Basic radial grid will be enhanced according to radial_multiplier =   1, to contain    42 grid points.

  Finished reading input file 'control.in'. Consistency checks are next.

  MPI_IN_PLACE appears to work with this MPI implementation.
  | Keeping use_mpi_in_place .true. (see manual).
  Target number of points in a grid batch is not set. Defaulting to  100
  Method for grid partitioning is not set. Defaulting to 'maxmin' partitioning.
  Batch size limit is not set. Defaulting to    200
  By default, will store active basis functions for each batch.
  If in need of memory, prune_basis_once .false. can be used to disable this option.
  communication_type for Hartree potential was not specified.
  Defaulting to calc_hartree .
 * Attention: 
 * You may want to set distributed_spline_storage to .true. in order to save memory.
 * This doesn't harm performance and is perfectly ok unless:
 * - you get error messages in postprocessing (about missing atoms in get_rho_multipole_spl)
 * - you need full spline storage in hirshfeld_analysis
  Defaulting to Pulay charge density mixer.
  Pulay mixer: Number of relevant iterations not set.
  Defaulting to    8 iterations.
  Pulay mixer: Number of initial linear mixing iterations not set.
  Defaulting to    0 iterations.
  Work space size for distributed Hartree potential not set.
  Defaulting to   0.200000E+03 MB.
  Mixing parameter for charge density mixing has not been set.
  Using default: charge_mix_param =     0.0500.
  The mixing parameter will be adjusted in iteration number     2 of the first full s.c.f. cycle only.
  Algorithm-dependent basis array size parameters:
  | n_max_pulay                         :        8
 * Notice: The s.c.f. convergence criterion sc_accuracy_rho was not provided.
 * We used to stop in this case, and ask the user to provide reasonable
 * scf convergence criteria. However, this led some users to employ criteria
 * that led to extremely long run times, e.g., for simple relaxation.
 * We now preset a default value for sc_accuracy_rho if it is not set.
 * You may still wish to check if this setting is too tight or too loose for your needs.
 * Based on n_atoms, FHI-aims chose sc_accuracy_rho =  0.100000E-05 .
  Maximum number of self-consistency iterations not provided.
  Presetting  1000 iterations.
  Presetting      1001 iterations before the initial mixing cycle
  is restarted anyway using the sc_init_iter criterion / keyword.
  Presetting a factor      1.000 between actual scf density residual
  and density convergence criterion sc_accuracy_rho below which sc_init_iter
  takes no effect.
 * No s.c.f. convergence criteria (sc_accuracy_*) were provided in control.in.
 * The run will proceed with a reasonable default guess, but please check whether.
 * the s.c.f. cycles seem to take too much or too little time.
  Calculation of forces was not defined in control.in. No forces will be calculated.
  Geometry relaxation not requested: no relaxation will be performed.
  No accuracy limit for integral partition fn. given. Defaulting to  0.1000E-14.
  No threshold value for u(r) in integrations given. Defaulting to  0.1000E-05.
  No occupation type (smearing scheme) given. Defaulting to Gaussian broadening, width =  0.1000E-01 eV.
  The width will be adjusted in iteration number     2 of the first full s.c.f. cycle only.
  S.C.F. convergence parameters will be adjusted in iteration number     2 of the first full s.c.f. cycle only.
  No accuracy for occupation numbers given. Defaulting to  0.1000E-12.
  No threshold value for occupation numbers given. Defaulting to  0.0000E+00.
  No accuracy for fermi level given. Defaulting to  0.1000E-19.
  Maximum # of iterations to find E_F not set. Defaulting to  200.
  Preferred method for the eigenvalue solver ('KS_method') not specified in 'control.in'.
  Defaulting to serial version, 'lapack_fast'.
  Will not use alltoall communication since running on < 1024 CPUs.
  Threshold for basis singularities not set.
  Default threshold for basis singularities:  0.1000E-04
  partition_type (choice of integration weights) for integrals was not specified.
  | Using a version of the partition function of Stratmann and coworkers ('stratmann_smoother').
  | At each grid point, the set of atoms used to build the partition table is smoothly restricted to
  | only those atoms whose free-atom density would be non-zero at that grid point.
  Partitioning for Hartree potential was not defined. Using partition_type for integrals.
  | Adjusted default value of keyword multip_moments_threshold to:       0.10000000E-11
  | This value may affect high angular momentum components of the Hartree potential in periodic systems.
  Angular momentum expansion for Kerker preconditioner not set explicitly.
  | Using default value of   0
  No explicit requirement for turning off preconditioner.
  | By default, it will be turned off when the charge convergence reaches
  | sc_accuracy_rho  =   0.100000E-05
  No special mixing parameter while Kerker preconditioner is on.
  Using default: charge_mix_param =     0.0500.
  No q(lm)/r^(l+1) cutoff set for long-range Hartree potential.
  | Using default value of  0.100000E-09 .
  | Verify using the multipole_threshold keyword.
  Defaulting to new monopole extrapolation.
  Density update method: automatic selection selected.
  Using density matrix based charge density update.
  Using density matrix based charge density update.
  Using packed matrix style: index .
  Defaulting to use time-reversal symmetry for k-point grid.
------------------------------------------------------------


------------------------------------------------------------
          Reading geometry description geometry.in.
------------------------------------------------------------
  Input structure read successfully.
  The structure contains        2 atoms,  and a total of         28.000 electrons.

  Input geometry:
  | Unit cell:
  |        0.00000000        2.80000000        2.80000000
  |        2.80000000        0.00000000        2.80000000
  |        2.80000000        2.80000000        0.00000000
  | Atomic structure:
  |       Atom                x [A]            y [A]            z [A]
  |    1: Species Si            0.00000000        0.00000000        0.00000000
  |    2: Species Si            1.40000000        1.40000000        1.40000000

  Lattice parameters for 3D lattice (in Angstroms) :     3.959798    3.959798    3.959798
  Angle(s) between unit vectors (in degrees)      :    60.000000   60.000000   60.000000

  |

  | The smallest distance between any two atoms is         2.42487113 AA.
  |
  | The first atom of this pair is atom number                      1 .
  | The second atom of this pair is atom number                     2 .
  | Wigner-Seitz cell of the first atom image           0     0     1 .
  | (The Wigner-Seitz cell of the second atom is 0 0 0  by definition.)

  Quantities derived from the lattice vectors:
  | Reciprocal lattice vector 1: -1.121997  1.121997  1.121997
  | Reciprocal lattice vector 2:  1.121997 -1.121997  1.121997
  | Reciprocal lattice vector 3:  1.121997  1.121997 -1.121997
  | Unit cell volume                               :   0.439040E+02  A^3

  Range separation radius for Ewald summation (hartree_convergence_parameter):      4.02196949 bohr.

  Fractional coordinates:
                         L1                L2                L3
       atom_frac         0.00000000        0.00000000        0.00000000  Si
       atom_frac         0.25000000        0.25000000        0.25000000  Si

  Number of empty states per atom not set in control.in - providing a guess from actual geometry.
  | Total number of empty states used during s.c.f. cycle:        6
  If you use a very high smearing, use empty_states (per atom!) in control.in to increase this value.

  Structure-dependent array size parameters: 
  | Maximum number of distinct radial functions  :        8
  | Maximum number of basis functions            :       36
  | Number of Kohn-Sham states (occupied + empty):       20
------------------------------------------------------------

------------------------------------------------------------
          Preparing all fixed parts of the calculation.
------------------------------------------------------------
  Determining machine precision:
     2.2250738585072014E-308
  Setting up grids for atomic and cluster calculations.

  Creating wave function, potential, and density for free atoms.

  Species: Si

  List of occupied orbitals and eigenvalues:
    n    l              occ      energy [Ha]    energy [eV]
    1    0           2.0000       -65.491668     -1782.1190
    2    0           2.0000        -5.087967      -138.4506
    3    0           2.0000        -0.391471       -10.6525
    2    1           6.0000        -3.502246       -95.3010
    3    1           2.0000        -0.143943        -3.9169

  Creating fixed part of basis set: Ionic, confined, hydrogenic.

  Si                   ion:

  List of free ionic orbitals and eigenvalues:
    n    l      energy [Ha]    energy [eV]
    1    0       -66.364436     -1805.8682
    2    0        -5.935799      -161.5213
    3    0        -1.078166       -29.3384
    2    1        -4.351123      -118.4001
    3    1        -0.781733       -21.2720


  List of ionic basis orbitals and eigenvalues:
    n    l      energy [Ha]    energy [eV]    outer radius [A]
    3    0        -1.078146       -29.3378       4.214062


  Si                   hydrogenic:

  List of hydrogenic basis orbitals: 
    n    l      effective z      eigenvalue [eV]  inner max. [A]     outer max. [A]     outer radius [A]   
    3    2         4.200000       -26.6624           1.139231           1.139231           4.534782
    2    1         1.400000        -6.4613           1.472672           1.472672           4.590560


  Adding cutoff potential to free-atom effective potential.
  Creating atomic-like basis functions for current effective potential.

  Species Si                  :

  List of atomic basis orbitals and eigenvalues:
    n    l      energy [Ha]    energy [eV]    outer radius [A]
    1    0       -65.491668     -1782.1190       0.789468
    2    0        -5.087967      -138.4506       2.815114
    3    0        -0.391471       -10.6525       4.534782
    2    1        -3.502246       -95.3010       3.259919
    3    1        -0.143943        -3.9169       4.590560

  Assembling full basis from fixed parts.
  | Species Si :   atomic orbital   1 s accepted.
  | Species Si :   atomic orbital   2 s accepted.
  | Species Si :    ionic orbital   3 s accepted.
  | Species Si :   atomic orbital   3 s accepted.
  | Species Si :   atomic orbital   2 p accepted.
  | Species Si :   atomic orbital   3 p accepted.
  | Species Si :    hydro orbital   2 p accepted.
  | Species Si :    hydro orbital   3 d accepted.

  Basis size parameters after reduction:
  | Total number of radial functions:        8
  | Total number of basis functions :       36

  Per-task memory consumption for arrays in subroutine allocate_ext:
  |           2.757868MB.
  Testing on-site integration grid accuracy.
  |  Species  Function  <phi|h_atom|phi> (log., in eV)  <phi|h_atom|phi> (rad., in eV)
           1        1              -1782.1189727076              -1782.1182429251
           1        2               -138.4506350693               -138.4506310079
           1        3                -10.3030408815                -10.3029120678
           1        4                  5.0238999146                  4.9457540310 ***
           1        5                -95.3009689499                -95.3009689315
           1        6                 -3.9266496564                 -3.9420918374
           1        7                  6.3453628447                  6.1632372158 ***
           1        8                  6.2883050744                  6.2861881409
 * Note: Onsite integrals marked "***" above are less accurate than
 * onsite_accuracy_threshold =    0.03000 eV. Usually, this is harmless.
 * When in doubt, tighten the "radial" and/or "radial_multiplier" flags to check.

  Preparing densities etc. for the partition functions (integrals / Hartree potential).

  Preparations completed.
  max(cpu_time)          :      0.095 s.
  Wall clock time (cpu1) :      0.095 s.
------------------------------------------------------------

------------------------------------------------------------
          Begin self-consistency loop: Initialization.

          Date     :  20190513, Time     :  134933.787
------------------------------------------------------------

  Initializing index lists of integration centers etc. from given atomic structure:
  Mapping all atomic coordinates to central unit cell.

  Initializing the k-points
          Using symmetry for reducing the k-points
  | k-points reduced from:     4096 to     2052
  | Number of k-points                             :      2052
  The eigenvectors in the calculations are COMPLEX.
  | K-points in task   0:      2052
  | Number of basis functions in the Hamiltonian integrals :      1246
  | Number of basis functions in a single unit cell        :        36
  | Number of centers in hartree potential         :       708
  | Number of centers in hartree multipole         :       318
  | Number of centers in electron density summation:       190
  | Number of centers in basis integrals           :       198
  | Number of centers in integrals                 :       101
  | Number of centers in hamiltonian               :       190
  | Consuming       3591 KiB for k_phase.
  | Number of super-cells (origin) [n_cells]                     :        2197
  | Number of super-cells (after PM_index) [n_cells]             :         112
  | Number of super-cells in hamiltonian [n_cells_in_hamiltonian]:         112
  | Size of matrix packed + index [n_hamiltonian_matrix_size] :       39615
  Partitioning the integration grid into batches with maxmin method.
  | Maximal weight for a single point:     1.000
  | Minimal weight for a single point:     0.640
  | Number of batches:      128
  | Maximal batch size:      90
  | Minimal batch size:      85
  | Average batch size:      87.562
  | Standard deviation of batch sizes:       1.504
  Initializing partition tables, free-atom densities, potentials, etc. across the integration grid (initialize_grid_storage).
  | initialize_grid_storage: Actual outermost partition radius vs. multipole_radius_free
  | (-- VB: in principle, multipole_radius_free should be larger, hence this output)
  | Species        1: Confinement radius =              4.999999999999999 AA, multipole_radius_free =              5.000694715736543 AA.
  | Species        1: outer_partition_radius set to              5.000694715736543 AA .
  | Original list of interatomic distances with         198 x        198 entries is created.
  | Net number of integration points:    11208
  | of which are non-zero points    :     9852
  | Numerical average free-atom electrostatic potential    :    -11.98549790 eV
  Renormalizing the initial density to the exact electron count on the 3D integration grid.
  | Initial density: Formal number of electrons (from input files) :      28.0000000000
  | Integrated number of electrons on 3D grid     :      28.0040014373
  | Charge integration error                      :       0.0040014373
  | Normalization factor for density and gradient :       0.9998571119
  Obtaining max. number of non-zero basis functions in each batch (get_n_compute_maxes).
  | Maximal number of non-zero basis functions:      432 in task     0
  Allocating       23.639 MB for KS_eigenvector_complex
  Integrating Hamiltonian matrix: batch-based integration.
  Time summed over all CPUs for integration: real work        0.522 s, elapsed        0.522 s
  Integrating overlap matrix.
  Time summed over all CPUs for integration: real work        0.375 s, elapsed        0.375 s
  Decreasing sparse matrix size:
   Tolerance:   9.9999998245167004E-014
   Hamiltonian matrix
  | Array has    35422 nonzero elements out of    39615 elements
  | Sparsity factor is 0.106
   Overlap matrix
  | Array has    31976 nonzero elements out of    39615 elements
  | Sparsity factor is 0.193
  New size of hamiltonian matrix:       35679

  Updating Kohn-Sham eigenvalues, eigenvectors, occupation numbers, and Fermi level.
  Solving generalized eigenproblem
  Transforming overlap matrix and checking for singularities.
  Overlap matrix is nonsingular at first k-point:
  | Lowest eigenvalue:  0.605332E-02

  Obtaining occupation numbers and chemical potential using ELSI.
  | Chemical potential (Fermi level):    -5.77788515eV
  Writing Kohn-Sham eigenvalues.
  K-point:       1 at    0.000000    0.000000    0.000000 (in units of recip. lattice)

  State    Occupation    Eigenvalue [Ha]    Eigenvalue [eV]
      1       2.00000         -65.508398        -1782.57422
      2       2.00000         -65.508398        -1782.57422
      3       2.00000          -5.108746         -139.01605
      4       2.00000          -5.108555         -139.01085
      5       2.00000          -3.523016          -95.86614
      6       2.00000          -3.523016          -95.86614
      7       2.00000          -3.523016          -95.86614
      8       2.00000          -3.522578          -95.85421
      9       2.00000          -3.522578          -95.85421
     10       2.00000          -3.522578          -95.85421
     11       2.00000          -0.639418          -17.39944
     12       2.00000          -0.226374           -6.15995
     13       2.00000          -0.226374           -6.15995
     14       2.00000          -0.226374           -6.15995
     15       0.00000          -0.142596           -3.88024
     16       0.00000          -0.126171           -3.43329
     17       0.00000          -0.126171           -3.43329
     18       0.00000          -0.126171           -3.43329
     19       0.00000           0.070875            1.92861
     20       0.00000           0.070875            1.92861

  What follows are estimated values for band gap, HOMO, LUMO, etc.
  | They are estimated on a discrete k-point grid and not necessarily exact.
  | For converged numbers, create a DOS and/or band structure plot on a denser k-grid.

  Highest occupied state (VBM) at     -6.15995439 eV (relative to internal zero)
  | Occupation number:      2.00000000
  | K-point:       1 at    0.000000    0.000000    0.000000 (in units of recip. lattice)

  Lowest unoccupied state (CBM) at    -5.20279273 eV (relative to internal zero)
  | Occupation number:      0.00000000
  | K-point:     105 at    0.000000    0.562500    0.562500 (in units of recip. lattice)

  ESTIMATED overall HOMO-LUMO gap:      0.95716166 eV between HOMO at k-point 1 and LUMO at k-point 105
  | This appears to be an indirect band gap.
  | Smallest direct gap :      2.27971247 eV for k_point 1 at    0.000000    0.562500    0.562500 (in units of recip. lattice)
  The gap value is above 0.2 eV. Unless you are using a very sparse k-point grid,
  this system is most likely an insulator or a semiconductor.
  Calculating total energy contributions from superposition of free atom densities.

  Total energy components:
  | Sum of eigenvalues            :        -327.94279399 Ha       -8923.77746118 eV
  | XC energy correction          :         -39.61303775 Ha       -1077.92560144 eV
  | XC potential correction       :          52.33561275 Ha        1424.12448160 eV
  | Free-atom electrostatic energy:        -263.51748770 Ha       -7170.67568031 eV
  | Hartree energy correction     :          -0.00000000 Ha          -0.00000000 eV
  | Entropy correction            :          -0.00000000 Ha          -0.00000000 eV
  | ---------------------------
  | Total energy                  :        -578.73770669 Ha      -15748.25426133 eV
  | Total energy, T -> 0          :        -578.73770669 Ha      -15748.25426133 eV  <-- do not rely on this value for anything but (periodic) metals
  | Electronic free energy        :        -578.73770669 Ha      -15748.25426133 eV

  Derived energy quantities:
  | Kinetic energy                :         579.58467384 Ha       15771.30141027 eV
  | Electrostatic energy          :       -1118.70934278 Ha      -30441.63007016 eV
  | Energy correction for multipole
  | error in Hartree potential    :           0.00000000 Ha           0.00000000 eV
  | Sum of eigenvalues per atom                           :       -4461.88873059 eV
  | Total energy (T->0) per atom                          :       -7874.12713067 eV  <-- do not rely on this value for anything but (periodic) metals
  | Electronic free energy per atom                       :       -7874.12713067 eV
  Initialize hartree_potential_storage
  Max. number of atoms included in rho_multipole:            2

  End scf initialization - timings             :  max(cpu_time)    wall_clock(cpu1)
  | Time for scf. initialization               :        3.502 s           3.502 s
  | Boundary condition initialization          :        0.049 s           0.049 s
  | Integration                                :        0.898 s           0.898 s
  | Solution of K.-S. eqns.                    :        2.362 s           2.361 s
  | Grid partitioning                          :        0.028 s           0.029 s
  | Preloading free-atom quantities on grid    :        0.001 s           0.001 s
  | Free-atom superposition energy             :        0.027 s           0.027 s
  | Total energy evaluation                    :        0.000 s           0.000 s

  Partial memory accounting:
  | Current value for overall tracked memory usage on task 0  :          24.353 MB
  | Peak value for overall tracked memory usage on task 0     :          26.858 MB after allocating wave
  | Largest tracked array allocation on task 0 so far         :          23.639 MB  when allocating +KS_eigenvector_complex
  Note:  These values currently only include a subset of arrays which are explicitly tracked.
  The "true" memory usage will be greater.
------------------------------------------------------------

------------------------------------------------------------
          Begin self-consistency iteration #    1

  Date     :  20190513, Time     :  134937.289
------------------------------------------------------------
  Evaluating new KS density using the density matrix
  Evaluating density matrix
  Time summed over all CPUs for getting density from density matrix: real work        0.845 s, elapsed        0.845 s
  Integration grid: deviation in total charge (<rho> - N_e) =  -1.847411E-13
  Pulay mixing of updated and previous charge densities.

  Evaluating partitioned Hartree potential by multipole expansion.
  | Analytical far-field extrapolation by fixed multipoles:
  | Hartree multipole sum: apparent total charge =   0.423800E-02
  Summing up the Hartree potential.
  | Estimated reciprocal-space cutoff momentum G_max:         2.31730601 bohr^-1 .
  | Reciprocal lattice points for long-range Hartree potential:      58
  Time summed over all CPUs for potential: real work        0.352 s, elapsed        0.352 s
  | RMS charge density error from multipole expansion :   0.441577E-03
  | Average real-space part of the electrostatic potential :     -0.00326735 eV

  Integrating Hamiltonian matrix: batch-based integration.
  Time summed over all CPUs for integration: real work        0.512 s, elapsed        0.512 s

  Updating Kohn-Sham eigenvalues, eigenvectors, occupation numbers, and Fermi level.
  Solving generalized eigenproblem

  Obtaining occupation numbers and chemical potential using ELSI.
  | Chemical potential (Fermi level):    -5.76524347eV
  Writing Kohn-Sham eigenvalues.
  K-point:       1 at    0.000000    0.000000    0.000000 (in units of recip. lattice)

  State    Occupation    Eigenvalue [Ha]    Eigenvalue [eV]
      1       2.00000         -65.511200        -1782.65045
      2       2.00000         -65.511200        -1782.65045
      3       2.00000          -5.109323         -139.03174
      4       2.00000          -5.109132         -139.02655
      5       2.00000          -3.523671          -95.88396
      6       2.00000          -3.523671          -95.88396
      7       2.00000          -3.523671          -95.88396
      8       2.00000          -3.523234          -95.87206
      9       2.00000          -3.523234          -95.87206
     10       2.00000          -3.523234          -95.87206
     11       2.00000          -0.638923          -17.38598
     12       2.00000          -0.225691           -6.14137
     13       2.00000          -0.225691           -6.14137
     14       2.00000          -0.225691           -6.14137
     15       0.00000          -0.142010           -3.86428
     16       0.00000          -0.125817           -3.42366
     17       0.00000          -0.125817           -3.42366
     18       0.00000          -0.125817           -3.42366
     19       0.00000           0.071302            1.94023
     20       0.00000           0.071302            1.94023

  What follows are estimated values for band gap, HOMO, LUMO, etc.
  | They are estimated on a discrete k-point grid and not necessarily exact.
  | For converged numbers, create a DOS and/or band structure plot on a denser k-grid.

  Highest occupied state (VBM) at     -6.14136721 eV (relative to internal zero)
  | Occupation number:      2.00000000
  | K-point:       1 at    0.000000    0.000000    0.000000 (in units of recip. lattice)

  Lowest unoccupied state (CBM) at    -5.19678136 eV (relative to internal zero)
  | Occupation number:      0.00000000
  | K-point:    1288 at    0.437500    0.000000    0.437500 (in units of recip. lattice)

  ESTIMATED overall HOMO-LUMO gap:      0.94458584 eV between HOMO at k-point 1 and LUMO at k-point 1288
  | This appears to be an indirect band gap.
  | Smallest direct gap :      2.27709128 eV for k_point 1 at    0.437500    0.000000    0.437500 (in units of recip. lattice)
  The gap value is above 0.2 eV. Unless you are using a very sparse k-point grid,
  this system is most likely an insulator or a semiconductor.

  Total energy components:
  | Sum of eigenvalues            :        -327.95990315 Ha       -8924.24302514 eV
  | XC energy correction          :         -39.61505594 Ha       -1077.98051912 eV
  | XC potential correction       :          52.33827061 Ha        1424.19680559 eV
  | Free-atom electrostatic energy:        -263.51748770 Ha       -7170.67568031 eV
  | Hartree energy correction     :           0.01693117 Ha           0.46072070 eV
  | Entropy correction            :          -0.00000000 Ha          -0.00000000 eV
  | ---------------------------
  | Total energy                  :        -578.73724500 Ha      -15748.24169827 eV
  | Total energy, T -> 0          :        -578.73724500 Ha      -15748.24169827 eV  <-- do not rely on this value for anything but (periodic) metals
  | Electronic free energy        :        -578.73724500 Ha      -15748.24169827 eV

  Derived energy quantities:
  | Kinetic energy                :         579.46669105 Ha       15768.09093502 eV
  | Electrostatic energy          :       -1118.58888011 Ha      -30438.35211417 eV
  | Energy correction for multipole
  | error in Hartree potential    :           0.00055414 Ha           0.01507900 eV
  | Sum of eigenvalues per atom                           :       -4462.12151257 eV
  | Total energy (T->0) per atom                          :       -7874.12084914 eV  <-- do not rely on this value for anything but (periodic) metals
  | Electronic free energy per atom                       :       -7874.12084914 eV

  Self-consistency convergence accuracy:
  | Change of charge density      :  0.9599E-01
  | Change of sum of eigenvalues  : -0.4656E+00 eV
  | Change of total energy        :  0.1256E-01 eV

  End self-consistency iteration #     1       :  max(cpu_time)    wall_clock(cpu1)
  | Time for this iteration                    :        3.106 s           3.106 s
  | Charge density update                      :        0.991 s           0.991 s
  | Density mixing & preconditioning           :        0.046 s           0.045 s
  | Hartree multipole update                   :        0.001 s           0.001 s
  | Hartree multipole summation                :        0.355 s           0.356 s
  | Integration                                :        0.513 s           0.512 s
  | Solution of K.-S. eqns.                    :        1.199 s           1.199 s
  | Total energy evaluation                    :        0.000 s           0.000 s

  Partial memory accounting:
  | Current value for overall tracked memory usage on task 0  :          24.353 MB
  | Peak value for overall tracked memory usage on task 0     :          26.858 MB after allocating wave
  | Largest tracked array allocation on task 0 so far         :          23.639 MB  when allocating +KS_eigenvector_complex
  Note:  These values currently only include a subset of arrays which are explicitly tracked.
  The "true" memory usage will be greater.
------------------------------------------------------------

------------------------------------------------------------
          Begin self-consistency iteration #    2

  Date     :  20190513, Time     :  134940.395
------------------------------------------------------------
  Evaluating new KS density using the density matrix
  Evaluating density matrix
  Time summed over all CPUs for getting density from density matrix: real work        0.858 s, elapsed        0.858 s
  Integration grid: deviation in total charge (<rho> - N_e) =   6.039613E-14
  Pulay mixing of updated and previous charge densities.

  Evaluating partitioned Hartree potential by multipole expansion.
  | Analytical far-field extrapolation by fixed multipoles:
  | Hartree multipole sum: apparent total charge =   0.850551E-02
  Summing up the Hartree potential.
  Time summed over all CPUs for potential: real work        0.483 s, elapsed        0.483 s
  | RMS charge density error from multipole expansion :   0.866011E-02
  | Average real-space part of the electrostatic potential :      0.25788060 eV

  Integrating Hamiltonian matrix: batch-based integration.
  Time summed over all CPUs for integration: real work        0.510 s, elapsed        0.510 s

  Updating Kohn-Sham eigenvalues, eigenvectors, occupation numbers, and Fermi level.
  Solving generalized eigenproblem

  Obtaining occupation numbers and chemical potential using ELSI.
  | Chemical potential (Fermi level):    -5.40587052eV
  What follows are estimated values for band gap, HOMO, LUMO, etc.
  | They are estimated on a discrete k-point grid and not necessarily exact.
  | For converged numbers, create a DOS and/or band structure plot on a denser k-grid.

  Highest occupied state (VBM) at     -5.65670270 eV (relative to internal zero)
  | Occupation number:      2.00000000
  | K-point:       1 at    0.000000    0.000000    0.000000 (in units of recip. lattice)

  Lowest unoccupied state (CBM) at    -5.04799010 eV (relative to internal zero)
  | Occupation number:      0.00000000
  | K-point:     105 at    0.000000    0.562500    0.562500 (in units of recip. lattice)

  ESTIMATED overall HOMO-LUMO gap:      0.60871260 eV between HOMO at k-point 1 and LUMO at k-point 105
  | This appears to be an indirect band gap.
  | Smallest direct gap :      2.22974844 eV for k_point 8 at    0.000000    0.562500    0.562500 (in units of recip. lattice)
  The gap value is above 0.2 eV. Unless you are using a very sparse k-point grid,
  this system is most likely an insulator or a semiconductor.

  Checking to see if s.c.f. parameters should be adjusted.
  The system likely has a gap. Increased the default Pulay mixing parameter (charge_mix_param). Value:   0.200000 .
  Kept the default occupation width. Value:   0.010000 eV.

  Total energy components:
  | Sum of eigenvalues            :        -327.33655588 Ha       -8907.28088303 eV
  | XC energy correction          :         -39.66257069 Ha       -1079.27346141 eV
  | XC potential correction       :          52.40083949 Ha        1425.89939152 eV
  | Free-atom electrostatic energy:        -263.51748770 Ha       -7170.67568031 eV
  | Hartree energy correction     :          -0.61728402 Ha         -16.79715278 eV
  | Entropy correction            :          -0.00000000 Ha          -0.00000000 eV
  | ---------------------------
  | Total energy                  :        -578.73305881 Ha      -15748.12778601 eV
  | Total energy, T -> 0          :        -578.73305881 Ha      -15748.12778601 eV  <-- do not rely on this value for anything but (periodic) metals
  | Electronic free energy        :        -578.73305881 Ha      -15748.12778601 eV

  Derived energy quantities:
  | Kinetic energy                :         579.54131639 Ha       15770.12159380 eV
  | Electrostatic energy          :       -1118.61180450 Ha      -30438.97591840 eV
  | Energy correction for multipole
  | error in Hartree potential    :           0.01085679 Ha           0.29542835 eV
  | Sum of eigenvalues per atom                           :       -4453.64044151 eV
  | Total energy (T->0) per atom                          :       -7874.06389300 eV  <-- do not rely on this value for anything but (periodic) metals
  | Electronic free energy per atom                       :       -7874.06389300 eV

  Self-consistency convergence accuracy:
  | Change of charge density      :  0.9118E-01
  | Change of sum of eigenvalues  :  0.1696E+02 eV
  | Change of total energy        :  0.1139E+00 eV

  End self-consistency iteration #     2       :  max(cpu_time)    wall_clock(cpu1)
  | Time for this iteration                    :        3.308 s           3.308 s
  | Charge density update                      :        1.005 s           1.005 s
  | Density mixing & preconditioning           :        0.045 s           0.044 s
  | Hartree multipole update                   :        0.001 s           0.000 s
  | Hartree multipole summation                :        0.486 s           0.487 s
  | Integration                                :        0.510 s           0.510 s
  | Solution of K.-S. eqns.                    :        1.261 s           1.261 s
  | Total energy evaluation                    :        0.000 s           0.000 s

  Partial memory accounting:
  | Current value for overall tracked memory usage on task 0  :          24.354 MB
  | Peak value for overall tracked memory usage on task 0     :          26.858 MB after allocating wave
  | Largest tracked array allocation on task 0 so far         :          23.639 MB  when allocating +KS_eigenvector_complex
  Note:  These values currently only include a subset of arrays which are explicitly tracked.
  The "true" memory usage will be greater.
------------------------------------------------------------

------------------------------------------------------------
          Begin self-consistency iteration #    3

  Date     :  20190513, Time     :  134943.703
------------------------------------------------------------
  Evaluating new KS density using the density matrix
  Evaluating density matrix
  Time summed over all CPUs for getting density from density matrix: real work        0.905 s, elapsed        0.905 s
  Integration grid: deviation in total charge (<rho> - N_e) =   2.842171E-14
  Pulay mixing of updated and previous charge densities.

  Evaluating partitioned Hartree potential by multipole expansion.
  | Analytical far-field extrapolation by fixed multipoles:
  | Hartree multipole sum: apparent total charge =   0.797164E-02
  Summing up the Hartree potential.
  Time summed over all CPUs for potential: real work        0.458 s, elapsed        0.458 s
  | RMS charge density error from multipole expansion :   0.863745E-02
  | Average real-space part of the electrostatic potential :      0.25112967 eV

  Integrating Hamiltonian matrix: batch-based integration.
  Time summed over all CPUs for integration: real work        0.552 s, elapsed        0.552 s

  Updating Kohn-Sham eigenvalues, eigenvectors, occupation numbers, and Fermi level.
  Solving generalized eigenproblem

  Obtaining occupation numbers and chemical potential using ELSI.
  | Chemical potential (Fermi level):    -5.41734668eV
  What follows are estimated values for band gap, HOMO, LUMO, etc.
  | They are estimated on a discrete k-point grid and not necessarily exact.
  | For converged numbers, create a DOS and/or band structure plot on a denser k-grid.

  Highest occupied state (VBM) at     -5.67039989 eV (relative to internal zero)
  | Occupation number:      2.00000000
  | K-point:       1 at    0.000000    0.000000    0.000000 (in units of recip. lattice)

  Lowest unoccupied state (CBM) at    -5.05176478 eV (relative to internal zero)
  | Occupation number:      0.00000000
  | K-point:     105 at    0.000000    0.562500    0.562500 (in units of recip. lattice)

  ESTIMATED overall HOMO-LUMO gap:      0.61863511 eV between HOMO at k-point 1 and LUMO at k-point 105
  | This appears to be an indirect band gap.
  | Smallest direct gap :      2.23266552 eV for k_point 1574 at    0.000000    0.562500    0.562500 (in units of recip. lattice)
  The gap value is above 0.2 eV. Unless you are using a very sparse k-point grid,
  this system is most likely an insulator or a semiconductor.

  Total energy components:
  | Sum of eigenvalues            :        -327.36576492 Ha       -8908.07570146 eV
  | XC energy correction          :         -39.66103704 Ha       -1079.23172850 eV
  | XC potential correction       :          52.39881797 Ha        1425.84438325 eV
  | Free-atom electrostatic energy:        -263.51748770 Ha       -7170.67568031 eV
  | Hartree energy correction     :          -0.58750723 Ha         -15.98688520 eV
  | Entropy correction            :          -0.00000000 Ha          -0.00000000 eV
  | ---------------------------
  | Total energy                  :        -578.73297892 Ha      -15748.12561222 eV
  | Total energy, T -> 0          :        -578.73297892 Ha      -15748.12561222 eV  <-- do not rely on this value for anything but (periodic) metals
  | Electronic free energy        :        -578.73297892 Ha      -15748.12561222 eV

  Derived energy quantities:
  | Kinetic energy                :         579.53317113 Ha       15769.89995006 eV
  | Electrostatic energy          :       -1118.60511301 Ha      -30438.79383379 eV
  | Energy correction for multipole
  | error in Hartree potential    :           0.01085288 Ha           0.29532179 eV
  | Sum of eigenvalues per atom                           :       -4454.03785073 eV
  | Total energy (T->0) per atom                          :       -7874.06280611 eV  <-- do not rely on this value for anything but (periodic) metals
  | Electronic free energy per atom                       :       -7874.06280611 eV

  Self-consistency convergence accuracy:
  | Change of charge density      :  0.1468E-01
  | Change of sum of eigenvalues  : -0.7948E+00 eV
  | Change of total energy        :  0.2174E-02 eV

  End self-consistency iteration #     3       :  max(cpu_time)    wall_clock(cpu1)
  | Time for this iteration                    :        3.315 s           3.315 s
  | Charge density update                      :        1.050 s           1.051 s
  | Density mixing & preconditioning           :        0.049 s           0.049 s
  | Hartree multipole update                   :        0.001 s           0.001 s
  | Hartree multipole summation                :        0.462 s           0.462 s
  | Integration                                :        0.552 s           0.552 s
  | Solution of K.-S. eqns.                    :        1.200 s           1.200 s
  | Total energy evaluation                    :        0.001 s           0.000 s

  Partial memory accounting:
  | Current value for overall tracked memory usage on task 0  :          24.354 MB
  | Peak value for overall tracked memory usage on task 0     :          26.858 MB after allocating wave
  | Largest tracked array allocation on task 0 so far         :          23.639 MB  when allocating +KS_eigenvector_complex
  Note:  These values currently only include a subset of arrays which are explicitly tracked.
  The "true" memory usage will be greater.
------------------------------------------------------------

------------------------------------------------------------
          Begin self-consistency iteration #    4

  Date     :  20190513, Time     :  134947.019
------------------------------------------------------------
  Evaluating new KS density using the density matrix
  Evaluating density matrix
  Time summed over all CPUs for getting density from density matrix: real work        0.847 s, elapsed        0.847 s
  Integration grid: deviation in total charge (<rho> - N_e) =   1.030287E-13
  Pulay mixing of updated and previous charge densities.

  Evaluating partitioned Hartree potential by multipole expansion.
  | Analytical far-field extrapolation by fixed multipoles:
  | Hartree multipole sum: apparent total charge =   0.505224E-02
  Summing up the Hartree potential.
  Time summed over all CPUs for potential: real work        0.428 s, elapsed        0.428 s
  | RMS charge density error from multipole expansion :   0.916248E-02
  | Average real-space part of the electrostatic potential :      0.23276247 eV

  Integrating Hamiltonian matrix: batch-based integration.
  Time summed over all CPUs for integration: real work        0.513 s, elapsed        0.513 s

  Updating Kohn-Sham eigenvalues, eigenvectors, occupation numbers, and Fermi level.
  Solving generalized eigenproblem

  Obtaining occupation numbers and chemical potential using ELSI.
  | Chemical potential (Fermi level):    -5.45145626eV
  What follows are estimated values for band gap, HOMO, LUMO, etc.
  | They are estimated on a discrete k-point grid and not necessarily exact.
  | For converged numbers, create a DOS and/or band structure plot on a denser k-grid.

  Highest occupied state (VBM) at     -5.71007579 eV (relative to internal zero)
  | Occupation number:      2.00000000
  | K-point:       1 at    0.000000    0.000000    0.000000 (in units of recip. lattice)

  Lowest unoccupied state (CBM) at    -5.06028095 eV (relative to internal zero)
  | Occupation number:      0.00000000
  | K-point:     105 at    0.000000    0.562500    0.562500 (in units of recip. lattice)

  ESTIMATED overall HOMO-LUMO gap:      0.64979483 eV between HOMO at k-point 1 and LUMO at k-point 105
  | This appears to be an indirect band gap.
  | Smallest direct gap :      2.23991435 eV for k_point 8 at    0.000000    0.562500    0.562500 (in units of recip. lattice)
  The gap value is above 0.2 eV. Unless you are using a very sparse k-point grid,
  this system is most likely an insulator or a semiconductor.

  Total energy components:
  | Sum of eigenvalues            :        -327.48896400 Ha       -8911.42811892 eV
  | XC energy correction          :         -39.65635713 Ha       -1079.10438173 eV
  | XC potential correction       :          52.39263955 Ha        1425.67625988 eV
  | Free-atom electrostatic energy:        -263.51748770 Ha       -7170.67568031 eV
  | Hartree energy correction     :          -0.46255357 Ha         -12.58672299 eV
  | Entropy correction            :          -0.00000000 Ha          -0.00000000 eV
  | ---------------------------
  | Total energy                  :        -578.73272285 Ha      -15748.11864408 eV
  | Total energy, T -> 0          :        -578.73272285 Ha      -15748.11864408 eV  <-- do not rely on this value for anything but (periodic) metals
  | Electronic free energy        :        -578.73272285 Ha      -15748.11864408 eV

  Derived energy quantities:
  | Kinetic energy                :         579.48814600 Ha       15768.67475408 eV
  | Electrostatic energy          :       -1118.56451172 Ha      -30437.68901643 eV
  | Energy correction for multipole
  | error in Hartree potential    :           0.01163649 Ha           0.31664493 eV
  | Sum of eigenvalues per atom                           :       -4455.71405946 eV
  | Total energy (T->0) per atom                          :       -7874.05932204 eV  <-- do not rely on this value for anything but (periodic) metals
  | Electronic free energy per atom                       :       -7874.05932204 eV

  Self-consistency convergence accuracy:
  | Change of charge density      :  0.1296E-01
  | Change of sum of eigenvalues  : -0.3352E+01 eV
  | Change of total energy        :  0.6968E-02 eV

  End self-consistency iteration #     4       :  max(cpu_time)    wall_clock(cpu1)
  | Time for this iteration                    :        3.176 s           3.176 s
  | Charge density update                      :        0.990 s           0.990 s
  | Density mixing & preconditioning           :        0.044 s           0.043 s
  | Hartree multipole update                   :        0.001 s           0.001 s
  | Hartree multipole summation                :        0.431 s           0.432 s
  | Integration                                :        0.513 s           0.513 s
  | Solution of K.-S. eqns.                    :        1.196 s           1.196 s
  | Total energy evaluation                    :        0.000 s           0.001 s

  Partial memory accounting:
  | Current value for overall tracked memory usage on task 0  :          24.355 MB
  | Peak value for overall tracked memory usage on task 0     :          26.858 MB after allocating wave
  | Largest tracked array allocation on task 0 so far         :          23.639 MB  when allocating +KS_eigenvector_complex
  Note:  These values currently only include a subset of arrays which are explicitly tracked.
  The "true" memory usage will be greater.
------------------------------------------------------------

------------------------------------------------------------
          Begin self-consistency iteration #    5

  Date     :  20190513, Time     :  134950.195
------------------------------------------------------------
  Evaluating new KS density using the density matrix
  Evaluating density matrix
  Time summed over all CPUs for getting density from density matrix: real work        0.850 s, elapsed        0.850 s
  Integration grid: deviation in total charge (<rho> - N_e) =  -1.065814E-13
  Pulay mixing of updated and previous charge densities.

  Evaluating partitioned Hartree potential by multipole expansion.
  | Analytical far-field extrapolation by fixed multipoles:
  | Hartree multipole sum: apparent total charge =   0.404021E-02
  Summing up the Hartree potential.
  Time summed over all CPUs for potential: real work        0.432 s, elapsed        0.432 s
  | RMS charge density error from multipole expansion :   0.914791E-02
  | Average real-space part of the electrostatic potential :      0.23068497 eV

  Integrating Hamiltonian matrix: batch-based integration.
  Time summed over all CPUs for integration: real work        0.515 s, elapsed        0.515 s

  Updating Kohn-Sham eigenvalues, eigenvectors, occupation numbers, and Fermi level.
  Solving generalized eigenproblem

  Obtaining occupation numbers and chemical potential using ELSI.
  | Chemical potential (Fermi level):    -5.45731084eV
  What follows are estimated values for band gap, HOMO, LUMO, etc.
  | They are estimated on a discrete k-point grid and not necessarily exact.
  | For converged numbers, create a DOS and/or band structure plot on a denser k-grid.

  Highest occupied state (VBM) at     -5.71688099 eV (relative to internal zero)
  | Occupation number:      2.00000000
  | K-point:       1 at    0.000000    0.000000    0.000000 (in units of recip. lattice)

  Lowest unoccupied state (CBM) at    -5.06285676 eV (relative to internal zero)
  | Occupation number:      0.00000000
  | K-point:     105 at    0.000000    0.562500    0.562500 (in units of recip. lattice)

  ESTIMATED overall HOMO-LUMO gap:      0.65402423 eV between HOMO at k-point 1 and LUMO at k-point 105
  | This appears to be an indirect band gap.
  | Smallest direct gap :      2.24033717 eV for k_point 1574 at    0.000000    0.562500    0.562500 (in units of recip. lattice)
  The gap value is above 0.2 eV. Unless you are using a very sparse k-point grid,
  this system is most likely an insulator or a semiconductor.

  Total energy components:
  | Sum of eigenvalues            :        -327.51968286 Ha       -8912.26402150 eV
  | XC energy correction          :         -39.65401288 Ha       -1079.04059139 eV
  | XC potential correction       :          52.38953185 Ha        1425.59169497 eV
  | Free-atom electrostatic energy:        -263.51748770 Ha       -7170.67568031 eV
  | Hartree energy correction     :          -0.43104602 Ha         -11.72935903 eV
  | Entropy correction            :          -0.00000000 Ha          -0.00000000 eV
  | ---------------------------
  | Total energy                  :        -578.73269761 Ha      -15748.11795727 eV
  | Total energy, T -> 0          :        -578.73269761 Ha      -15748.11795727 eV  <-- do not rely on this value for anything but (periodic) metals
  | Electronic free energy        :        -578.73269761 Ha      -15748.11795727 eV

  Derived energy quantities:
  | Kinetic energy                :         579.46846141 Ha       15768.13910898 eV
  | Electrostatic energy          :       -1118.54714614 Ha      -30437.21647486 eV
  | Energy correction for multipole
  | error in Hartree potential    :           0.01159238 Ha           0.31544481 eV
  | Sum of eigenvalues per atom                           :       -4456.13201075 eV
  | Total energy (T->0) per atom                          :       -7874.05897863 eV  <-- do not rely on this value for anything but (periodic) metals
  | Electronic free energy per atom                       :       -7874.05897863 eV

  Self-consistency convergence accuracy:
  | Change of charge density      :  0.6945E-02
  | Change of sum of eigenvalues  : -0.8359E+00 eV
  | Change of total energy        :  0.6868E-03 eV

  End self-consistency iteration #     5       :  max(cpu_time)    wall_clock(cpu1)
  | Time for this iteration                    :        3.185 s           3.185 s
  | Charge density update                      :        0.997 s           0.997 s
  | Density mixing & preconditioning           :        0.044 s           0.043 s
  | Hartree multipole update                   :        0.001 s           0.001 s
  | Hartree multipole summation                :        0.436 s           0.436 s
  | Integration                                :        0.515 s           0.515 s
  | Solution of K.-S. eqns.                    :        1.192 s           1.192 s
  | Total energy evaluation                    :        0.000 s           0.001 s

  Partial memory accounting:
  | Current value for overall tracked memory usage on task 0  :          24.355 MB
  | Peak value for overall tracked memory usage on task 0     :          26.858 MB after allocating wave
  | Largest tracked array allocation on task 0 so far         :          23.639 MB  when allocating +KS_eigenvector_complex
  Note:  These values currently only include a subset of arrays which are explicitly tracked.
  The "true" memory usage will be greater.
------------------------------------------------------------

------------------------------------------------------------
          Begin self-consistency iteration #    6

  Date     :  20190513, Time     :  134953.380
------------------------------------------------------------
  Evaluating new KS density using the density matrix
  Evaluating density matrix
  Time summed over all CPUs for getting density from density matrix: real work        0.847 s, elapsed        0.847 s
  Integration grid: deviation in total charge (<rho> - N_e) =   2.131628E-14
  Pulay mixing of updated and previous charge densities.

  Evaluating partitioned Hartree potential by multipole expansion.
  | Analytical far-field extrapolation by fixed multipoles:
  | Hartree multipole sum: apparent total charge =   0.400107E-02
  Summing up the Hartree potential.
  Time summed over all CPUs for potential: real work        0.433 s, elapsed        0.433 s
  | RMS charge density error from multipole expansion :   0.916184E-02
  | Average real-space part of the electrostatic potential :      0.23033936 eV

  Integrating Hamiltonian matrix: batch-based integration.
  Time summed over all CPUs for integration: real work        0.509 s, elapsed        0.509 s

  Updating Kohn-Sham eigenvalues, eigenvectors, occupation numbers, and Fermi level.
  Solving generalized eigenproblem

  Obtaining occupation numbers and chemical potential using ELSI.
  | Chemical potential (Fermi level):    -5.45750440eV
  What follows are estimated values for band gap, HOMO, LUMO, etc.
  | They are estimated on a discrete k-point grid and not necessarily exact.
  | For converged numbers, create a DOS and/or band structure plot on a denser k-grid.

  Highest occupied state (VBM) at     -5.71708294 eV (relative to internal zero)
  | Occupation number:      2.00000000
  | K-point:       1 at    0.000000    0.000000    0.000000 (in units of recip. lattice)

  Lowest unoccupied state (CBM) at    -5.06294431 eV (relative to internal zero)
  | Occupation number:      0.00000000
  | K-point:     105 at    0.000000    0.562500    0.562500 (in units of recip. lattice)

  ESTIMATED overall HOMO-LUMO gap:      0.65413863 eV between HOMO at k-point 1 and LUMO at k-point 105
  | This appears to be an indirect band gap.
  | Smallest direct gap :      2.24018805 eV for k_point 1574 at    0.000000    0.562500    0.562500 (in units of recip. lattice)
  The gap value is above 0.2 eV. Unless you are using a very sparse k-point grid,
  this system is most likely an insulator or a semiconductor.

  Total energy components:
  | Sum of eigenvalues            :        -327.52450518 Ha       -8912.39524375 eV
  | XC energy correction          :         -39.65353880 Ha       -1079.02769094 eV
  | XC potential correction       :          52.38890278 Ha        1425.57457719 eV
  | Free-atom electrostatic energy:        -263.51748770 Ha       -7170.67568031 eV
  | Hartree energy correction     :          -0.42606582 Ha         -11.59384096 eV
  | Entropy correction            :          -0.00000000 Ha          -0.00000000 eV
  | ---------------------------
  | Total energy                  :        -578.73269472 Ha      -15748.11787877 eV
  | Total energy, T -> 0          :        -578.73269472 Ha      -15748.11787877 eV  <-- do not rely on this value for anything but (periodic) metals
  | Electronic free energy        :        -578.73269472 Ha      -15748.11787877 eV

  Derived energy quantities:
  | Kinetic energy                :         579.46146060 Ha       15767.94860727 eV
  | Electrostatic energy          :       -1118.54061652 Ha      -30437.03879510 eV
  | Energy correction for multipole
  | error in Hartree potential    :           0.01160105 Ha           0.31568055 eV
  | Sum of eigenvalues per atom                           :       -4456.19762188 eV
  | Total energy (T->0) per atom                          :       -7874.05893938 eV  <-- do not rely on this value for anything but (periodic) metals
  | Electronic free energy per atom                       :       -7874.05893938 eV

  Self-consistency convergence accuracy:
  | Change of charge density      :  0.5676E-02
  | Change of sum of eigenvalues  : -0.1312E+00 eV
  | Change of total energy        :  0.7850E-04 eV

  End self-consistency iteration #     6       :  max(cpu_time)    wall_clock(cpu1)
  | Time for this iteration                    :        3.174 s           3.174 s
  | Charge density update                      :        0.992 s           0.992 s
  | Density mixing & preconditioning           :        0.044 s           0.044 s
  | Hartree multipole update                   :        0.001 s           0.001 s
  | Hartree multipole summation                :        0.436 s           0.436 s
  | Integration                                :        0.509 s           0.509 s
  | Solution of K.-S. eqns.                    :        1.191 s           1.191 s
  | Total energy evaluation                    :        0.001 s           0.001 s

  Partial memory accounting:
  | Current value for overall tracked memory usage on task 0  :          24.355 MB
  | Peak value for overall tracked memory usage on task 0     :          26.858 MB after allocating wave
  | Largest tracked array allocation on task 0 so far         :          23.639 MB  when allocating +KS_eigenvector_complex
  Note:  These values currently only include a subset of arrays which are explicitly tracked.
  The "true" memory usage will be greater.
------------------------------------------------------------

------------------------------------------------------------
          Begin self-consistency iteration #    7

  Date     :  20190513, Time     :  134956.554
------------------------------------------------------------
  Evaluating new KS density using the density matrix
  Evaluating density matrix
  Time summed over all CPUs for getting density from density matrix: real work        0.844 s, elapsed        0.844 s
  Integration grid: deviation in total charge (<rho> - N_e) =  -4.263256E-14
  Pulay mixing of updated and previous charge densities.

  Evaluating partitioned Hartree potential by multipole expansion.
  | Analytical far-field extrapolation by fixed multipoles:
  | Hartree multipole sum: apparent total charge =   0.395216E-02
  Summing up the Hartree potential.
  Time summed over all CPUs for potential: real work        0.428 s, elapsed        0.428 s
  | RMS charge density error from multipole expansion :   0.913977E-02
  | Average real-space part of the electrostatic potential :      0.22752609 eV

  Integrating Hamiltonian matrix: batch-based integration.
  Time summed over all CPUs for integration: real work        0.511 s, elapsed        0.511 s

  Updating Kohn-Sham eigenvalues, eigenvectors, occupation numbers, and Fermi level.
  Solving generalized eigenproblem

  Obtaining occupation numbers and chemical potential using ELSI.
  | Chemical potential (Fermi level):    -5.46069536eV
  What follows are estimated values for band gap, HOMO, LUMO, etc.
  | They are estimated on a discrete k-point grid and not necessarily exact.
  | For converged numbers, create a DOS and/or band structure plot on a denser k-grid.

  Highest occupied state (VBM) at     -5.72094904 eV (relative to internal zero)
  | Occupation number:      2.00000000
  | K-point:       1 at    0.000000    0.000000    0.000000 (in units of recip. lattice)

  Lowest unoccupied state (CBM) at    -5.06427653 eV (relative to internal zero)
  | Occupation number:      0.00000000
  | K-point:     105 at    0.000000    0.562500    0.562500 (in units of recip. lattice)

  ESTIMATED overall HOMO-LUMO gap:      0.65667251 eV between HOMO at k-point 1 and LUMO at k-point 105
  | This appears to be an indirect band gap.
  | Smallest direct gap :      2.24068163 eV for k_point 1475 at    0.000000    0.562500    0.562500 (in units of recip. lattice)
  The gap value is above 0.2 eV. Unless you are using a very sparse k-point grid,
  this system is most likely an insulator or a semiconductor.

  Total energy components:
  | Sum of eigenvalues            :        -327.54000164 Ha       -8912.81692381 eV
  | XC energy correction          :         -39.65201077 Ha       -1078.98611114 eV
  | XC potential correction       :          52.38687946 Ha        1425.51951979 eV
  | Free-atom electrostatic energy:        -263.51748770 Ha       -7170.67568031 eV
  | Hartree energy correction     :          -0.41006447 Ha         -11.15842199 eV
  | Entropy correction            :          -0.00000000 Ha          -0.00000000 eV
  | ---------------------------
  | Total energy                  :        -578.73268512 Ha      -15748.11761747 eV
  | Total energy, T -> 0          :        -578.73268512 Ha      -15748.11761747 eV  <-- do not rely on this value for anything but (periodic) metals
  | Electronic free energy        :        -578.73268512 Ha      -15748.11761747 eV

  Derived energy quantities:
  | Kinetic energy                :         579.44360700 Ha       15767.46278616 eV
  | Electrostatic energy          :       -1118.52428135 Ha      -30436.59429249 eV
  | Energy correction for multipole
  | error in Hartree potential    :           0.01155117 Ha           0.31432341 eV
  | Sum of eigenvalues per atom                           :       -4456.40846191 eV
  | Total energy (T->0) per atom                          :       -7874.05880874 eV  <-- do not rely on this value for anything but (periodic) metals
  | Electronic free energy per atom                       :       -7874.05880874 eV

  Self-consistency convergence accuracy:
  | Change of charge density      :  0.5396E-02
  | Change of sum of eigenvalues  : -0.4217E+00 eV
  | Change of total energy        :  0.2613E-03 eV

  End self-consistency iteration #     7       :  max(cpu_time)    wall_clock(cpu1)
  | Time for this iteration                    :        3.159 s           3.159 s
  | Charge density update                      :        0.989 s           0.989 s
  | Density mixing & preconditioning           :        0.043 s           0.043 s
  | Hartree multipole update                   :        0.001 s           0.001 s
  | Hartree multipole summation                :        0.431 s           0.431 s
  | Integration                                :        0.511 s           0.511 s
  | Solution of K.-S. eqns.                    :        1.183 s           1.184 s
  | Total energy evaluation                    :        0.001 s           0.000 s

  Partial memory accounting:
  | Current value for overall tracked memory usage on task 0  :          24.355 MB
  | Peak value for overall tracked memory usage on task 0     :          26.858 MB after allocating wave
  | Largest tracked array allocation on task 0 so far         :          23.639 MB  when allocating +KS_eigenvector_complex
  Note:  These values currently only include a subset of arrays which are explicitly tracked.
  The "true" memory usage will be greater.
------------------------------------------------------------

------------------------------------------------------------
          Begin self-consistency iteration #    8

  Date     :  20190513, Time     :  134959.713
------------------------------------------------------------
  Evaluating new KS density using the density matrix
  Evaluating density matrix
  Time summed over all CPUs for getting density from density matrix: real work        0.843 s, elapsed        0.843 s
  Integration grid: deviation in total charge (<rho> - N_e) =  -3.552714E-15
  Pulay mixing of updated and previous charge densities.

  Evaluating partitioned Hartree potential by multipole expansion.
  | Analytical far-field extrapolation by fixed multipoles:
  | Hartree multipole sum: apparent total charge =   0.404133E-02
  Summing up the Hartree potential.
  Time summed over all CPUs for potential: real work        0.431 s, elapsed        0.431 s
  | RMS charge density error from multipole expansion :   0.911163E-02
  | Average real-space part of the electrostatic potential :      0.22132411 eV

  Integrating Hamiltonian matrix: batch-based integration.
  Time summed over all CPUs for integration: real work        0.513 s, elapsed        0.513 s

  Updating Kohn-Sham eigenvalues, eigenvectors, occupation numbers, and Fermi level.
  Solving generalized eigenproblem

  Obtaining occupation numbers and chemical potential using ELSI.
  | Chemical potential (Fermi level):    -5.46662822eV
  What follows are estimated values for band gap, HOMO, LUMO, etc.
  | They are estimated on a discrete k-point grid and not necessarily exact.
  | For converged numbers, create a DOS and/or band structure plot on a denser k-grid.

  Highest occupied state (VBM) at     -5.72816485 eV (relative to internal zero)
  | Occupation number:      2.00000000
  | K-point:       1 at    0.000000    0.000000    0.000000 (in units of recip. lattice)

  Lowest unoccupied state (CBM) at    -5.06666424 eV (relative to internal zero)
  | Occupation number:      0.00000000
  | K-point:     105 at    0.000000    0.562500    0.562500 (in units of recip. lattice)

  ESTIMATED overall HOMO-LUMO gap:      0.66150061 eV between HOMO at k-point 1 and LUMO at k-point 105
  | This appears to be an indirect band gap.
  | Smallest direct gap :      2.24158238 eV for k_point 8 at    0.000000    0.562500    0.562500 (in units of recip. lattice)
  The gap value is above 0.2 eV. Unless you are using a very sparse k-point grid,
  this system is most likely an insulator or a semiconductor.

  Total energy components:
  | Sum of eigenvalues            :        -327.57146732 Ha       -8913.67314853 eV
  | XC energy correction          :         -39.64885437 Ha       -1078.90022123 eV
  | XC potential correction       :          52.38270023 Ha        1425.40579723 eV
  | Free-atom electrostatic energy:        -263.51748770 Ha       -7170.67568031 eV
  | Hartree energy correction     :          -0.37755986 Ha         -10.27392648 eV
  | Entropy correction            :          -0.00000000 Ha          -0.00000000 eV
  | ---------------------------
  | Total energy                  :        -578.73266902 Ha      -15748.11717932 eV
  | Total energy, T -> 0          :        -578.73266902 Ha      -15748.11717932 eV  <-- do not rely on this value for anything but (periodic) metals
  | Electronic free energy        :        -578.73266902 Ha      -15748.11717932 eV

  Derived energy quantities:
  | Kinetic energy                :         579.40587963 Ha       15766.43617230 eV
  | Electrostatic energy          :       -1118.48969428 Ha      -30435.65313038 eV
  | Energy correction for multipole
  | error in Hartree potential    :           0.01146950 Ha           0.31210095 eV
  | Sum of eigenvalues per atom                           :       -4456.83657426 eV
  | Total energy (T->0) per atom                          :       -7874.05858966 eV  <-- do not rely on this value for anything but (periodic) metals
  | Electronic free energy per atom                       :       -7874.05858966 eV

  Self-consistency convergence accuracy:
  | Change of charge density      :  0.4481E-02
  | Change of sum of eigenvalues  : -0.8562E+00 eV
  | Change of total energy        :  0.4382E-03 eV

  End self-consistency iteration #     8       :  max(cpu_time)    wall_clock(cpu1)
  | Time for this iteration                    :        3.174 s           3.175 s
  | Charge density update                      :        0.987 s           0.988 s
  | Density mixing & preconditioning           :        0.043 s           0.043 s
  | Hartree multipole update                   :        0.001 s           0.001 s
  | Hartree multipole summation                :        0.434 s           0.434 s
  | Integration                                :        0.513 s           0.513 s
  | Solution of K.-S. eqns.                    :        1.195 s           1.195 s
  | Total energy evaluation                    :        0.000 s           0.001 s

  Partial memory accounting:
  | Current value for overall tracked memory usage on task 0  :          24.356 MB
  | Peak value for overall tracked memory usage on task 0     :          26.858 MB after allocating wave
  | Largest tracked array allocation on task 0 so far         :          23.639 MB  when allocating +KS_eigenvector_complex
  Note:  These values currently only include a subset of arrays which are explicitly tracked.
  The "true" memory usage will be greater.
------------------------------------------------------------

------------------------------------------------------------
          Begin self-consistency iteration #    9

  Date     :  20190513, Time     :  135002.888
------------------------------------------------------------
  Evaluating new KS density using the density matrix
  Evaluating density matrix
  Time summed over all CPUs for getting density from density matrix: real work        0.844 s, elapsed        0.844 s
  Integration grid: deviation in total charge (<rho> - N_e) =  -3.552714E-14
  Pulay mixing of updated and previous charge densities.

  Evaluating partitioned Hartree potential by multipole expansion.
  | Analytical far-field extrapolation by fixed multipoles:
  | Hartree multipole sum: apparent total charge =   0.405465E-02
  Summing up the Hartree potential.
  Time summed over all CPUs for potential: real work        0.428 s, elapsed        0.428 s
  | RMS charge density error from multipole expansion :   0.909765E-02
  | Average real-space part of the electrostatic potential :      0.21896081 eV

  Integrating Hamiltonian matrix: batch-based integration.
  Time summed over all CPUs for integration: real work        0.511 s, elapsed        0.511 s

  Updating Kohn-Sham eigenvalues, eigenvectors, occupation numbers, and Fermi level.
  Solving generalized eigenproblem

  Obtaining occupation numbers and chemical potential using ELSI.
  | Chemical potential (Fermi level):    -5.46901678eV
  What follows are estimated values for band gap, HOMO, LUMO, etc.
  | They are estimated on a discrete k-point grid and not necessarily exact.
  | For converged numbers, create a DOS and/or band structure plot on a denser k-grid.

  Highest occupied state (VBM) at     -5.73107121 eV (relative to internal zero)
  | Occupation number:      2.00000000
  | K-point:       1 at    0.000000    0.000000    0.000000 (in units of recip. lattice)

  Lowest unoccupied state (CBM) at    -5.06763700 eV (relative to internal zero)
  | Occupation number:      0.00000000
  | K-point:     105 at    0.000000    0.562500    0.562500 (in units of recip. lattice)

  ESTIMATED overall HOMO-LUMO gap:      0.66343421 eV between HOMO at k-point 1 and LUMO at k-point 105
  | This appears to be an indirect band gap.
  | Smallest direct gap :      2.24196390 eV for k_point 1574 at    0.000000    0.562500    0.562500 (in units of recip. lattice)
  The gap value is above 0.2 eV. Unless you are using a very sparse k-point grid,
  this system is most likely an insulator or a semiconductor.

  Total energy components:
  | Sum of eigenvalues            :        -327.58352986 Ha       -8914.00138698 eV
  | XC energy correction          :         -39.64765075 Ha       -1078.86746902 eV
  | XC potential correction       :          52.38110660 Ha        1425.36243234 eV
  | Free-atom electrostatic energy:        -263.51748770 Ha       -7170.67568031 eV
  | Hartree energy correction     :          -0.36510237 Ha          -9.93494110 eV
  | Entropy correction            :          -0.00000000 Ha          -0.00000000 eV
  | ---------------------------
  | Total energy                  :        -578.73266408 Ha      -15748.11704508 eV
  | Total energy, T -> 0          :        -578.73266408 Ha      -15748.11704508 eV  <-- do not rely on this value for anything but (periodic) metals
  | Electronic free energy        :        -578.73266408 Ha      -15748.11704508 eV

  Derived energy quantities:
[...]
  | Total energy evaluation                    :        0.000 s           0.001 s

  Partial memory accounting:
  | Current value for overall tracked memory usage on task 0  :          24.356 MB
  | Peak value for overall tracked memory usage on task 0     :          26.858 MB after allocating wave
  | Largest tracked array allocation on task 0 so far         :          23.639 MB  when allocating +KS_eigenvector_complex
  Note:  These values currently only include a subset of arrays which are explicitly tracked.
  The "true" memory usage will be greater.
------------------------------------------------------------

------------------------------------------------------------
          Begin self-consistency iteration #   10

  Date     :  20190513, Time     :  135006.057
------------------------------------------------------------
  Evaluating new KS density using the density matrix
  Evaluating density matrix
  Time summed over all CPUs for getting density from density matrix: real work        0.848 s, elapsed        0.849 s
  Integration grid: deviation in total charge (<rho> - N_e) =  -4.973799E-14
  Pulay mixing of updated and previous charge densities.

  Evaluating partitioned Hartree potential by multipole expansion.
  | Analytical far-field extrapolation by fixed multipoles:
  | Hartree multipole sum: apparent total charge =   0.405154E-02
  Summing up the Hartree potential.
  Time summed over all CPUs for potential: real work        0.433 s, elapsed        0.433 s
  | RMS charge density error from multipole expansion :   0.906976E-02
  | Average real-space part of the electrostatic potential :      0.21321952 eV

  Integrating Hamiltonian matrix: batch-based integration.
  Time summed over all CPUs for integration: real work        0.513 s, elapsed        0.513 s

  Updating Kohn-Sham eigenvalues, eigenvectors, occupation numbers, and Fermi level.
  Solving generalized eigenproblem

  Obtaining occupation numbers and chemical potential using ELSI.
  | Chemical potential (Fermi level):    -5.47481822eV
  What follows are estimated values for band gap, HOMO, LUMO, etc.
  | They are estimated on a discrete k-point grid and not necessarily exact.
  | For converged numbers, create a DOS and/or band structure plot on a denser k-grid.

  Highest occupied state (VBM) at     -5.73812073 eV (relative to internal zero)
  | Occupation number:      2.00000000
  | K-point:       1 at    0.000000    0.000000    0.000000 (in units of recip. lattice)

  Lowest unoccupied state (CBM) at    -5.07000385 eV (relative to internal zero)
  | Occupation number:      0.00000000
  | K-point:     105 at    0.000000    0.562500    0.562500 (in units of recip. lattice)

  ESTIMATED overall HOMO-LUMO gap:      0.66811687 eV between HOMO at k-point 1 and LUMO at k-point 105
  | This appears to be an indirect band gap.
  | Smallest direct gap :      2.24283843 eV for k_point 1475 at    0.000000    0.562500    0.562500 (in units of recip. lattice)
  The gap value is above 0.2 eV. Unless you are using a very sparse k-point grid,
  this system is most likely an insulator or a semiconductor.

  Total energy components:
  | Sum of eigenvalues            :        -327.61409566 Ha       -8914.83312459 eV
  | XC energy correction          :         -39.64461819 Ha       -1078.78494880 eV
  | XC potential correction       :          52.37709078 Ha        1425.25315620 eV
  | Free-atom electrostatic energy:        -263.51748770 Ha       -7170.67568031 eV
  | Hartree energy correction     :          -0.33354376 Ha          -9.07618763 eV
  | Entropy correction            :          -0.00000000 Ha          -0.00000000 eV
  | ---------------------------
  | Total energy                  :        -578.73265453 Ha      -15748.11678514 eV
  | Total energy, T -> 0          :        -578.73265453 Ha      -15748.11678514 eV  <-- do not rely on this value for anything but (periodic) metals
  | Electronic free energy        :        -578.73265453 Ha      -15748.11678514 eV

  Derived energy quantities:
  | Kinetic energy                :         579.35505070 Ha       15765.05304650 eV
  | Electrostatic energy          :       -1118.44308704 Ha      -30434.38488283 eV
  | Energy correction for multipole
  | error in Hartree potential    :           0.01135324 Ha           0.30893730 eV
  | Sum of eigenvalues per atom                           :       -4457.41656229 eV
  | Total energy (T->0) per atom                          :       -7874.05839257 eV  <-- do not rely on this value for anything but (periodic) metals
  | Electronic free energy per atom                       :       -7874.05839257 eV

  Self-consistency convergence accuracy:
  | Change of charge density      :  0.1849E-02
  | Change of sum of eigenvalues  : -0.8317E+00 eV
  | Change of total energy        :  0.2599E-03 eV

  End self-consistency iteration #    10       :  max(cpu_time)    wall_clock(cpu1)
  | Time for this iteration                    :        3.185 s           3.185 s
  | Charge density update                      :        0.993 s           0.993 s
  | Density mixing & preconditioning           :        0.043 s           0.043 s
  | Hartree multipole update                   :        0.001 s           0.001 s
  | Hartree multipole summation                :        0.436 s           0.436 s
  | Integration                                :        0.514 s           0.513 s
  | Solution of K.-S. eqns.                    :        1.198 s           1.199 s
  | Total energy evaluation                    :        0.000 s           0.000 s

  Partial memory accounting:
  | Current value for overall tracked memory usage on task 0  :          24.356 MB
  | Peak value for overall tracked memory usage on task 0     :          26.858 MB after allocating wave
  | Largest tracked array allocation on task 0 so far         :          23.639 MB  when allocating +KS_eigenvector_complex
  Note:  These values currently only include a subset of arrays which are explicitly tracked.
  The "true" memory usage will be greater.
------------------------------------------------------------

------------------------------------------------------------
          Begin self-consistency iteration #   11

  Date     :  20190513, Time     :  135009.242
------------------------------------------------------------
  Evaluating new KS density using the density matrix
  Evaluating density matrix
  Time summed over all CPUs for getting density from density matrix: real work        0.850 s, elapsed        0.850 s
  Integration grid: deviation in total charge (<rho> - N_e) =   6.039613E-14
  Pulay mixing of updated and previous charge densities.

  Evaluating partitioned Hartree potential by multipole expansion.
  | Analytical far-field extrapolation by fixed multipoles:
  | Hartree multipole sum: apparent total charge =   0.405042E-02
  Summing up the Hartree potential.
  Time summed over all CPUs for potential: real work        0.439 s, elapsed        0.439 s
  | RMS charge density error from multipole expansion :   0.906970E-02
  | Average real-space part of the electrostatic potential :      0.21321886 eV

  Integrating Hamiltonian matrix: batch-based integration.
  Time summed over all CPUs for integration: real work        0.510 s, elapsed        0.510 s

  Updating Kohn-Sham eigenvalues, eigenvectors, occupation numbers, and Fermi level.
  Solving generalized eigenproblem

  Obtaining occupation numbers and chemical potential using ELSI.
  | Chemical potential (Fermi level):    -5.47482196eV
  What follows are estimated values for band gap, HOMO, LUMO, etc.
  | They are estimated on a discrete k-point grid and not necessarily exact.
  | For converged numbers, create a DOS and/or band structure plot on a denser k-grid.

  Highest occupied state (VBM) at     -5.73812512 eV (relative to internal zero)
  | Occupation number:      2.00000000
  | K-point:       1 at    0.000000    0.000000    0.000000 (in units of recip. lattice)

  Lowest unoccupied state (CBM) at    -5.07000595 eV (relative to internal zero)
  | Occupation number:      0.00000000
  | K-point:     105 at    0.000000    0.562500    0.562500 (in units of recip. lattice)

  ESTIMATED overall HOMO-LUMO gap:      0.66811917 eV between HOMO at k-point 1 and LUMO at k-point 105
  | This appears to be an indirect band gap.
  | Smallest direct gap :      2.24283912 eV for k_point 1574 at    0.000000    0.562500    0.562500 (in units of recip. lattice)
  The gap value is above 0.2 eV. Unless you are using a very sparse k-point grid,
  this system is most likely an insulator or a semiconductor.

  Total energy components:
  | Sum of eigenvalues            :        -327.61409910 Ha       -8914.83321830 eV
  | XC energy correction          :         -39.64461864 Ha       -1078.78496115 eV
  | XC potential correction       :          52.37709138 Ha        1425.25317253 eV
  | Free-atom electrostatic energy:        -263.51748770 Ha       -7170.67568031 eV
  | Hartree energy correction     :          -0.33354046 Ha          -9.07609783 eV
  | Entropy correction            :          -0.00000000 Ha          -0.00000000 eV
  | ---------------------------
  | Total energy                  :        -578.73265453 Ha      -15748.11678507 eV
  | Total energy, T -> 0          :        -578.73265453 Ha      -15748.11678507 eV  <-- do not rely on this value for anything but (periodic) metals
  | Electronic free energy        :        -578.73265453 Ha      -15748.11678507 eV

  Derived energy quantities:
  | Kinetic energy                :         579.35505707 Ha       15765.05322006 eV
  | Electrostatic energy          :       -1118.44309296 Ha      -30434.38504398 eV
  | Energy correction for multipole
  | error in Hartree potential    :           0.01135312 Ha           0.30893399 eV
  | Sum of eigenvalues per atom                           :       -4457.41660915 eV
  | Total energy (T->0) per atom                          :       -7874.05839253 eV  <-- do not rely on this value for anything but (periodic) metals
  | Electronic free energy per atom                       :       -7874.05839253 eV

  Self-consistency convergence accuracy:
  | Change of charge density      :  0.5227E-06
  | Change of sum of eigenvalues  : -0.9371E-04 eV
  | Change of total energy        :  0.6774E-07 eV

  Preliminary charge convergence reached. Turning off preconditioner.

  Writing Kohn-Sham eigenvalues.
  K-point:       1 at    0.000000    0.000000    0.000000 (in units of recip. lattice)

  State    Occupation    Eigenvalue [Ha]    Eigenvalue [eV]
      1       2.00000         -65.494899        -1782.20688
      2       2.00000         -65.494899        -1782.20688
      3       2.00000          -5.098046         -138.72488
      4       2.00000          -5.097857         -138.71974
      5       2.00000          -3.511724          -95.55887
      6       2.00000          -3.511724          -95.55887
      7       2.00000          -3.511724          -95.55887
      8       2.00000          -3.511293          -95.54713
      9       2.00000          -3.511293          -95.54713
     10       2.00000          -3.511293          -95.54713
     11       2.00000          -0.628271          -17.09613
     12       2.00000          -0.210872           -5.73813
     13       2.00000          -0.210872           -5.73813
     14       2.00000          -0.210872           -5.73813
     15       0.00000          -0.127703           -3.47497
     16       0.00000          -0.118298           -3.21904
     17       0.00000          -0.118298           -3.21904
     18       0.00000          -0.118298           -3.21904
     19       0.00000           0.079259            2.15674
     20       0.00000           0.079259            2.15674

  What follows are estimated values for band gap, HOMO, LUMO, etc.
  | They are estimated on a discrete k-point grid and not necessarily exact.
  | For converged numbers, create a DOS and/or band structure plot on a denser k-grid.

  Highest occupied state (VBM) at     -5.73812512 eV (relative to internal zero)
  | Occupation number:      2.00000000
  | K-point:       1 at    0.000000    0.000000    0.000000 (in units of recip. lattice)

  Lowest unoccupied state (CBM) at    -5.07000595 eV (relative to internal zero)
  | Occupation number:      0.00000000
  | K-point:     105 at    0.000000    0.562500    0.562500 (in units of recip. lattice)

  ESTIMATED overall HOMO-LUMO gap:      0.66811917 eV between HOMO at k-point 1 and LUMO at k-point 105
  | This appears to be an indirect band gap.
  | Smallest direct gap :      2.24283912 eV for k_point 1574 at    0.000000    0.562500    0.562500 (in units of recip. lattice)
  The gap value is above 0.2 eV. Unless you are using a very sparse k-point grid,
  this system is most likely an insulator or a semiconductor.

  Self-consistency cycle converged.

  End self-consistency iteration #    11       :  max(cpu_time)    wall_clock(cpu1)
  | Time for this iteration                    :        3.177 s           3.177 s
  | Charge density update                      :        0.995 s           0.996 s
  | Density mixing                             :        0.043 s           0.043 s
  | Hartree multipole update                   :        0.001 s           0.001 s
  | Hartree multipole summation                :        0.442 s           0.442 s
  | Integration                                :        0.510 s           0.510 s
  | Solution of K.-S. eqns.                    :        1.185 s           1.184 s
  | Total energy evaluation                    :        0.000 s           0.000 s

  Partial memory accounting:
  | Current value for overall tracked memory usage on task 0  :          24.356 MB
  | Peak value for overall tracked memory usage on task 0     :          26.858 MB after allocating wave
  | Largest tracked array allocation on task 0 so far         :          23.639 MB  when allocating +KS_eigenvector_complex
  Note:  These values currently only include a subset of arrays which are explicitly tracked.
  The "true" memory usage will be greater.
------------------------------------------------------------

  Energy and forces in a compact form:
  | Total energy uncorrected      :         -0.157481167850696E+05 eV
  | Total energy corrected        :         -0.157481167850696E+05 eV  <-- do not rely on this value for anything but (periodic) metals
  | Electronic free energy        :         -0.157481167850696E+05 eV

  ------------------------------------ 
  Start decomposition of the XC Energy 
  ------------------------------------ 
  X and C from original XC functional choice 
  Hartree-Fock Energy :          0.000000000 Ha              0.000000000 eV
  X Energy            :        -37.503467429 Ha          -1020.521272294 eV
  C Energy            :         -2.141151210 Ha            -58.263688857 eV
  Total XC Energy     :        -39.644618639 Ha          -1078.784961150 eV
  ------------------------------------ 
  LDA X and C from self-consistent density 
  X Energy LDA        :        -37.503467429 Ha          -1020.521272294 eV
  C Energy LDA        :         -2.141151210 Ha            -58.263688857 eV
  ------------------------------------ 
  End decomposition of the XC Energy 
  ------------------------------------ 

------------------------------------------------------------

------------------------------------------------------------------------------
  Final output of selected total energy values:

  The following output summarizes some interesting total energy values
  at the end of a run (AFTER all relaxation, molecular dynamics, etc.).

  | Total energy of the DFT / Hartree-Fock s.c.f. calculation      :         -15748.116785070 eV
  | Final zero-broadening corrected energy (caution - metals only) :         -15748.116785070 eV
  | For reference only, the value of 1 Hartree used in FHI-aims is :             27.211384500 eV

  Before relying on these values, please be sure to understand exactly which
  total energy value is referred to by a given number. Different objects may
  all carry the same name 'total energy'. Definitions:

  Total energy of the DFT / Hartree-Fock s.c.f. calculation:
  | Note that this energy does not include ANY quantities calculated after the
  | s.c.f. cycle, in particular not ANY RPA, MP2, etc. many-body perturbation terms.

  Final zero-broadening corrected energy:
  | For metallic systems only, a broadening of the occupation numbers at the Fermi
  | level can be extrapolated back to zero broadening by an electron-gas inspired
  | formula. For all systems that are not real metals, this value can be
  | meaningless and should be avoided.

------------------------------------------------------------------------------
  Methods described in the following list of references were used in this FHI-aims run.
  If you publish the results, please make sure to cite these reference if they apply.
  FHI-aims is an academic code, and for our developers (often, Ph.D. students
  and postdocs), scientific credit in the community is essential.
  Thank you for helping us!

  For any use of FHI-aims, please cite:

    Volker Blum, Ralf Gehrke, Felix Hanke, Paula Havu, Ville Havu,
    Xinguo Ren, Karsten Reuter, and Matthias Scheffler
    'Ab initio molecular simulations with numeric atom-centered orbitals'
    Computer Physics Communications 180, 2175-2196 (2009)
    http://dx.doi.org/10.1016/j.cpc.2009.06.022


  For the real-space grid partitioning and parallelization used in this calculation, please cite:

    Ville Havu, Volker Blum, Paula Havu, and Matthias Scheffler,
    'Efficient O(N) integration for all-electron electronic structure calculation'
    'using numerically tabulated basis functions'
    Journal of Computational Physics 228, 8367-8379 (2009).
    http://dx.doi.org/10.1016/j.jcp.2009.08.008

  Of course, there are many other important community references, e.g., those cited in the
  above references. Our list is limited to references that describe implementations in the
  FHI-aims code. The reason is purely practical (length of this list) - please credit others as well.

------------------------------------------------------------
          Leaving FHI-aims.
          Date     :  20190513, Time     :  135012.427

          Computational steps:
          | Number of self-consistency cycles          :           11
          | Number of SCF (re)initializations          :            1

          Detailed time accounting                     :  max(cpu_time)    wall_clock(cpu1)
          | Total time                                 :       38.736 s          38.737 s
          | Preparation time                           :        0.095 s           0.095 s
          | Boundary condition initalization           :        0.049 s           0.049 s
          | Grid partitioning                          :        0.028 s           0.029 s
          | Preloading free-atom quantities on grid    :        0.001 s           0.001 s
          | Free-atom superposition energy             :        0.027 s           0.027 s
          | Total time for integrations                :        6.569 s           6.567 s
          | Total time for solution of K.-S. equations :       15.554 s          15.555 s
          | Total time for density update              :       10.979 s          10.981 s
          | Total time for mixing & preconditioning    :        0.486 s           0.483 s
          | Total time for Hartree multipole update    :        0.009 s           0.010 s
          | Total time for Hartree multipole sum       :        4.781 s           4.783 s
          | Total time for total energy evaluation     :        0.006 s           0.005 s
          | Total time for scaled ZORA corrections     :        0.000 s           0.000 s

 This is a stub MPI_ALLREDUCE call.
 You should not be here. Check your
 setting on the use_mpi variable, or
 link against true MPI-libraries.
