------------------------------------------------------------
          Invoking FHI-aims ...
          Version 171221_1
          Compiled on 2019/05/06 at 14:26:40 on host ffph0xx.

          When using FHI-aims, please cite the following reference:

          Volker Blum, Ralf Gehrke, Felix Hanke, Paula Havu,
          Ville Havu, Xinguo Ren, Karsten Reuter, and Matthias Scheffler,
          'Ab Initio Molecular Simulations with Numeric Atom-Centered Orbitals',
          Computer Physics Communications 180, 2175-2196 (2009)

          For any questions about FHI-aims, please visit the aimsclub website
          with its forums and wiki. Contributions to both the forums and the
          wiki are warmly encouraged - they are for you, and everyone is welcome there.

------------------------------------------------------------



  Date     :  20190508, Time     :  152738.587
  Time zero on CPU 1             :   0.932000000000000E-03  s.
  Internal wall clock time zero  :           326561258.587  s.

  FHI-aims created a unique identifier for this run for later identification
  aims_uuid : 1EB09B9C-3BD5-47F0-A6A9-D87F647826A3


  Performing system and environment tests:
  *** Environment variable OMP_NUM_THREADS is not set
  *** For performance reasons you might want to set it to 1
  | Stacksize not measured: no C compiler

  Obtaining array dimensions for all initial allocations:
  
  -----------------------------------------------------------------------
  Parsing control.in (first pass over file, find array dimensions only).
  The contents of control.in will be repeated verbatim below
  unless switched off by setting 'verbatim_writeout .false.' .
  in the first line of control.in .
  -----------------------------------------------------------------------
  
  #--- Specification of method ---
  xc pbe
  charge 0.0
  spin collinear
  default_initial_moment 2.0
  #---
  
  #--- iteration limit ---
  sc_iter_limit 100
  
  # other possible thresholds
  # sc_accuracy_eev ... for sum of Kohn-Sham eigen values
  # sc_accuracy_etot .. total energy
  # sc_accuracy_rho ... electron density
  #---
  
  #--- tasks (what to calculate) ---
  output dipole
  #---
  
  
  ################################################################################
  ############# Species Defaults ####################
  ################################################################################
  
  
  ################################################################################
  #
  #  FHI-aims code project
  # Volker Blum, Fritz Haber Institute Berlin, 2009
  #
  #  Suggested "tight" defaults for O atom (to be pasted into control.in file)
  #
  ################################################################################
    species        O
  #     global species definitions
      nucleus             8
      mass                15.9994
  #
      l_hartree           6
  #
      cut_pot             4.0  2.0  1.0
      basis_dep_cutoff    1e-4
  #
      radial_base         36 7.0
      radial_multiplier   2
       angular_grids specified
        division   0.1817   50
        division   0.3417  110
        division   0.4949  194
        division   0.6251  302
        division   0.8014  434
  #      division   0.8507  590
  #      division   0.8762  770
  #      division   0.9023  974
  #      division   1.2339 1202
  #      outer_grid 974
        outer_grid  434
  ################################################################################
  #
  #  Definition of "minimal" basis
  #
  ################################################################################
  #     valence basis states
      valence      2  s   2.
      valence      2  p   4.
  #     ion occupancy
      ion_occ      2  s   1.
      ion_occ      2  p   3.
  ################################################################################
  #
  #  Suggested additional basis functions. For production calculations,
  #  uncomment them one after another (the most important basis functions are
  #  listed first).
  #
  #  Constructed for dimers: 1.0 A, 1.208 A, 1.5 A, 2.0 A, 3.0 A
  #
  ################################################################################
  #  "First tier" - improvements: -699.05 meV to -159.38 meV
       hydro 2 p 1.8
       hydro 3 d 7.6
       hydro 3 s 6.4
  #  "Second tier" - improvements: -49.91 meV to -5.39 meV
       hydro 4 f 11.6
       hydro 3 p 6.2
       hydro 3 d 5.6
       hydro 5 g 17.6
       hydro 1 s 0.75
  #  "Third tier" - improvements: -2.83 meV to -0.50 meV
  #     ionic 2 p auto
  #     hydro 4 f 10.8
  #     hydro 4 d 4.7
  #     hydro 2 s 6.8
  #  "Fourth tier" - improvements: -0.40 meV to -0.12 meV
  #     hydro 3 p 5
  #     hydro 3 s 3.3
  #     hydro 5 g 15.6
  #     hydro 4 f 17.6
  #     hydro 4 d 14
  # Further basis functions - -0.08 meV and below
  #     hydro 3 s 2.1
  #     hydro 4 d 11.6
  #     hydro 3 p 16
  #     hydro 2 s 17.2
  ################################################################################
  #
  # For methods that use the localized form of the "resolution of identity" for
  # the two-electron Coulomb operator (RI_method LVL), particularly Hartree-Fock and
  # hybrid density functional calculations, the highest accuracy can be obtained by
  # uncommenting the line beginning with "for_aux"  below, thus adding an extra g radial
  # function to the construction of the product basis set for the expansion.
  # See Ref. New J. Phys. 17, 093020 (2015) for more information, particularly Figs. 1 and 6.
  #
  ################################################################################
  #
  # for_aux hydro 5 g 6.0
  
  -----------------------------------------------------------------------
  Completed first pass over input file control.in .
  -----------------------------------------------------------------------
  
  
  -----------------------------------------------------------------------
  Parsing geometry.in (first pass over file, find array dimensions only).
  The contents of geometry.in will be repeated verbatim below
  unless switched off by setting 'verbatim_writeout .false.' .
  in the first line of geometry.in .
  -----------------------------------------------------------------------
  
  # HF with variable bonding distance
  atom 0.0 0.0 0.0 O
  atom 0.0 0.0 1.2999999999999998 O
  
  -----------------------------------------------------------------------
  Completed first pass over input file geometry.in .
  -----------------------------------------------------------------------
  

  Basic array size parameters:
  | Number of species                 :        1
  | Number of atoms                   :        2
  | Max. basis fn. angular momentum   :        4
  | Max. atomic/ionic basis occupied n:        2
  | Max. number of basis fn. types    :        2
  | Max. radial fns per species/type  :        8
  | Max. logarithmic grid size        :     1301
  | Max. radial integration grid size :       73
  | Max. angular integration grid size:      434
  | Max. angular grid division number :        8
  | Radial grid for Hartree potential :     1301
  | Number of spin channels           :        2

------------------------------------------------------------
          Reading file control.in.
------------------------------------------------------------
  XC: Using PBE gradient-corrected functionals.
  Charge =   0.000000E+00: Neutral system requested explicitly.
  Spin treatment: Spin density functional theory - collinear spins.
  Initial spin moment per atom:   2.0000
  Maximum number of s.-c. iterations  :   100
  Dipole moment will be written out.

  Reading configuration options for species O                   .
  | Found nuclear charge :   8.0000
  | Found atomic mass :    15.999400000000000      amu
  | Found l_max for Hartree potential  :   6
  | Found cutoff potl. onset [A], width [A], scale factor :    4.00000    2.00000    1.00000
  | Threshold for basis-dependent cutoff potential is   0.100000E-03
  | Found data for basic radial integration grid :    36 points, outermost radius =    7.000 A
  | Found multiplier for basic radial grid :   2
  | Found angular grid specification: user-specified.
  | Specified grid contains     6 separate shells.
  | Check grid settings after all constraints further below.
  | Found free-atom valence shell :  2 s   2.000
  | Found free-atom valence shell :  2 p   4.000
  | No ionic wave fns used. Skipping ion_occ.
  | No ionic wave fns used. Skipping ion_occ.
  | Found hydrogenic basis function :  2 p   1.800
  | Found hydrogenic basis function :  3 d   7.600
  | Found hydrogenic basis function :  3 s   6.400
  | Found hydrogenic basis function :  4 f  11.600
  | Found hydrogenic basis function :  3 p   6.200
  | Found hydrogenic basis function :  3 d   5.600
  | Found hydrogenic basis function :  5 g  17.600
  | Found hydrogenic basis function :  1 s   0.750
  Species O                   : Missing cutoff potential type.
  Defaulting to exp(1/x)/(1-x)^2 type cutoff potential.
  Species O : No 'logarithmic' tag. Using default grid for free atom:
  | Default logarithmic grid data [bohr] : 0.1000E-03 0.1000E+03 0.1012E+01
  Species O : On-site basis accuracy parameter (for Gram-Schmidt orthonormalisation) not specified.
  Using default value basis_acc =  0.1000000E-03.
  Species O                   : Using default innermost maximum threshold i_radial=  2 for radial functions.
  Species O                   : Default cutoff onset for free atom density etc. : 0.40000000E+01 AA.
  Species O                   : Basic radial grid will be enhanced according to radial_multiplier =   2, to contain    73 grid points.

  Finished reading input file 'control.in'. Consistency checks are next.

  MPI_IN_PLACE appears to work with this MPI implementation.
  | Keeping use_mpi_in_place .true. (see manual).
  Target number of points in a grid batch is not set. Defaulting to  100
  Method for grid partitioning is not set. Defaulting to 'maxmin' partitioning.
  Batch size limit is not set. Defaulting to    200
  By default, will store active basis functions for each batch.
  If in need of memory, prune_basis_once .false. can be used to disable this option.
  communication_type for Hartree potential was not specified.
  Defaulting to calc_hartree .
 * Attention: 
 * You may want to set distributed_spline_storage to .true. in order to save memory.
 * This doesn't harm performance and is perfectly ok unless:
 * - you get error messages in postprocessing (about missing atoms in get_rho_multipole_spl)
 * - you need full spline storage in hirshfeld_analysis
  Defaulting to Pulay charge density mixer.
  Pulay mixer: Number of relevant iterations not set.
  Defaulting to    8 iterations.
  Pulay mixer: Number of initial linear mixing iterations not set.
  Defaulting to    0 iterations.
  Work space size for distributed Hartree potential not set.
  Defaulting to   0.200000E+03 MB.
  Mixing parameter for charge density mixing has not been set.
  Using default: charge_mix_param =     0.0500.
  The mixing parameter will be adjusted in iteration number     2 of the first full s.c.f. cycle only.
  Mixing parameter for spin density mixing has not been set.
  Using charge_mix_param as default:     0.0500.
  Algorithm-dependent basis array size parameters:
  | n_max_pulay                         :        8
 * Notice: The s.c.f. convergence criterion sc_accuracy_rho was not provided.
 * We used to stop in this case, and ask the user to provide reasonable
 * scf convergence criteria. However, this led some users to employ criteria
 * that led to extremely long run times, e.g., for simple relaxation.
 * We now preset a default value for sc_accuracy_rho if it is not set.
 * You may still wish to check if this setting is too tight or too loose for your needs.
 * Based on n_atoms, FHI-aims chose sc_accuracy_rho =  0.100000E-05 .
  Presetting      1001 iterations before the initial mixing cycle
  is restarted anyway using the sc_init_iter criterion / keyword.
  Presetting a factor      1.000 between actual scf density residual
  and density convergence criterion sc_accuracy_rho below which sc_init_iter
  takes no effect.
 * No s.c.f. convergence criteria (sc_accuracy_*) were provided in control.in.
 * The run will proceed with a reasonable default guess, but please check whether.
 * the s.c.f. cycles seem to take too much or too little time.
  Calculation of forces was not defined in control.in. No forces will be calculated.
  Geometry relaxation not requested: no relaxation will be performed.
  No accuracy limit for integral partition fn. given. Defaulting to  0.1000E-14.
  No threshold value for u(r) in integrations given. Defaulting to  0.1000E-05.
  No occupation type (smearing scheme) given. Defaulting to Gaussian broadening, width =  0.1000E-01 eV.
  The width will be adjusted in iteration number     2 of the first full s.c.f. cycle only.
  S.C.F. convergence parameters will be adjusted in iteration number     2 of the first full s.c.f. cycle only.
  No accuracy for occupation numbers given. Defaulting to  0.1000E-12.
  No threshold value for occupation numbers given. Defaulting to  0.0000E+00.
  No accuracy for fermi level given. Defaulting to  0.1000E-19.
  Maximum # of iterations to find E_F not set. Defaulting to  200.
  Preferred method for the eigenvalue solver ('KS_method') not specified in 'control.in'.
  Defaulting to serial version, 'lapack_fast'.
  Will not use alltoall communication since running on < 1024 CPUs.
  Threshold for basis singularities not set.
  Default threshold for basis singularities:  0.1000E-04
  partition_type (choice of integration weights) for integrals was not specified.
  | Using a version of the partition function of Stratmann and coworkers ('stratmann_smoother').
  | At each grid point, the set of atoms used to build the partition table is smoothly restricted to
  | only those atoms whose free-atom density would be non-zero at that grid point.
  Partitioning for Hartree potential was not defined. Using partition_type for integrals.
  | Adjusted default value of keyword multip_moments_threshold to:       0.10000000E-11
  | This value may affect high angular momentum components of the Hartree potential in periodic systems.
  No q(lm)/r^(l+1) cutoff set for long-range Hartree potential.
  | Using default value of  0.100000E-09 .
  | Verify using the multipole_threshold keyword.
  Defaulting to new monopole extrapolation.
  Density update method: automatic selection selected.
------------------------------------------------------------


------------------------------------------------------------
          Reading geometry description geometry.in.
------------------------------------------------------------
 * Warning! You did not set the 'relativistic' flag in input file 'control.in'.
 * Since you are not attempting to treat any elements beyond Ca(Z=20), FHI-aims
 * will default to 'relativistic none'.
 * You must ensure that this is really what you want!!
 * For example, DO NOT compute total-energy differences between results from
 * different settings of the 'relativistic' flag.
  Input structure read successfully.
  The structure contains        2 atoms,  and a total of         16.000 electrons.

  Input geometry:
  | No unit cell requested.
  | Atomic structure:
  |       Atom                x [A]            y [A]            z [A]
  |    1: Species O             0.00000000        0.00000000        0.00000000
  |    2: Species O             0.00000000        0.00000000        1.30000000
  |

  | The smallest distance between any two atoms is         1.30000000 AA.
  |
  | The first atom of this pair is atom number                      1 .
  | The second atom of this pair is atom number                     2 .

  Initial moments and charges:
  |  Atom   Moment         Charge        Species
  |     1   0.200000E+01   0.000000E+00   O
  |     2   0.200000E+01   0.000000E+00   O

  Number of empty states per atom not set in control.in - providing a guess from actual geometry.
  | Total number of empty states used during s.c.f. cycle:        6
  If you use a very high smearing, use empty_states (per atom!) in control.in to increase this value.

  Structure-dependent array size parameters: 
  | Number of distinct atom types in initial rho :        1
  | Maximum number of distinct radial functions  :       11
  | Maximum number of basis functions            :       78
  | Number of Kohn-Sham states (occupied + empty):       14
------------------------------------------------------------

------------------------------------------------------------
          Preparing all fixed parts of the calculation.
------------------------------------------------------------
  Determining machine precision:
     2.2250738585072014E-308
  Setting up grids for atomic and cluster calculations.

  Creating wave function, potential, and density for free atoms.

  Species: O

  List of occupied orbitals and eigenvalues:
    n    l              occ      energy [Ha]    energy [eV]
    1    0           2.0000       -18.898576      -514.2564
    2    0           2.0000        -0.878795       -23.9132
    2    1           4.0000        -0.332075        -9.0362

  Spin-polarized or charged system:
  Charge density initialized according to selected moments and charges.

  Creating spin-polarized density from free atoms.

  Species: O
  Charge:   0.000000
  Moment:   2.000000

  List of occupied orbitals and eigenvalues:
    n    l      energy [Ha]    energy [eV]    occupation
  Spin-up
    1    0       -18.902870      -514.3733     1.00000000
    2    0        -0.924859       -25.1667     1.00000000
    2    1        -0.375913       -10.2291     3.00000000
  Spin-down
    1    0       -18.857549      -513.1400     1.00000000
    2    0        -0.805583       -21.9210     1.00000000
    2    1        -0.264264        -7.1910     1.00000000

  Creating fixed part of basis set: Ionic, confined, hydrogenic.

  O                    hydrogenic:

  List of hydrogenic basis orbitals: 
    n    l      effective z      eigenvalue [eV]  inner max. [A]     outer max. [A]     outer radius [A]   
    2    1         1.800000       -11.0118           1.178562           1.178562           5.432602
    3    2         7.600000       -87.3182           0.624125           0.624125           3.541477
    3    0         6.400000       -61.9209           0.061167           1.081902           4.306578
    4    3        11.600000      -114.4238           0.731631           0.731631           3.585037
    3    1         6.200000       -58.1113           0.255680           1.030270           4.306578
    3    2         5.600000       -47.4081           0.847233           0.847233           4.413171
    5    4        17.600000      -168.5799           0.749740           0.749740           3.372465
    1    0         0.750000        -7.6499           0.705284           0.705284           5.366593


  Adding cutoff potential to free-atom effective potential.
  Creating atomic-like basis functions for current effective potential.

  Species O                   :

  List of atomic basis orbitals and eigenvalues:
    n    l      energy [Ha]    energy [eV]    outer radius [A]
    1    0       -18.898576      -514.2564       1.415765
    2    0        -0.878795       -23.9132       5.048385
    2    1        -0.332075        -9.0362       5.301386

  Assembling full basis from fixed parts.
  | Species O :   atomic orbital   1 s accepted.
  | Species O :    hydro orbital   3 s accepted.
  | Species O :   atomic orbital   2 s accepted.
  | Species O :    hydro orbital   1 s accepted.
  | Species O :    hydro orbital   3 p accepted.
  | Species O :   atomic orbital   2 p accepted.
  | Species O :    hydro orbital   2 p accepted.
  | Species O :    hydro orbital   3 d accepted.
  | Species O :    hydro orbital   3 d accepted.
  | Species O :    hydro orbital   4 f accepted.
  | Species O :    hydro orbital   5 g accepted.

  Basis size parameters after reduction:
  | Total number of radial functions:       11
  | Total number of basis functions :       78

  Per-task memory consumption for arrays in subroutine allocate_ext:
  |           2.750028MB.
  Testing on-site integration grid accuracy.
  |  Species  Function  <phi|h_atom|phi> (log., in eV)  <phi|h_atom|phi> (rad., in eV)
           1        1               -514.2564144315               -514.2564099626
           1        2                 15.1726678541                 15.1726530877
           1        3                -21.5447785304                -21.5447874973
           1        4                 14.4944558459                 14.4944698284
           1        5                 20.8882174564                 20.8882178906
           1        6                 -2.4850315909                 -2.4850322289
           1        7                 13.8600193195                 13.8599826966
           1        8                 45.8243383616                 45.8243383675
           1        9                 52.1840606465                 52.1840622440
           1       10                 85.4074185510                 85.4074185819
           1       11                142.0983717302                142.0983717339

  Preparing densities etc. for the partition functions (integrals / Hartree potential).

  Preparations completed.
  max(cpu_time)          :      0.126 s.
  Wall clock time (cpu1) :      0.126 s.
------------------------------------------------------------

------------------------------------------------------------
          Begin self-consistency loop: Initialization.

          Date     :  20190508, Time     :  152738.714
------------------------------------------------------------

  Initializing index lists of integration centers etc. from given atomic structure:
  | Number of centers in hartree potential         :         2
  | Number of centers in hartree multipole         :         2
  | Number of centers in electron density summation:         2
  | Number of centers in basis integrals           :         2
  | Number of centers in integrals                 :         2
  | Number of centers in hamiltonian               :         2
  Partitioning the integration grid into batches with maxmin method.
  | Maximal weight for a single point:     1.000
  | Minimal weight for a single point:     0.000
  | Number of batches:      487
  | Maximal batch size:     161
  | Minimal batch size:      76
  | Average batch size:      82.702
  | Standard deviation of batch sizes:      17.532
  Initializing partition tables, free-atom densities, potentials, etc. across the integration grid (initialize_grid_storage).
  | initialize_grid_storage: Actual outermost partition radius vs. multipole_radius_free
  | (-- VB: in principle, multipole_radius_free should be larger, hence this output)
  | Species        1: Confinement radius =              6.000000000000000 AA, multipole_radius_free =              6.064445521808699 AA.
  | Species        1: outer_partition_radius set to              6.064445521808699 AA .
  | Original list of interatomic distances with           2 x          2 entries is created.
  | Net number of integration points:    40276
  | of which are non-zero points    :    38150
  Renormalizing the initial density to the exact electron count on the 3D integration grid.
  | Initial density: Formal number of electrons (from input files) :      16.0000000000
  | Integrated number of electrons on 3D grid     :      15.9999996356
  | Charge integration error                      :      -0.0000003644
  | Normalization factor for density and gradient :       1.0000000228
  Obtaining max. number of non-zero basis functions in each batch (get_n_compute_maxes).
  | Maximal number of non-zero basis functions:       78 in task     0
  Selecting the method for density update.
  Loop over occupied states selected for charge density update.
  Allocating        0.017 MB for KS_eigenvector
  Integrating Hamiltonian matrix: batch-based integration.
  Time summed over all CPUs for integration: real work        0.246 s, elapsed        0.246 s
  Integrating overlap matrix.
  Time summed over all CPUs for integration: real work        0.069 s, elapsed        0.069 s

  Updating Kohn-Sham eigenvalues, eigenvectors, occupation numbers, and Fermi level.
  Solving generalized eigenproblem
  Updating Kohn-Sham eigenvalues and eigenfunctions.
  Transforming overlap matrix and checking for singularities.
  Overlap matrix is nonsingular:
  | Lowest eigenvalue:  0.438604E-03
  Solving real generalised eigenvalue problem by standard LAPACK (fast)
  Updating Kohn-Sham eigenvalues and eigenfunctions.
  Solving real generalised eigenvalue problem by standard LAPACK (fast)

  Obtaining occupation numbers and chemical potential using ELSI.
  | Chemical potential (Fermi level):    -7.00715406eV
  Writing Kohn-Sham eigenvalues.

  Spin-up eigenvalues:

  State    Occupation    Eigenvalue [Ha]    Eigenvalue [eV]
      1       1.00000         -18.944762         -515.51321
      2       1.00000         -18.944743         -515.51267
      3       1.00000          -1.176778          -32.02175
      4       1.00000          -0.832456          -22.65228
      5       1.00000          -0.553676          -15.06630
      6       1.00000          -0.504145          -13.71847
      7       1.00000          -0.504145          -13.71847
      8       1.00000          -0.312260           -8.49702
      9       1.00000          -0.312260           -8.49702
     10       0.00000          -0.022449           -0.61088
     11       0.00000           0.082857            2.25466
     12       0.00000           0.126116            3.43178
     13       0.00000           0.126116            3.43178
     14       0.00000           0.130225            3.54362

  Spin-down eigenvalues:

  State    Occupation    Eigenvalue [Ha]    Eigenvalue [eV]
      1       1.00000         -18.899270         -514.27530
      2       1.00000         -18.899251         -514.27478
      3       1.00000          -1.050795          -28.59359
      4       1.00000          -0.710209          -19.32578
      5       1.00000          -0.431771          -11.74908
      6       1.00000          -0.390913          -10.63728
      7       1.00000          -0.390913          -10.63728
      8       0.00000          -0.192381           -5.23496
      9       0.00000          -0.192381           -5.23496
     10       0.00000           0.067562            1.83845
     11       0.00000           0.105434            2.86901
     12       0.00000           0.149013            4.05484
     13       0.00000           0.149013            4.05484
     14       0.00000           0.190986            5.19699

  Current spin moment of the entire structure :
  | N = N_up - N_down :    2.00
  | S                 :    1.00
  | J                 :    3.00

  Highest occupied state (VBM) at     -8.49702321 eV
  | Occupation number:      1.00000000
  | Spin channel:        1

  Lowest unoccupied state (CBM) at    -5.23496114 eV
  | Occupation number:      0.00000000
  | Spin channel:        2

  Overall HOMO-LUMO gap:      3.26206207 eV.
  Calculating total energy contributions from superposition of free atom densities.

  Total energy components:
  | Sum of eigenvalues            :         -82.85834556 Ha       -2254.69029999 eV
  | XC energy correction          :         -16.85498762 Ha        -458.64754881 eV
  | XC potential correction       :          21.67733910 Ha         589.87040906 eV
  | Free-atom electrostatic energy:         -72.18234023 Ha       -1964.18141417 eV
  | Hartree energy correction     :          -0.00000000 Ha          -0.00000000 eV
  | Entropy correction            :          -0.00000000 Ha          -0.00000000 eV
  | ---------------------------
  | Total energy                  :        -150.21833431 Ha       -4087.64885390 eV
  | Total energy, T -> 0          :        -150.21833431 Ha       -4087.64885390 eV  <-- do not rely on this value for anything but (periodic) metals
  | Electronic free energy        :        -150.21833431 Ha       -4087.64885390 eV

  Derived energy quantities:
  | Kinetic energy                :         149.73392438 Ha        4074.46738901 eV
  | Electrostatic energy          :        -283.09727107 Ha       -7703.46869410 eV
  | Energy correction for multipole
  | error in Hartree potential    :           0.00000000 Ha           0.00000000 eV
  | Sum of eigenvalues per atom                           :       -1127.34515000 eV
  | Total energy (T->0) per atom                          :       -2043.82442695 eV  <-- do not rely on this value for anything but (periodic) metals
  | Electronic free energy per atom                       :       -2043.82442695 eV
  Initialize hartree_potential_storage
  Max. number of atoms included in rho_multipole:            2

  End scf initialization - timings             :  max(cpu_time)    wall_clock(cpu1)
  | Time for scf. initialization               :        0.430 s           0.430 s
  | Boundary condition initialization          :        0.000 s           0.000 s
  | Integration                                :        0.314 s           0.315 s
  | Solution of K.-S. eqns.                    :        0.006 s           0.005 s
  | Grid partitioning                          :        0.036 s           0.036 s
  | Preloading free-atom quantities on grid    :        0.003 s           0.003 s
  | Free-atom superposition energy             :        0.046 s           0.047 s
  | Total energy evaluation                    :        0.000 s           0.000 s

  Partial memory accounting:
  | Current value for overall tracked memory usage on task 0  :           0.140 MB
  | Peak value for overall tracked memory usage on task 0     :           0.645 MB after allocating wave
  | Largest tracked array allocation on task 0 so far         :           0.201 MB  when allocating H_times_psi
  Note:  These values currently only include a subset of arrays which are explicitly tracked.
  The "true" memory usage will be greater.
------------------------------------------------------------

------------------------------------------------------------
          Begin self-consistency iteration #    1

  Date     :  20190508, Time     :  152739.144
------------------------------------------------------------
  Evaluating new KS density.
  Integration grid: deviation in total charge (<rho> - N_e) =  -1.421085E-14
  | <rho_up-rho_dn> = N_up-N_dn =      2.0000; <|rho_up-rho_dn|> =      2.0398
  Pulay mixing of updated and previous charge densities.

  Evaluating partitioned Hartree potential by multipole expansion.
  | Analytical far-field extrapolation by fixed multipoles:
  | Hartree multipole sum: apparent total charge =  -0.393788E-06
  Summing up the Hartree potential.
  Time summed over all CPUs for potential: real work        0.028 s, elapsed        0.029 s
  | RMS charge density error from multipole expansion :   0.105708E-03

  Integrating Hamiltonian matrix: batch-based integration.
  Time summed over all CPUs for integration: real work        0.251 s, elapsed        0.251 s

  Updating Kohn-Sham eigenvalues, eigenvectors, occupation numbers, and Fermi level.
  Solving generalized eigenproblem
  Updating Kohn-Sham eigenvalues and eigenfunctions.
  Solving real generalised eigenvalue problem by standard LAPACK (fast)
  Updating Kohn-Sham eigenvalues and eigenfunctions.
  Solving real generalised eigenvalue problem by standard LAPACK (fast)

  Obtaining occupation numbers and chemical potential using ELSI.
  | Chemical potential (Fermi level):    -6.84577412eV
  Writing Kohn-Sham eigenvalues.

  Spin-up eigenvalues:

  State    Occupation    Eigenvalue [Ha]    Eigenvalue [eV]
      1       1.00000         -18.924286         -514.95603
      2       1.00000         -18.924266         -514.95548
      3       1.00000          -1.166210          -31.73419
      4       1.00000          -0.820733          -22.33327
      5       1.00000          -0.541207          -14.72700
      6       1.00000          -0.494207          -13.44807
      7       1.00000          -0.494207          -13.44807
      8       1.00000          -0.301196           -8.19597
      9       1.00000          -0.301196           -8.19597
     10       0.00000          -0.012206           -0.33213
     11       0.00000           0.084400            2.29664
     12       0.00000           0.127620            3.47271
     13       0.00000           0.127620            3.47271
     14       0.00000           0.134319            3.65502

  Spin-down eigenvalues:

  State    Occupation    Eigenvalue [Ha]    Eigenvalue [eV]
      1       1.00000         -18.879659         -513.74166
      2       1.00000         -18.879640         -513.74114
      3       1.00000          -1.044144          -28.41260
      4       1.00000          -0.701549          -19.09012
      5       1.00000          -0.424108          -11.54056
      6       1.00000          -0.383656          -10.43982
      7       1.00000          -0.383656          -10.43982
      8       0.00000          -0.183677           -4.99809
      9       0.00000          -0.183677           -4.99809
     10       0.00000           0.071102            1.93480
     11       0.00000           0.106359            2.89419
     12       0.00000           0.150104            4.08453
     13       0.00000           0.150104            4.08453
     14       0.00000           0.196567            5.34887

  Current spin moment of the entire structure :
  | N = N_up - N_down :    2.00
  | S                 :    1.00
  | J                 :    3.00

  Highest occupied state (VBM) at     -8.19597026 eV
  | Occupation number:      1.00000000
  | Spin channel:        1

  Lowest unoccupied state (CBM) at    -4.99809283 eV
  | Occupation number:      0.00000000
  | Spin channel:        2

  Overall HOMO-LUMO gap:      3.19787743 eV.

  Total energy components:
  | Sum of eigenvalues            :         -82.66392282 Ha       -2249.39978808 eV
  | XC energy correction          :         -16.85284189 Ha        -458.58916066 eV
  | XC potential correction       :          21.67402909 Ha         589.78033925 eV
  | Free-atom electrostatic energy:         -72.18234023 Ha       -1964.18141417 eV
  | Hartree energy correction     :          -0.19524917 Ha          -5.31300011 eV
  | Entropy correction            :          -0.00000000 Ha          -0.00000000 eV
  | ---------------------------
  | Total energy                  :        -150.22032502 Ha       -4087.70302376 eV
  | Total energy, T -> 0          :        -150.22032502 Ha       -4087.70302376 eV  <-- do not rely on this value for anything but (periodic) metals
  | Electronic free energy        :        -150.22032502 Ha       -4087.70302376 eV

  Derived energy quantities:
  | Kinetic energy                :         149.83414608 Ha        4077.19456023 eV
  | Electrostatic energy          :        -283.20162921 Ha       -7706.30842334 eV
  | Energy correction for multipole
  | error in Hartree potential    :          -0.00002434 Ha          -0.00066222 eV
  | Sum of eigenvalues per atom                           :       -1124.69989404 eV
  | Total energy (T->0) per atom                          :       -2043.85151188 eV  <-- do not rely on this value for anything but (periodic) metals
  | Electronic free energy per atom                       :       -2043.85151188 eV

  Self-consistency convergence accuracy:
  | Change of charge/spin density :  0.1710E+00  0.3970E+00
  | Change of sum of eigenvalues  :  0.5291E+01 eV
  | Change of total energy        : -0.5417E-01 eV

  End self-consistency iteration #     1       :  max(cpu_time)    wall_clock(cpu1)
  | Time for this iteration                    :        0.475 s           0.475 s
  | Charge density update                      :        0.186 s           0.186 s
  | Density mixing                             :        0.003 s           0.003 s
  | Hartree multipole update                   :        0.003 s           0.003 s
  | Hartree multipole summation                :        0.029 s           0.029 s
  | Integration                                :        0.251 s           0.251 s
  | Solution of K.-S. eqns.                    :        0.003 s           0.003 s
  | Total energy evaluation                    :        0.000 s           0.000 s

  Partial memory accounting:
  | Current value for overall tracked memory usage on task 0  :           0.140 MB
  | Peak value for overall tracked memory usage on task 0     :           0.693 MB after allocating wave
  | Largest tracked array allocation on task 0 so far         :           0.301 MB  when allocating gradient_basis_wave
  Note:  These values currently only include a subset of arrays which are explicitly tracked.
  The "true" memory usage will be greater.
------------------------------------------------------------

------------------------------------------------------------
          Begin self-consistency iteration #    2

  Date     :  20190508, Time     :  152739.619
------------------------------------------------------------
  Evaluating new KS density.
  Integration grid: deviation in total charge (<rho> - N_e) =   1.776357E-14
  | <rho_up-rho_dn> = N_up-N_dn =      2.0000; <|rho_up-rho_dn|> =      2.0403
  Pulay mixing of updated and previous charge densities.

  Evaluating partitioned Hartree potential by multipole expansion.
  | Analytical far-field extrapolation by fixed multipoles:
  | Hartree multipole sum: apparent total charge =  -0.507064E-06
  Summing up the Hartree potential.
  Time summed over all CPUs for potential: real work        0.033 s, elapsed        0.033 s
  | RMS charge density error from multipole expansion :   0.109227E-02

  Integrating Hamiltonian matrix: batch-based integration.
  Time summed over all CPUs for integration: real work        0.318 s, elapsed        0.318 s

  Updating Kohn-Sham eigenvalues, eigenvectors, occupation numbers, and Fermi level.
  Solving generalized eigenproblem
  Updating Kohn-Sham eigenvalues and eigenfunctions.
  Solving real generalised eigenvalue problem by standard LAPACK (fast)
  Updating Kohn-Sham eigenvalues and eigenfunctions.
  Solving real generalised eigenvalue problem by standard LAPACK (fast)

  Obtaining occupation numbers and chemical potential using ELSI.
  | Chemical potential (Fermi level):    -7.28236490eV
  Current spin moment of the entire structure :
  | N = N_up - N_down :    2.00
  | S                 :    1.00
  | J                 :    3.00

  Highest occupied state (VBM) at     -7.72807521 eV
  | Occupation number:      1.00000000
  | Spin channel:        1

  Lowest unoccupied state (CBM) at    -5.14082529 eV
  | Occupation number:      0.00000000
  | Spin channel:        2

  Overall HOMO-LUMO gap:      2.58724992 eV.

  Checking to see if s.c.f. parameters should be adjusted.
  The system likely has a gap. Increased the default Pulay mixing parameter (charge_mix_param). Value:   0.200000 .
  Kept the default occupation width. Value:   0.010000 eV.

  Total energy components:
  | Sum of eigenvalues            :         -82.60857161 Ha       -2247.89360501 eV
  | XC energy correction          :         -16.82531568 Ha        -457.84013438 eV
  | XC potential correction       :          21.63230452 Ha         588.64495604 eV
  | Free-atom electrostatic energy:         -72.18234023 Ha       -1964.18141417 eV
  | Hartree energy correction     :          -0.26239125 Ha          -7.14002917 eV
  | Entropy correction            :          -0.00000000 Ha          -0.00000000 eV
  | ---------------------------
  | Total energy                  :        -150.24631425 Ha       -4088.41022668 eV
  | Total energy, T -> 0          :        -150.24631425 Ha       -4088.41022668 eV  <-- do not rely on this value for anything but (periodic) metals
  | Electronic free energy        :        -150.24631425 Ha       -4088.41022668 eV

  Derived energy quantities:
  | Kinetic energy                :         149.76088111 Ha        4075.20091895 eV
  | Electrostatic energy          :        -283.18187967 Ha       -7705.77101126 eV
  | Energy correction for multipole
  | error in Hartree potential    :          -0.00030884 Ha          -0.00840383 eV
  | Sum of eigenvalues per atom                           :       -1123.94680250 eV
  | Total energy (T->0) per atom                          :       -2044.20511334 eV  <-- do not rely on this value for anything but (periodic) metals
  | Electronic free energy per atom                       :       -2044.20511334 eV

  Self-consistency convergence accuracy:
  | Change of charge/spin density :  0.1577E+00  0.3793E+00
  | Change of sum of eigenvalues  :  0.1506E+01 eV
  | Change of total energy        : -0.7072E+00 eV

  End self-consistency iteration #     2       :  max(cpu_time)    wall_clock(cpu1)
  | Time for this iteration                    :        0.544 s           0.544 s
  | Charge density update                      :        0.181 s           0.181 s
  | Density mixing                             :        0.006 s           0.006 s
  | Hartree multipole update                   :        0.003 s           0.003 s
  | Hartree multipole summation                :        0.033 s           0.033 s
  | Integration                                :        0.318 s           0.318 s
  | Solution of K.-S. eqns.                    :        0.003 s           0.003 s
  | Total energy evaluation                    :        0.000 s           0.000 s

  Partial memory accounting:
  | Current value for overall tracked memory usage on task 0  :           0.142 MB
  | Peak value for overall tracked memory usage on task 0     :           0.694 MB after allocating wave
  | Largest tracked array allocation on task 0 so far         :           0.301 MB  when allocating gradient_basis_wave
  Note:  These values currently only include a subset of arrays which are explicitly tracked.
  The "true" memory usage will be greater.
------------------------------------------------------------

------------------------------------------------------------
          Begin self-consistency iteration #    3

  Date     :  20190508, Time     :  152740.163
------------------------------------------------------------
  Evaluating new KS density.
  Integration grid: deviation in total charge (<rho> - N_e) =  -8.881784E-14
  | <rho_up-rho_dn> = N_up-N_dn =      2.0000; <|rho_up-rho_dn|> =      2.0400
  Pulay mixing of updated and previous charge densities.

  Evaluating partitioned Hartree potential by multipole expansion.
  | Analytical far-field extrapolation by fixed multipoles:
  | Hartree multipole sum: apparent total charge =  -0.559561E-06
  Summing up the Hartree potential.
  Time summed over all CPUs for potential: real work        0.039 s, elapsed        0.039 s
  | RMS charge density error from multipole expansion :   0.161398E-02

  Integrating Hamiltonian matrix: batch-based integration.
  Time summed over all CPUs for integration: real work        0.292 s, elapsed        0.292 s

  Updating Kohn-Sham eigenvalues, eigenvectors, occupation numbers, and Fermi level.
  Solving generalized eigenproblem
  Updating Kohn-Sham eigenvalues and eigenfunctions.
  Solving real generalised eigenvalue problem by standard LAPACK (fast)
  Updating Kohn-Sham eigenvalues and eigenfunctions.
  Solving real generalised eigenvalue problem by standard LAPACK (fast)

  Obtaining occupation numbers and chemical potential using ELSI.
  | Chemical potential (Fermi level):    -5.38616064eV
  Current spin moment of the entire structure :
  | N = N_up - N_down :    2.00
  | S                 :    1.00
  | J                 :    3.00

  Highest occupied state (VBM) at     -7.43959837 eV
  | Occupation number:      1.00000000
  | Spin channel:        1

  Lowest unoccupied state (CBM) at    -5.15721813 eV
  | Occupation number:      0.00000000
  | Spin channel:        2

  Overall HOMO-LUMO gap:      2.28238025 eV.

  Total energy components:
  | Sum of eigenvalues            :         -82.53507379 Ha       -2245.89362753 eV
  | XC energy correction          :         -16.82602682 Ha        -457.85948536 eV
  | XC potential correction       :          21.63067434 Ha         588.60059644 eV
  | Free-atom electrostatic energy:         -72.18234023 Ha       -1964.18141417 eV
  | Hartree energy correction     :          -0.33936352 Ha          -9.23455134 eV
  | Entropy correction            :          -0.00000000 Ha          -0.00000000 eV
  | ---------------------------
  | Total energy                  :        -150.25213002 Ha       -4088.56848196 eV
  | Total energy, T -> 0          :        -150.25213002 Ha       -4088.56848196 eV  <-- do not rely on this value for anything but (periodic) metals
  | Electronic free energy        :        -150.25213002 Ha       -4088.56848196 eV

  Derived energy quantities:
  | Kinetic energy                :         149.75097712 Ha        4074.93141760 eV
  | Electrostatic energy          :        -283.17708032 Ha       -7705.64041420 eV
  | Energy correction for multipole
  | error in Hartree potential    :          -0.00049365 Ha          -0.01343278 eV
  | Sum of eigenvalues per atom                           :       -1122.94681377 eV
  | Total energy (T->0) per atom                          :       -2044.28424098 eV  <-- do not rely on this value for anything but (periodic) metals
  | Electronic free energy per atom                       :       -2044.28424098 eV

  Self-consistency convergence accuracy:
  | Change of charge/spin density :  0.3967E-01  0.1425E+00
  | Change of sum of eigenvalues  :  0.2000E+01 eV
  | Change of total energy        : -0.1583E+00 eV

  End self-consistency iteration #     3       :  max(cpu_time)    wall_clock(cpu1)
  | Time for this iteration                    :        0.542 s           0.542 s
  | Charge density update                      :        0.197 s           0.197 s
  | Density mixing                             :        0.008 s           0.007 s
  | Hartree multipole update                   :        0.003 s           0.004 s
  | Hartree multipole summation                :        0.039 s           0.039 s
  | Integration                                :        0.292 s           0.292 s
  | Solution of K.-S. eqns.                    :        0.003 s           0.003 s
  | Total energy evaluation                    :        0.000 s           0.000 s

  Partial memory accounting:
  | Current value for overall tracked memory usage on task 0  :           0.142 MB
  | Peak value for overall tracked memory usage on task 0     :           0.695 MB after allocating wave
  | Largest tracked array allocation on task 0 so far         :           0.301 MB  when allocating gradient_basis_wave
  Note:  These values currently only include a subset of arrays which are explicitly tracked.
  The "true" memory usage will be greater.
------------------------------------------------------------

------------------------------------------------------------
          Begin self-consistency iteration #    4

  Date     :  20190508, Time     :  152740.705
------------------------------------------------------------
  Evaluating new KS density.
  Integration grid: deviation in total charge (<rho> - N_e) =  -1.065814E-14
  | <rho_up-rho_dn> = N_up-N_dn =      2.0000; <|rho_up-rho_dn|> =      2.0437
  Pulay mixing of updated and previous charge densities.

  Evaluating partitioned Hartree potential by multipole expansion.
  | Analytical far-field extrapolation by fixed multipoles:
  | Hartree multipole sum: apparent total charge =  -0.555890E-06
  Summing up the Hartree potential.
  Time summed over all CPUs for potential: real work        0.029 s, elapsed        0.029 s
  | RMS charge density error from multipole expansion :   0.168228E-02

  Integrating Hamiltonian matrix: batch-based integration.
  Time summed over all CPUs for integration: real work        0.260 s, elapsed        0.260 s

  Updating Kohn-Sham eigenvalues, eigenvectors, occupation numbers, and Fermi level.
  Solving generalized eigenproblem
  Updating Kohn-Sham eigenvalues and eigenfunctions.
  Solving real generalised eigenvalue problem by standard LAPACK (fast)
  Updating Kohn-Sham eigenvalues and eigenfunctions.
  Solving real generalised eigenvalue problem by standard LAPACK (fast)

  Obtaining occupation numbers and chemical potential using ELSI.
  | Chemical potential (Fermi level):    -5.35285704eV
  Current spin moment of the entire structure :
  | N = N_up - N_down :    2.00
  | S                 :    1.00
  | J                 :    3.00

  Highest occupied state (VBM) at     -7.33408363 eV
  | Occupation number:      1.00000000
  | Spin channel:        1

  Lowest unoccupied state (CBM) at    -5.06923852 eV
  | Occupation number:      0.00000000
  | Spin channel:        2

  Overall HOMO-LUMO gap:      2.26484511 eV.

  Total energy components:
  | Sum of eigenvalues            :         -82.45970918 Ha       -2243.84285220 eV
  | XC energy correction          :         -16.82697456 Ha        -457.88527475 eV
  | XC potential correction       :          21.63166924 Ha         588.62766904 eV
  | Free-atom electrostatic energy:         -72.18234023 Ha       -1964.18141417 eV
  | Hartree energy correction     :          -0.41423201 Ha         -11.27182659 eV
  | Entropy correction            :          -0.00000000 Ha          -0.00000000 eV
  | ---------------------------
  | Total energy                  :        -150.25158675 Ha       -4088.55369867 eV
  | Total energy, T -> 0          :        -150.25158675 Ha       -4088.55369867 eV  <-- do not rely on this value for anything but (periodic) metals
  | Electronic free energy        :        -150.25158675 Ha       -4088.55369867 eV

  Derived energy quantities:
  | Kinetic energy                :         149.76382898 Ha        4075.28113456 eV
  | Electrostatic energy          :        -283.18844116 Ha       -7705.94955848 eV
  | Energy correction for multipole
  | error in Hartree potential    :          -0.00060121 Ha          -0.01635986 eV
  | Sum of eigenvalues per atom                           :       -1121.92142610 eV
  | Total energy (T->0) per atom                          :       -2044.27684933 eV  <-- do not rely on this value for anything but (periodic) metals
  | Electronic free energy per atom                       :       -2044.27684933 eV

  Self-consistency convergence accuracy:
  | Change of charge/spin density :  0.3575E-01  0.2296E-01
  | Change of sum of eigenvalues  :  0.2051E+01 eV
  | Change of total energy        :  0.1478E-01 eV

  End self-consistency iteration #     4       :  max(cpu_time)    wall_clock(cpu1)
  | Time for this iteration                    :        0.468 s           0.468 s
  | Charge density update                      :        0.168 s           0.168 s
  | Density mixing                             :        0.005 s           0.006 s
  | Hartree multipole update                   :        0.003 s           0.003 s
  | Hartree multipole summation                :        0.030 s           0.029 s
  | Integration                                :        0.259 s           0.260 s
  | Solution of K.-S. eqns.                    :        0.003 s           0.002 s
  | Total energy evaluation                    :        0.000 s           0.000 s

  Partial memory accounting:
  | Current value for overall tracked memory usage on task 0  :           0.142 MB
  | Peak value for overall tracked memory usage on task 0     :           0.695 MB after allocating wave
  | Largest tracked array allocation on task 0 so far         :           0.301 MB  when allocating gradient_basis_wave
  Note:  These values currently only include a subset of arrays which are explicitly tracked.
  The "true" memory usage will be greater.
------------------------------------------------------------

------------------------------------------------------------
          Begin self-consistency iteration #    5

  Date     :  20190508, Time     :  152741.174
------------------------------------------------------------
  Evaluating new KS density.
  Integration grid: deviation in total charge (<rho> - N_e) =   7.105427E-14
  | <rho_up-rho_dn> = N_up-N_dn =      2.0000; <|rho_up-rho_dn|> =      2.0450
  Pulay mixing of updated and previous charge densities.

  Evaluating partitioned Hartree potential by multipole expansion.
  | Analytical far-field extrapolation by fixed multipoles:
  | Hartree multipole sum: apparent total charge =  -0.555826E-06
  Summing up the Hartree potential.
  Time summed over all CPUs for potential: real work        0.028 s, elapsed        0.028 s
  | RMS charge density error from multipole expansion :   0.168158E-02

  Integrating Hamiltonian matrix: batch-based integration.
  Time summed over all CPUs for integration: real work        0.242 s, elapsed        0.242 s

  Updating Kohn-Sham eigenvalues, eigenvectors, occupation numbers, and Fermi level.
  Solving generalized eigenproblem
  Updating Kohn-Sham eigenvalues and eigenfunctions.
  Solving real generalised eigenvalue problem by standard LAPACK (fast)
  Updating Kohn-Sham eigenvalues and eigenfunctions.
  Solving real generalised eigenvalue problem by standard LAPACK (fast)

  Obtaining occupation numbers and chemical potential using ELSI.
  | Chemical potential (Fermi level):    -5.35431213eV
  Current spin moment of the entire structure :
  | N = N_up - N_down :    2.00
  | S                 :    1.00
  | J                 :    3.00

  Highest occupied state (VBM) at     -7.33739861 eV
  | Occupation number:      1.00000000
  | Spin channel:        1

  Lowest unoccupied state (CBM) at    -5.07184455 eV
  | Occupation number:      0.00000000
  | Spin channel:        2

  Overall HOMO-LUMO gap:      2.26555407 eV.

  Total energy components:
  | Sum of eigenvalues            :         -82.46192521 Ha       -2243.90315362 eV
  | XC energy correction          :         -16.82673129 Ha        -457.87865496 eV
  | XC potential correction       :          21.63134889 Ha         588.61895202 eV
  | Free-atom electrostatic energy:         -72.18234023 Ha       -1964.18141417 eV
  | Hartree energy correction     :          -0.41193506 Ha         -11.20932321 eV
  | Entropy correction            :          -0.00000000 Ha          -0.00000000 eV
  | ---------------------------
  | Total energy                  :        -150.25158290 Ha       -4088.55359394 eV
  | Total energy, T -> 0          :        -150.25158290 Ha       -4088.55359394 eV  <-- do not rely on this value for anything but (periodic) metals
  | Electronic free energy        :        -150.25158290 Ha       -4088.55359394 eV

  Derived energy quantities:
  | Kinetic energy                :         149.76207505 Ha        4075.23340760 eV
  | Electrostatic energy          :        -283.18692665 Ha       -7705.90834657 eV
  | Energy correction for multipole
  | error in Hartree potential    :          -0.00060123 Ha          -0.01636021 eV
  | Sum of eigenvalues per atom                           :       -1121.95157681 eV
  | Total energy (T->0) per atom                          :       -2044.27679697 eV  <-- do not rely on this value for anything but (periodic) metals
  | Electronic free energy per atom                       :       -2044.27679697 eV

  Self-consistency convergence accuracy:
  | Change of charge/spin density :  0.1490E-01  0.6414E-02
  | Change of sum of eigenvalues  : -0.6030E-01 eV
  | Change of total energy        :  0.1047E-03 eV

  End self-consistency iteration #     5       :  max(cpu_time)    wall_clock(cpu1)
  | Time for this iteration                    :        0.446 s           0.445 s
  | Charge density update                      :        0.164 s           0.163 s
  | Density mixing                             :        0.006 s           0.007 s
  | Hartree multipole update                   :        0.002 s           0.002 s
  | Hartree multipole summation                :        0.028 s           0.028 s
  | Integration                                :        0.242 s           0.242 s
  | Solution of K.-S. eqns.                    :        0.003 s           0.003 s
  | Total energy evaluation                    :        0.000 s           0.000 s

  Partial memory accounting:
  | Current value for overall tracked memory usage on task 0  :           0.142 MB
  | Peak value for overall tracked memory usage on task 0     :           0.695 MB after allocating wave
  | Largest tracked array allocation on task 0 so far         :           0.301 MB  when allocating gradient_basis_wave
  Note:  These values currently only include a subset of arrays which are explicitly tracked.
  The "true" memory usage will be greater.
------------------------------------------------------------

------------------------------------------------------------
          Begin self-consistency iteration #    6

  Date     :  20190508, Time     :  152741.619
------------------------------------------------------------
  Evaluating new KS density.
  Integration grid: deviation in total charge (<rho> - N_e) =  -1.030287E-13
  | <rho_up-rho_dn> = N_up-N_dn =      2.0000; <|rho_up-rho_dn|> =      2.0450
  Pulay mixing of updated and previous charge densities.

  Evaluating partitioned Hartree potential by multipole expansion.
  | Analytical far-field extrapolation by fixed multipoles:
  | Hartree multipole sum: apparent total charge =  -0.553747E-06
  Summing up the Hartree potential.
  Time summed over all CPUs for potential: real work        0.027 s, elapsed        0.027 s
  | RMS charge density error from multipole expansion :   0.166003E-02

  Integrating Hamiltonian matrix: batch-based integration.
  Time summed over all CPUs for integration: real work        0.237 s, elapsed        0.237 s

  Updating Kohn-Sham eigenvalues, eigenvectors, occupation numbers, and Fermi level.
  Solving generalized eigenproblem
  Updating Kohn-Sham eigenvalues and eigenfunctions.
  Solving real generalised eigenvalue problem by standard LAPACK (fast)
  Updating Kohn-Sham eigenvalues and eigenfunctions.
  Solving real generalised eigenvalue problem by standard LAPACK (fast)

  Obtaining occupation numbers and chemical potential using ELSI.
  | Chemical potential (Fermi level):    -5.39911367eV
  Current spin moment of the entire structure :
  | N = N_up - N_down :    2.00
  | S                 :    1.00
  | J                 :    3.00

  Highest occupied state (VBM) at     -7.44078220 eV
  | Occupation number:      1.00000000
  | Spin channel:        1

  Lowest unoccupied state (CBM) at    -5.15295384 eV
  | Occupation number:      0.00000000
  | Spin channel:        2

  Overall HOMO-LUMO gap:      2.28782836 eV.

  Total energy components:
  | Sum of eigenvalues            :         -82.53108176 Ha       -2245.78499887 eV
  | XC energy correction          :         -16.81889591 Ha        -457.66544347 eV
  | XC potential correction       :          21.62104732 Ha         588.33863196 eV
  | Free-atom electrostatic energy:         -72.18234023 Ha       -1964.18141417 eV
  | Hartree energy correction     :          -0.34022401 Ha          -9.25796644 eV
  | Entropy correction            :          -0.00000000 Ha          -0.00000000 eV
  | ---------------------------
  | Total energy                  :        -150.25149459 Ha       -4088.55119100 eV
  | Total energy, T -> 0          :        -150.25149459 Ha       -4088.55119100 eV  <-- do not rely on this value for anything but (periodic) metals
  | Electronic free energy        :        -150.25149459 Ha       -4088.55119100 eV

  Derived energy quantities:
  | Kinetic energy                :         149.70521444 Ha        4073.68615190 eV
  | Electrostatic energy          :        -283.13781312 Ha       -7704.57189942 eV
  | Energy correction for multipole
  | error in Hartree potential    :          -0.00060538 Ha          -0.01647318 eV
  | Sum of eigenvalues per atom                           :       -1122.89249944 eV
  | Total energy (T->0) per atom                          :       -2044.27559550 eV  <-- do not rely on this value for anything but (periodic) metals
  | Electronic free energy per atom                       :       -2044.27559550 eV

  Self-consistency convergence accuracy:
  | Change of charge/spin density :  0.1463E-01  0.6248E-02
  | Change of sum of eigenvalues  : -0.1882E+01 eV
  | Change of total energy        :  0.2403E-02 eV

  End self-consistency iteration #     6       :  max(cpu_time)    wall_clock(cpu1)
  | Time for this iteration                    :        0.431 s           0.432 s
  | Charge density update                      :        0.155 s           0.155 s
  | Density mixing                             :        0.007 s           0.007 s
  | Hartree multipole update                   :        0.002 s           0.002 s
  | Hartree multipole summation                :        0.027 s           0.027 s
  | Integration                                :        0.237 s           0.237 s
  | Solution of K.-S. eqns.                    :        0.003 s           0.003 s
  | Total energy evaluation                    :        0.000 s           0.000 s

  Partial memory accounting:
  | Current value for overall tracked memory usage on task 0  :           0.143 MB
  | Peak value for overall tracked memory usage on task 0     :           0.696 MB after allocating wave
  | Largest tracked array allocation on task 0 so far         :           0.301 MB  when allocating gradient_basis_wave
  Note:  These values currently only include a subset of arrays which are explicitly tracked.
  The "true" memory usage will be greater.
------------------------------------------------------------

------------------------------------------------------------
          Begin self-consistency iteration #    7

  Date     :  20190508, Time     :  152742.051
------------------------------------------------------------
  Evaluating new KS density.
  Integration grid: deviation in total charge (<rho> - N_e) =  -9.059420E-14
  | <rho_up-rho_dn> = N_up-N_dn =      2.0000; <|rho_up-rho_dn|> =      2.0453
  Pulay mixing of updated and previous charge densities.

  Evaluating partitioned Hartree potential by multipole expansion.
  | Analytical far-field extrapolation by fixed multipoles:
  | Hartree multipole sum: apparent total charge =  -0.554490E-06
  Summing up the Hartree potential.
  Time summed over all CPUs for potential: real work        0.031 s, elapsed        0.031 s
  | RMS charge density error from multipole expansion :   0.165888E-02

  Integrating Hamiltonian matrix: batch-based integration.
  Time summed over all CPUs for integration: real work        0.271 s, elapsed        0.271 s

  Updating Kohn-Sham eigenvalues, eigenvectors, occupation numbers, and Fermi level.
  Solving generalized eigenproblem
  Updating Kohn-Sham eigenvalues and eigenfunctions.
  Solving real generalised eigenvalue problem by standard LAPACK (fast)
  Updating Kohn-Sham eigenvalues and eigenfunctions.
  Solving real generalised eigenvalue problem by standard LAPACK (fast)

  Obtaining occupation numbers and chemical potential using ELSI.
  | Chemical potential (Fermi level):    -5.42048108eV
  Current spin moment of the entire structure :
  | N = N_up - N_down :    2.00
  | S                 :    1.00
  | J                 :    3.00

  Highest occupied state (VBM) at     -7.47372733 eV
  | Occupation number:      1.00000000
  | Spin channel:        1

  Lowest unoccupied state (CBM) at    -5.18476831 eV
  | Occupation number:      0.00000000
  | Spin channel:        2

  Overall HOMO-LUMO gap:      2.28895902 eV.

  Total energy components:
  | Sum of eigenvalues            :         -82.55687841 Ha       -2246.48696164 eV
  | XC energy correction          :         -16.81562125 Ha        -457.57633555 eV
  | XC potential correction       :          21.61677106 Ha         588.22226898 eV
  | Free-atom electrostatic energy:         -72.18234023 Ha       -1964.18141417 eV
  | Hartree energy correction     :          -0.31340805 Ha          -8.52826693 eV
  | Entropy correction            :          -0.00000000 Ha          -0.00000000 eV
  | ---------------------------
  | Total energy                  :        -150.25147689 Ha       -4088.55070931 eV
  | Total energy, T -> 0          :        -150.25147689 Ha       -4088.55070931 eV  <-- do not rely on this value for anything but (periodic) metals
  | Electronic free energy        :        -150.25147689 Ha       -4088.55070931 eV

  Derived energy quantities:
  | Kinetic energy                :         149.67944828 Ha        4072.98501891 eV
  | Electrostatic energy          :        -283.11530391 Ha       -7703.95939266 eV
  | Energy correction for multipole
  | error in Hartree potential    :          -0.00061411 Ha          -0.01671071 eV
  | Sum of eigenvalues per atom                           :       -1123.24348082 eV
  | Total energy (T->0) per atom                          :       -2044.27535465 eV  <-- do not rely on this value for anything but (periodic) metals
  | Electronic free energy per atom                       :       -2044.27535465 eV

  Self-consistency convergence accuracy:
  | Change of charge/spin density :  0.6192E-02  0.1538E-02
  | Change of sum of eigenvalues  : -0.7020E+00 eV
  | Change of total energy        :  0.4817E-03 eV

  End self-consistency iteration #     7       :  max(cpu_time)    wall_clock(cpu1)
  | Time for this iteration                    :        0.467 s           0.467 s
  | Charge density update                      :        0.150 s           0.150 s
  | Density mixing                             :        0.008 s           0.009 s
  | Hartree multipole update                   :        0.003 s           0.002 s
  | Hartree multipole summation                :        0.031 s           0.032 s
  | Integration                                :        0.271 s           0.271 s
  | Solution of K.-S. eqns.                    :        0.003 s           0.003 s
  | Total energy evaluation                    :        0.000 s           0.000 s

  Partial memory accounting:
  | Current value for overall tracked memory usage on task 0  :           0.143 MB
  | Peak value for overall tracked memory usage on task 0     :           0.696 MB after allocating wave
  | Largest tracked array allocation on task 0 so far         :           0.301 MB  when allocating gradient_basis_wave
  Note:  These values currently only include a subset of arrays which are explicitly tracked.
  The "true" memory usage will be greater.
------------------------------------------------------------

------------------------------------------------------------
          Begin self-consistency iteration #    8

  Date     :  20190508, Time     :  152742.518
------------------------------------------------------------
  Evaluating new KS density.
  Integration grid: deviation in total charge (<rho> - N_e) =  -2.842171E-14
  | <rho_up-rho_dn> = N_up-N_dn =      2.0000; <|rho_up-rho_dn|> =      2.0452
  Pulay mixing of updated and previous charge densities.

  Evaluating partitioned Hartree potential by multipole expansion.
  | Analytical far-field extrapolation by fixed multipoles:
  | Hartree multipole sum: apparent total charge =  -0.554624E-06
  Summing up the Hartree potential.
  Time summed over all CPUs for potential: real work        0.030 s, elapsed        0.030 s
  | RMS charge density error from multipole expansion :   0.165900E-02

  Integrating Hamiltonian matrix: batch-based integration.
  Time summed over all CPUs for integration: real work        0.257 s, elapsed        0.257 s

  Updating Kohn-Sham eigenvalues, eigenvectors, occupation numbers, and Fermi level.
  Solving generalized eigenproblem
  Updating Kohn-Sham eigenvalues and eigenfunctions.
  Solving real generalised eigenvalue problem by standard LAPACK (fast)
  Updating Kohn-Sham eigenvalues and eigenfunctions.
  Solving real generalised eigenvalue problem by standard LAPACK (fast)

  Obtaining occupation numbers and chemical potential using ELSI.
  | Chemical potential (Fermi level):    -5.42572335eV
  Current spin moment of the entire structure :
  | N = N_up - N_down :    2.00
  | S                 :    1.00
  | J                 :    3.00

  Highest occupied state (VBM) at     -7.48190730 eV
  | Occupation number:      1.00000000
  | Spin channel:        1

  Lowest unoccupied state (CBM) at    -5.19279608 eV
  | Occupation number:      0.00000000
  | Spin channel:        2

  Overall HOMO-LUMO gap:      2.28911122 eV.

  Total energy components:
  | Sum of eigenvalues            :         -82.56322300 Ha       -2246.65960653 eV
  | XC energy correction          :         -16.81482198 Ha        -457.55458610 eV
  | XC potential correction       :          21.61572613 Ha         588.19383492 eV
  | Free-atom electrostatic energy:         -72.18234023 Ha       -1964.18141417 eV
  | Hartree energy correction     :          -0.30681548 Ha          -8.34887394 eV
  | Entropy correction            :          -0.00000000 Ha          -0.00000000 eV
  | ---------------------------
  | Total energy                  :        -150.25147456 Ha       -4088.55064583 eV
  | Total energy, T -> 0          :        -150.25147456 Ha       -4088.55064583 eV  <-- do not rely on this value for anything but (periodic) metals
  | Electronic free energy        :        -150.25147456 Ha       -4088.55064583 eV

  Derived energy quantities:
  | Kinetic energy                :         149.67324221 Ha        4072.81614327 eV
  | Electrostatic energy          :        -283.10989479 Ha       -7703.81220300 eV
  | Energy correction for multipole
  | error in Hartree potential    :          -0.00061557 Ha          -0.01675051 eV
  | Sum of eigenvalues per atom                           :       -1123.32980327 eV
  | Total energy (T->0) per atom                          :       -2044.27532291 eV  <-- do not rely on this value for anything but (periodic) metals
  | Electronic free energy per atom                       :       -2044.27532291 eV

  Self-consistency convergence accuracy:
  | Change of charge/spin density :  0.2863E-02  0.6259E-03
  | Change of sum of eigenvalues  : -0.1726E+00 eV
  | Change of total energy        :  0.6348E-04 eV

  End self-consistency iteration #     8       :  max(cpu_time)    wall_clock(cpu1)
  | Time for this iteration                    :        0.478 s           0.479 s
  | Charge density update                      :        0.173 s           0.173 s
  | Density mixing                             :        0.013 s           0.014 s
  | Hartree multipole update                   :        0.002 s           0.002 s
  | Hartree multipole summation                :        0.030 s           0.030 s
  | Integration                                :        0.257 s           0.257 s
  | Solution of K.-S. eqns.                    :        0.003 s           0.002 s
  | Total energy evaluation                    :        0.000 s           0.001 s

  Partial memory accounting:
  | Current value for overall tracked memory usage on task 0  :           0.143 MB
  | Peak value for overall tracked memory usage on task 0     :           0.696 MB after allocating wave
  | Largest tracked array allocation on task 0 so far         :           0.301 MB  when allocating gradient_basis_wave
  Note:  These values currently only include a subset of arrays which are explicitly tracked.
  The "true" memory usage will be greater.
------------------------------------------------------------

------------------------------------------------------------
          Begin self-consistency iteration #    9

  Date     :  20190508, Time     :  152742.997
------------------------------------------------------------
  Evaluating new KS density.
  Integration grid: deviation in total charge (<rho> - N_e) =   4.973799E-14
  | <rho_up-rho_dn> = N_up-N_dn =      2.0000; <|rho_up-rho_dn|> =      2.0452
  Pulay mixing of updated and previous charge densities.

  Evaluating partitioned Hartree potential by multipole expansion.
  | Analytical far-field extrapolation by fixed multipoles:
  | Hartree multipole sum: apparent total charge =  -0.554743E-06
  Summing up the Hartree potential.
  Time summed over all CPUs for potential: real work        0.031 s, elapsed        0.031 s
  | RMS charge density error from multipole expansion :   0.165889E-02

  Integrating Hamiltonian matrix: batch-based integration.
  Time summed over all CPUs for integration: real work        0.256 s, elapsed        0.256 s

  Updating Kohn-Sham eigenvalues, eigenvectors, occupation numbers, and Fermi level.
  Solving generalized eigenproblem
  Updating Kohn-Sham eigenvalues and eigenfunctions.
  Solving real generalised eigenvalue problem by standard LAPACK (fast)
  Updating Kohn-Sham eigenvalues and eigenfunctions.
  Solving real generalised eigenvalue problem by standard LAPACK (fast)

  Obtaining occupation numbers and chemical potential using ELSI.
  | Chemical potential (Fermi level):    -5.43371718eV
  Current spin moment of the entire structure :
  | N = N_up - N_down :    2.00
  | S                 :    1.00
  | J                 :    3.00

  Highest occupied state (VBM) at     -7.49491457 eV
  | Occupation number:      1.00000000
  | Spin channel:        1

  Lowest unoccupied state (CBM) at    -5.20525696 eV
  | Occupation number:      0.00000000
  | Spin channel:        2

  Overall HOMO-LUMO gap:      2.28965761 eV.

  Total energy components:
  | Sum of eigenvalues            :         -82.57311286 Ha       -2246.92872347 eV
  | XC energy correction          :         -16.81356799 Ha        -457.52046330 eV
  | XC potential correction       :          21.61408783 Ha         588.14925464 eV
  | Free-atom electrostatic energy:         -72.18234023 Ha       -1964.18141417 eV
  | Hartree energy correction     :          -0.29653922 Ha          -8.06924284 eV
  | Entropy correction            :          -0.00000000 Ha          -0.00000000 eV
  | ---------------------------
  | Total energy                  :        -150.25147247 Ha       -4088.55058914 eV
  | Total energy, T -> 0          :        -150.25147247 Ha       -4088.55058914 eV  <-- do not rely on this value for anything but (periodic) metals
  | Electronic free energy        :        -150.25147247 Ha       -4088.55058914 eV

  Derived energy quantities:
  | Kinetic energy                :         149.66360093 Ha        4072.55379065 eV
  | Electrostatic energy          :        -283.10150542 Ha       -7703.58391649 eV
  | Energy correction for multipole
  | error in Hartree potential    :          -0.00061765 Ha          -0.01680719 eV
  | Sum of eigenvalues per atom                           :       -1123.46436174 eV
  | Total energy (T->0) per atom                          :       -2044.27529457 eV  <-- do not rely on this value for anything but (periodic) metals
  | Electronic free energy per atom                       :       -2044.27529457 eV

  Self-consistency convergence accuracy:
  | Change of charge/spin density :  0.2063E-02  0.4305E-03
  | Change of sum of eigenvalues  : -0.2691E+00 eV
  | Change of total energy        :  0.5669E-04 eV

  End self-consistency iteration #     9       :  max(cpu_time)    wall_clock(cpu1)
  | Time for this iteration                    :        0.468 s           0.467 s
  | Charge density update                      :        0.161 s           0.161 s
  | Density mixing                             :        0.014 s           0.014 s
  | Hartree multipole update                   :        0.002 s           0.002 s
  | Hartree multipole summation                :        0.031 s           0.031 s
  | Integration                                :        0.257 s           0.257 s
  | Solution of K.-S. eqns.                    :        0.003 s           0.002 s
  | Total energy evaluation                    :        0.000 s           0.000 s

  Partial memory accounting:
  | Current value for overall tracked memory usage on task 0  :           0.144 MB
  | Peak value for overall tracked memory usage on task 0     :           0.696 MB after allocating wave
  | Largest tracked array allocation on task 0 so far         :           0.301 MB  when allocating gradient_basis_wave
  Note:  These values currently only include a subset of arrays which are explicitly tracked.
  The "true" memory usage will be greater.
------------------------------------------------------------

------------------------------------------------------------
          Begin self-consistency iteration #   10

  Date     :  20190508, Time     :  152743.464
------------------------------------------------------------
  Evaluating new KS density.
  Integration grid: deviation in total charge (<rho> - N_e) =  -4.263256E-14
  | <rho_up-rho_dn> = N_up-N_dn =      2.0000; <|rho_up-rho_dn|> =      2.0452
  Pulay mixing of updated and previous charge densities.

  Evaluating partitioned Hartree potential by multipole expansion.
  | Analytical far-field extrapolation by fixed multipoles:
  | Hartree multipole sum: apparent total charge =  -0.554833E-06
  Summing up the Hartree potential.
  Time summed over all CPUs for potential: real work        0.034 s, elapsed        0.034 s
  | RMS charge density error from multipole expansion :   0.165887E-02

  Integrating Hamiltonian matrix: batch-based integration.
  Time summed over all CPUs for integration: real work        0.245 s, elapsed        0.245 s

  Updating Kohn-Sham eigenvalues, eigenvectors, occupation numbers, and Fermi level.
  Solving generalized eigenproblem
  Updating Kohn-Sham eigenvalues and eigenfunctions.
  Solving real generalised eigenvalue problem by standard LAPACK (fast)
  Updating Kohn-Sham eigenvalues and eigenfunctions.
  Solving real generalised eigenvalue problem by standard LAPACK (fast)

  Obtaining occupation numbers and chemical potential using ELSI.
  | Chemical potential (Fermi level):    -5.43889467eV
  Current spin moment of the entire structure :
  | N = N_up - N_down :    2.00
  | S                 :    1.00
  | J                 :    3.00

  Highest occupied state (VBM) at     -7.50325807 eV
  | Occupation number:      1.00000000
  | Spin channel:        1

  Lowest unoccupied state (CBM) at    -5.21322546 eV
  | Occupation number:      0.00000000
  | Spin channel:        2

  Overall HOMO-LUMO gap:      2.29003261 eV.

  Total energy components:
  | Sum of eigenvalues            :         -82.57948578 Ha       -2247.10213925 eV
  | XC energy correction          :         -16.81276552 Ha        -457.49862702 eV
  | XC potential correction       :          21.61303928 Ha         588.12072202 eV
  | Free-atom electrostatic energy:         -72.18234023 Ha       -1964.18141417 eV
  | Hartree energy correction     :          -0.28991987 Ha          -7.88912109 eV
  | Entropy correction            :          -0.00000000 Ha          -0.00000000 eV
  | ---------------------------
  | Total energy                  :        -150.25147212 Ha       -4088.55057950 eV
  | Total energy, T -> 0          :        -150.25147212 Ha       -4088.55057950 eV  <-- do not rely on this value for anything but (periodic) metals
  | Electronic free energy        :        -150.25147212 Ha       -4088.55057950 eV

  Derived energy quantities:
  | Kinetic energy                :         149.65740148 Ha        4072.38509482 eV
  | Electrostatic energy          :        -283.09610808 Ha       -7703.43704730 eV
  | Energy correction for multipole
  | error in Hartree potential    :          -0.00061920 Ha          -0.01684925 eV
  | Sum of eigenvalues per atom                           :       -1123.55106962 eV
[...]
  | Change of charge/spin density :  0.8058E-03  0.1630E-03
  | Change of sum of eigenvalues  : -0.1734E+00 eV
  | Change of total energy        :  0.9638E-05 eV

  End self-consistency iteration #    10       :  max(cpu_time)    wall_clock(cpu1)
  | Time for this iteration                    :        0.452 s           0.452 s
  | Charge density update                      :        0.157 s           0.158 s
  | Density mixing                             :        0.010 s           0.010 s
  | Hartree multipole update                   :        0.002 s           0.002 s
  | Hartree multipole summation                :        0.034 s           0.034 s
  | Integration                                :        0.245 s           0.245 s
  | Solution of K.-S. eqns.                    :        0.003 s           0.003 s
  | Total energy evaluation                    :        0.000 s           0.000 s

  Partial memory accounting:
  | Current value for overall tracked memory usage on task 0  :           0.144 MB
  | Peak value for overall tracked memory usage on task 0     :           0.696 MB after allocating wave
  | Largest tracked array allocation on task 0 so far         :           0.301 MB  when allocating gradient_basis_wave
  Note:  These values currently only include a subset of arrays which are explicitly tracked.
  The "true" memory usage will be greater.
------------------------------------------------------------

------------------------------------------------------------
          Begin self-consistency iteration #   11

  Date     :  20190508, Time     :  152743.916
------------------------------------------------------------
  Evaluating new KS density.
  Integration grid: deviation in total charge (<rho> - N_e) =  -9.414691E-14
  | <rho_up-rho_dn> = N_up-N_dn =      2.0000; <|rho_up-rho_dn|> =      2.0452
  Pulay mixing of updated and previous charge densities.

  Evaluating partitioned Hartree potential by multipole expansion.
  | Analytical far-field extrapolation by fixed multipoles:
  | Hartree multipole sum: apparent total charge =  -0.554836E-06
  Summing up the Hartree potential.
  Time summed over all CPUs for potential: real work        0.027 s, elapsed        0.027 s
  | RMS charge density error from multipole expansion :   0.165887E-02

  Integrating Hamiltonian matrix: batch-based integration.
  Time summed over all CPUs for integration: real work        0.260 s, elapsed        0.260 s

  Updating Kohn-Sham eigenvalues, eigenvectors, occupation numbers, and Fermi level.
  Solving generalized eigenproblem
  Updating Kohn-Sham eigenvalues and eigenfunctions.
  Solving real generalised eigenvalue problem by standard LAPACK (fast)
  Updating Kohn-Sham eigenvalues and eigenfunctions.
  Solving real generalised eigenvalue problem by standard LAPACK (fast)

  Obtaining occupation numbers and chemical potential using ELSI.
  | Chemical potential (Fermi level):    -5.43889970eV
  Current spin moment of the entire structure :
  | N = N_up - N_down :    2.00
  | S                 :    1.00
  | J                 :    3.00

  Highest occupied state (VBM) at     -7.50325460 eV
  | Occupation number:      1.00000000
  | Spin channel:        1

  Lowest unoccupied state (CBM) at    -5.21322497 eV
  | Occupation number:      0.00000000
  | Spin channel:        2

  Overall HOMO-LUMO gap:      2.29002963 eV.

  Total energy components:
  | Sum of eigenvalues            :         -82.57948739 Ha       -2247.10218318 eV
  | XC energy correction          :         -16.81276540 Ha        -457.49862391 eV
  | XC potential correction       :          21.61303914 Ha         588.12071813 eV
  | Free-atom electrostatic energy:         -72.18234023 Ha       -1964.18141417 eV
  | Hartree energy correction     :          -0.28991823 Ha          -7.88907638 eV
  | Entropy correction            :          -0.00000000 Ha          -0.00000000 eV
  | ---------------------------
  | Total energy                  :        -150.25147212 Ha       -4088.55057950 eV
  | Total energy, T -> 0          :        -150.25147212 Ha       -4088.55057950 eV  <-- do not rely on this value for anything but (periodic) metals
  | Electronic free energy        :        -150.25147212 Ha       -4088.55057950 eV

  Derived energy quantities:
  | Kinetic energy                :         149.65739638 Ha        4072.38495619 eV
  | Electrostatic energy          :        -283.09610310 Ha       -7703.43691178 eV
  | Energy correction for multipole
  | error in Hartree potential    :          -0.00061921 Ha          -0.01684959 eV
  | Sum of eigenvalues per atom                           :       -1123.55109159 eV
  | Total energy (T->0) per atom                          :       -2044.27528975 eV  <-- do not rely on this value for anything but (periodic) metals
  | Electronic free energy per atom                       :       -2044.27528975 eV

  Self-consistency convergence accuracy:
  | Change of charge/spin density :  0.2183E-05  0.1331E-05
  | Change of sum of eigenvalues  : -0.4393E-04 eV
  | Change of total energy        : -0.2118E-08 eV

  End self-consistency iteration #    11       :  max(cpu_time)    wall_clock(cpu1)
  | Time for this iteration                    :        0.468 s           0.469 s
  | Charge density update                      :        0.166 s           0.166 s
  | Density mixing                             :        0.009 s           0.009 s
  | Hartree multipole update                   :        0.002 s           0.002 s
  | Hartree multipole summation                :        0.027 s           0.027 s
  | Integration                                :        0.260 s           0.260 s
  | Solution of K.-S. eqns.                    :        0.003 s           0.003 s
  | Total energy evaluation                    :        0.000 s           0.000 s

  Partial memory accounting:
  | Current value for overall tracked memory usage on task 0  :           0.144 MB
  | Peak value for overall tracked memory usage on task 0     :           0.696 MB after allocating wave
  | Largest tracked array allocation on task 0 so far         :           0.301 MB  when allocating gradient_basis_wave
  Note:  These values currently only include a subset of arrays which are explicitly tracked.
  The "true" memory usage will be greater.
------------------------------------------------------------

------------------------------------------------------------
          Begin self-consistency iteration #   12

  Date     :  20190508, Time     :  152744.385
------------------------------------------------------------
  Evaluating new KS density.
  Integration grid: deviation in total charge (<rho> - N_e) =   6.039613E-14
  | <rho_up-rho_dn> = N_up-N_dn =      2.0000; <|rho_up-rho_dn|> =      2.0452
  Pulay mixing of updated and previous charge densities.

  Evaluating partitioned Hartree potential by multipole expansion.
  | Analytical far-field extrapolation by fixed multipoles:
  | Hartree multipole sum: apparent total charge =  -0.554838E-06
  Summing up the Hartree potential.
  Time summed over all CPUs for potential: real work        0.027 s, elapsed        0.027 s
  | RMS charge density error from multipole expansion :   0.165887E-02

  Integrating Hamiltonian matrix: batch-based integration.
  Time summed over all CPUs for integration: real work        0.238 s, elapsed        0.238 s

  Updating Kohn-Sham eigenvalues, eigenvectors, occupation numbers, and Fermi level.
  Solving generalized eigenproblem
  Updating Kohn-Sham eigenvalues and eigenfunctions.
  Solving real generalised eigenvalue problem by standard LAPACK (fast)
  Updating Kohn-Sham eigenvalues and eigenfunctions.
  Solving real generalised eigenvalue problem by standard LAPACK (fast)

  Obtaining occupation numbers and chemical potential using ELSI.
  | Chemical potential (Fermi level):    -5.43889434eV
  Current spin moment of the entire structure :
  | N = N_up - N_down :    2.00
  | S                 :    1.00
  | J                 :    3.00

  Highest occupied state (VBM) at     -7.50324093 eV
  | Occupation number:      1.00000000
  | Spin channel:        1

  Lowest unoccupied state (CBM) at    -5.21321172 eV
  | Occupation number:      0.00000000
  | Spin channel:        2

  Overall HOMO-LUMO gap:      2.29002921 eV.

  Total energy components:
  | Sum of eigenvalues            :         -82.57947831 Ha       -2247.10193597 eV
  | XC energy correction          :         -16.81276646 Ha        -457.49865262 eV
  | XC potential correction       :          21.61304053 Ha         588.12075602 eV
  | Free-atom electrostatic energy:         -72.18234023 Ha       -1964.18141417 eV
  | Hartree energy correction     :          -0.28992765 Ha          -7.88933276 eV
  | Entropy correction            :          -0.00000000 Ha          -0.00000000 eV
  | ---------------------------
  | Total energy                  :        -150.25147212 Ha       -4088.55057950 eV
  | Total energy, T -> 0          :        -150.25147212 Ha       -4088.55057950 eV  <-- do not rely on this value for anything but (periodic) metals
  | Electronic free energy        :        -150.25147212 Ha       -4088.55057950 eV

  Derived energy quantities:
  | Kinetic energy                :         149.65739973 Ha        4072.38504740 eV
  | Electrostatic energy          :        -283.09610539 Ha       -7703.43697428 eV
  | Energy correction for multipole
  | error in Hartree potential    :          -0.00061921 Ha          -0.01684956 eV
  | Sum of eigenvalues per atom                           :       -1123.55096798 eV
  | Total energy (T->0) per atom                          :       -2044.27528975 eV  <-- do not rely on this value for anything but (periodic) metals
  | Electronic free energy per atom                       :       -2044.27528975 eV

  Self-consistency convergence accuracy:
  | Change of charge/spin density :  0.8340E-06  0.7728E-06
  | Change of sum of eigenvalues  :  0.2472E-03 eV
  | Change of total energy        :  0.2110E-08 eV

  Writing Kohn-Sham eigenvalues.

  Spin-up eigenvalues:

  State    Occupation    Eigenvalue [Ha]    Eigenvalue [eV]
      1       1.00000         -18.911790         -514.61600
      2       1.00000         -18.911765         -514.61532
      3       1.00000          -1.145281          -31.16467
      4       1.00000          -0.779816          -21.21986
      5       1.00000          -0.489602          -13.32274
      6       1.00000          -0.471302          -12.82477
      7       1.00000          -0.471302          -12.82477
      8       1.00000          -0.275739           -7.50324
      9       1.00000          -0.275739           -7.50324
     10       0.00000           0.016174            0.44011
     11       0.00000           0.094571            2.57342
     12       0.00000           0.134790            3.66781
     13       0.00000           0.134790            3.66781
     14       0.00000           0.154772            4.21155

  Spin-down eigenvalues:

  State    Occupation    Eigenvalue [Ha]    Eigenvalue [eV]
      1       1.00000         -18.885132         -513.89060
      2       1.00000         -18.885111         -513.89002
      3       1.00000          -1.099147          -29.90932
      4       1.00000          -0.713851          -19.42488
      5       1.00000          -0.458521          -12.47698
      6       1.00000          -0.402690          -10.95776
      7       1.00000          -0.402690          -10.95776
      8       0.00000          -0.191582           -5.21321
      9       0.00000          -0.191582           -5.21321
     10       0.00000           0.046784            1.27305
     11       0.00000           0.105246            2.86388
     12       0.00000           0.148146            4.03125
     13       0.00000           0.148146            4.03125
     14       0.00000           0.172872            4.70408

  Current spin moment of the entire structure :
  | N = N_up - N_down :    2.00
  | S                 :    1.00
  | J                 :    3.00

  Highest occupied state (VBM) at     -7.50324093 eV
  | Occupation number:      1.00000000
  | Spin channel:        1

  Lowest unoccupied state (CBM) at    -5.21321172 eV
  | Occupation number:      0.00000000
  | Spin channel:        2

  Overall HOMO-LUMO gap:      2.29002921 eV.

  Self-consistency cycle converged.

  End self-consistency iteration #    12       :  max(cpu_time)    wall_clock(cpu1)
  | Time for this iteration                    :        0.436 s           0.435 s
  | Charge density update                      :        0.155 s           0.155 s
  | Density mixing                             :        0.010 s           0.010 s
  | Hartree multipole update                   :        0.002 s           0.002 s
  | Hartree multipole summation                :        0.027 s           0.027 s
  | Integration                                :        0.238 s           0.238 s
  | Solution of K.-S. eqns.                    :        0.003 s           0.003 s
  | Total energy evaluation                    :        0.000 s           0.000 s

  Partial memory accounting:
  | Current value for overall tracked memory usage on task 0  :           0.144 MB
  | Peak value for overall tracked memory usage on task 0     :           0.696 MB after allocating wave
  | Largest tracked array allocation on task 0 so far         :           0.301 MB  when allocating gradient_basis_wave
  Note:  These values currently only include a subset of arrays which are explicitly tracked.
  The "true" memory usage will be greater.
------------------------------------------------------------
  ------------------------------------------------------------
   Computing monopole / dipole moments for complete molecule:
  | Total electronic charge [e]         :          0.159999999999999E+02
  | Total ionic charge [e]              :          0.160000000000000E+02
  | Total charge [e]                    :          0.870414851306123E-13
  | Total dipole moment [eAng]          :          0.201143942277842E-14         0.136298461909118E-13         0.000000000000000E+00
  | Absolute dipole moment              :          0.137774669565715E-13 eAng              /                   0.661656806176681E-13 Debye  .

  Energy and forces in a compact form:
  | Total energy uncorrected      :         -0.408855057949917E+04 eV
  | Total energy corrected        :         -0.408855057949917E+04 eV  <-- do not rely on this value for anything but (periodic) metals
  | Electronic free energy        :         -0.408855057949917E+04 eV

  ------------------------------------ 
  Start decomposition of the XC Energy 
  ------------------------------------ 
  X and C from original XC functional choice 
  Hartree-Fock Energy :          0.000000000 Ha              0.000000000 eV
  X Energy            :        -16.290498760 Ha           -443.287025445 eV
  C Energy            :         -0.522267699 Ha            -14.211627179 eV
  Total XC Energy     :        -16.812766459 Ha           -457.498652623 eV
  ------------------------------------ 
  LDA X and C from self-consistent density 
  X Energy LDA        :        -14.781777737 Ha           -402.232637589 eV
  C Energy LDA        :         -1.100395940 Ha            -29.943297031 eV
  ------------------------------------ 
  End decomposition of the XC Energy 
  ------------------------------------ 

------------------------------------------------------------

------------------------------------------------------------------------------
  Final output of selected total energy values:

  The following output summarizes some interesting total energy values
  at the end of a run (AFTER all relaxation, molecular dynamics, etc.).

  | Total energy of the DFT / Hartree-Fock s.c.f. calculation      :          -4088.550579499 eV
  | Final zero-broadening corrected energy (caution - metals only) :          -4088.550579499 eV
  | For reference only, the value of 1 Hartree used in FHI-aims is :             27.211384500 eV

  Before relying on these values, please be sure to understand exactly which
  total energy value is referred to by a given number. Different objects may
  all carry the same name 'total energy'. Definitions:

  Total energy of the DFT / Hartree-Fock s.c.f. calculation:
  | Note that this energy does not include ANY quantities calculated after the
  | s.c.f. cycle, in particular not ANY RPA, MP2, etc. many-body perturbation terms.

  Final zero-broadening corrected energy:
  | For metallic systems only, a broadening of the occupation numbers at the Fermi
  | level can be extrapolated back to zero broadening by an electron-gas inspired
  | formula. For all systems that are not real metals, this value can be
  | meaningless and should be avoided.

------------------------------------------------------------------------------
  Methods described in the following list of references were used in this FHI-aims run.
  If you publish the results, please make sure to cite these reference if they apply.
  FHI-aims is an academic code, and for our developers (often, Ph.D. students
  and postdocs), scientific credit in the community is essential.
  Thank you for helping us!

  For any use of FHI-aims, please cite:

    Volker Blum, Ralf Gehrke, Felix Hanke, Paula Havu, Ville Havu,
    Xinguo Ren, Karsten Reuter, and Matthias Scheffler
    'Ab initio molecular simulations with numeric atom-centered orbitals'
    Computer Physics Communications 180, 2175-2196 (2009)
    http://dx.doi.org/10.1016/j.cpc.2009.06.022


  For the real-space grid partitioning and parallelization used in this calculation, please cite:

    Ville Havu, Volker Blum, Paula Havu, and Matthias Scheffler,
    'Efficient O(N) integration for all-electron electronic structure calculation'
    'using numerically tabulated basis functions'
    Journal of Computational Physics 228, 8367-8379 (2009).
    http://dx.doi.org/10.1016/j.jcp.2009.08.008

  Of course, there are many other important community references, e.g., those cited in the
  above references. Our list is limited to references that describe implementations in the
  FHI-aims code. The reason is purely practical (length of this list) - please credit others as well.

------------------------------------------------------------
          Leaving FHI-aims.
          Date     :  20190508, Time     :  152744.875

          Computational steps:
          | Number of self-consistency cycles          :           12
          | Number of SCF (re)initializations          :            1

          Detailed time accounting                     :  max(cpu_time)    wall_clock(cpu1)
          | Total time                                 :        6.287 s           6.288 s
          | Preparation time                           :        0.126 s           0.126 s
          | Boundary condition initalization           :        0.000 s           0.000 s
          | Grid partitioning                          :        0.036 s           0.036 s
          | Preloading free-atom quantities on grid    :        0.003 s           0.003 s
          | Free-atom superposition energy             :        0.046 s           0.047 s
          | Total time for integrations                :        3.443 s           3.443 s
          | Total time for solution of K.-S. equations :        0.038 s           0.038 s
          | Total time for density update              :        2.014 s           2.013 s
          | Total time for mixing                      :        0.101 s           0.102 s
          | Total time for Hartree multipole update    :        0.029 s           0.029 s
          | Total time for Hartree multipole sum       :        0.366 s           0.366 s
          | Total time for total energy evaluation     :        0.001 s           0.001 s

 This is a stub MPI_ALLREDUCE call.
 You should not be here. Check your
 setting on the use_mpi variable, or
 link against true MPI-libraries.
