------------------------------------------------------------
          Invoking FHI-aims ...
          Version 171221_1
          Compiled on 2019/05/06 at 14:26:40 on host ffph0xx.

          When using FHI-aims, please cite the following reference:

          Volker Blum, Ralf Gehrke, Felix Hanke, Paula Havu,
          Ville Havu, Xinguo Ren, Karsten Reuter, and Matthias Scheffler,
          'Ab Initio Molecular Simulations with Numeric Atom-Centered Orbitals',
          Computer Physics Communications 180, 2175-2196 (2009)

          For any questions about FHI-aims, please visit the aimsclub website
          with its forums and wiki. Contributions to both the forums and the
          wiki are warmly encouraged - they are for you, and everyone is welcome there.

------------------------------------------------------------



  Date     :  20190513, Time     :  135012.431
  Time zero on CPU 1             :   0.707000000000000E-03  s.
  Internal wall clock time zero  :           326987412.431  s.

  FHI-aims created a unique identifier for this run for later identification
  aims_uuid : 94A4EAE3-77BB-4F33-AD66-2D14153E2EAF


  Performing system and environment tests:
  *** Environment variable OMP_NUM_THREADS is not set
  *** For performance reasons you might want to set it to 1
  | Stacksize not measured: no C compiler

  Obtaining array dimensions for all initial allocations:
  
  -----------------------------------------------------------------------
  Parsing control.in (first pass over file, find array dimensions only).
  The contents of control.in will be repeated verbatim below
  unless switched off by setting 'verbatim_writeout .false.' .
  in the first line of control.in .
  -----------------------------------------------------------------------
  
  #--- method ---
  xc pw-lda
  spin none
  relativistic atomic_zora scalar
  #---
  
  #--- k-grid settings ---
  k_grid 16 16 16
  #---
  
  
  
  
  
  
  
  
  
  
  
  #-------------------------------------------------------------------------------
  #--- Species defaults for Si
  #-------------------------------------------------------------------------------
  
  ################################################################################
  #
  #  FHI-aims code project
  #  VB, Fritz-Haber Institut, 2009
  #
  #  Suggested "light" defaults for Si atom (to be pasted into control.in file)
  #  Be sure to double-check any results obtained with these settings for post-processing,
  #  e.g., with the "tight" defaults and larger basis sets.
  #
  ################################################################################
    species        Si
  #     global species definitions
      nucleus             14
      mass                28.0855
  #
      l_hartree           4
  #
      cut_pot             3.5          1.5  1.0
      basis_dep_cutoff    1e-4
  #
      radial_base         42 5.0
      radial_multiplier   1
      angular_grids       specified
        division   0.5866   50
        division   0.9616  110
        division   1.2249  194
        division   1.3795  302
  #      division   1.4810  434
  #      division   1.5529  590
  #      division   1.6284  770
  #      division   1.7077  974
  #      division   2.4068 1202
  #      outer_grid   974
        outer_grid 302
  ################################################################################
  #
  #  Definition of "minimal" basis
  #
  ################################################################################
  #     valence basis states
      valence      3  s   2.
      valence      3  p   2.
  #     ion occupancy
      ion_occ      3  s   1.
      ion_occ      3  p   1.
  ################################################################################
  #
  #  Suggested additional basis functions. For production calculations,
  #  uncomment them one after another (the most important basis functions are
  #  listed first).
  #
  #  Constructed for dimers: 1.75 A, 2.0 A, 2.25 A, 2.75 A, 3.75 A
  #
  ################################################################################
  #  "First tier" - improvements: -571.96 meV to -37.03 meV
       hydro 3 d 4.2
       hydro 2 p 1.4
  #     hydro 4 f 6.2
       ionic 3 s auto
  #  "Second tier" - improvements: -16.76 meV to -3.03 meV
  #     hydro 3 d 9
  #     hydro 5 g 9.4
  #     hydro 4 p 4
  #     hydro 1 s 0.65
  #  "Third tier" - improvements: -3.89 meV to -0.60 meV
  #     ionic 3 d auto
  #     hydro 3 s 2.6
  #     hydro 4 f 8.4
  #     hydro 3 d 3.4
  #     hydro 3 p 7.8
  #  "Fourth tier" - improvements: -0.33 meV to -0.11 meV
  #     hydro 2 p 1.6
  #     hydro 5 g 10.8
  #     hydro 5 f 11.2
  #     hydro 3 d 1
  #     hydro 4 s 4.5
  #  Further basis functions that fell out of the optimization - noise
  #  level... < -0.08 meV
  #     hydro 4 d 6.6
  #     hydro 5 g 16.4
  #     hydro 4 d 9
  
  -----------------------------------------------------------------------
  Completed first pass over input file control.in .
  -----------------------------------------------------------------------
  
  
  -----------------------------------------------------------------------
  Parsing geometry.in (first pass over file, find array dimensions only).
  The contents of geometry.in will be repeated verbatim below
  unless switched off by setting 'verbatim_writeout .false.' .
  in the first line of geometry.in .
  -----------------------------------------------------------------------
  
  lattice_vector   0.000000   2.850000   2.850000
  lattice_vector   2.850000   0.000000   2.850000
  lattice_vector   2.850000   2.850000   0.000000
  atom_frac   0.000000   0.000000   0.000000 Si
  atom_frac   0.250000   0.250000   0.250000 Si
  
  -----------------------------------------------------------------------
  Completed first pass over input file geometry.in .
  -----------------------------------------------------------------------
  

  Basic array size parameters:
  | Number of species                 :        1
  | Number of atoms                   :        2
  | Number of lattice vectors         :        3
  | Max. basis fn. angular momentum   :        2
  | Max. atomic/ionic basis occupied n:        3
  | Max. number of basis fn. types    :        3
  | Max. radial fns per species/type  :        5
  | Max. logarithmic grid size        :     1346
  | Max. radial integration grid size :       42
  | Max. angular integration grid size:      302
  | Max. angular grid division number :        8
  | Radial grid for Hartree potential :     1346
  | Number of spin channels           :        1

------------------------------------------------------------
          Reading file control.in.
------------------------------------------------------------
  XC: Using Perdew-Wang parametrisation of Ceperley-Alder LDA.
  Spin treatment: No spin polarisation.
  Scalar relativistic treatment of kinetic energy: on-site free-atom approximation to ZORA.
  Found k-point grid:        16        16        16

  Reading configuration options for species Si                  .
  | Found nuclear charge :  14.0000
  | Found atomic mass :    28.085500000000000      amu
  | Found l_max for Hartree potential  :   4
  | Found cutoff potl. onset [A], width [A], scale factor :    3.50000    1.50000    1.00000
  | Threshold for basis-dependent cutoff potential is   0.100000E-03
  | Found data for basic radial integration grid :    42 points, outermost radius =    5.000 A
  | Found multiplier for basic radial grid :   1
  | Found angular grid specification: user-specified.
  | Specified grid contains     5 separate shells.
  | Check grid settings after all constraints further below.
  | Found free-atom valence shell :  3 s   2.000
  | Found free-atom valence shell :  3 p   2.000
  | Found free-ion valence shell :  3 s   1.000
  | Found free-ion valence shell :  3 p   1.000
  | Found hydrogenic basis function :  3 d   4.200
  | Found hydrogenic basis function :  2 p   1.400
  | Found ionic basis function :  3 s , default cutoff radius.
  Species Si                  : Missing cutoff potential type.
  Defaulting to exp(1/x)/(1-x)^2 type cutoff potential.
  Species Si: No 'logarithmic' tag. Using default grid for free atom:
  | Default logarithmic grid data [bohr] : 0.1000E-03 0.1000E+03 0.1012E+01
  | Will include ionic basis functions of  2.0-fold positive Si                   ion.
  Species Si: On-site basis accuracy parameter (for Gram-Schmidt orthonormalisation) not specified.
  Using default value basis_acc =  0.1000000E-03.
  Species Si                  : Using default innermost maximum threshold i_radial=  2 for radial functions.
  Species Si                  : Default cutoff onset for free atom density etc. : 0.35000000E+01 AA.
  Species Si                  : Basic radial grid will be enhanced according to radial_multiplier =   1, to contain    42 grid points.

  Finished reading input file 'control.in'. Consistency checks are next.

  MPI_IN_PLACE appears to work with this MPI implementation.
  | Keeping use_mpi_in_place .true. (see manual).
  Target number of points in a grid batch is not set. Defaulting to  100
  Method for grid partitioning is not set. Defaulting to 'maxmin' partitioning.
  Batch size limit is not set. Defaulting to    200
  By default, will store active basis functions for each batch.
  If in need of memory, prune_basis_once .false. can be used to disable this option.
  communication_type for Hartree potential was not specified.
  Defaulting to calc_hartree .
 * Attention: 
 * You may want to set distributed_spline_storage to .true. in order to save memory.
 * This doesn't harm performance and is perfectly ok unless:
 * - you get error messages in postprocessing (about missing atoms in get_rho_multipole_spl)
 * - you need full spline storage in hirshfeld_analysis
  Defaulting to Pulay charge density mixer.
  Pulay mixer: Number of relevant iterations not set.
  Defaulting to    8 iterations.
  Pulay mixer: Number of initial linear mixing iterations not set.
  Defaulting to    0 iterations.
  Work space size for distributed Hartree potential not set.
  Defaulting to   0.200000E+03 MB.
  Mixing parameter for charge density mixing has not been set.
  Using default: charge_mix_param =     0.0500.
  The mixing parameter will be adjusted in iteration number     2 of the first full s.c.f. cycle only.
  Algorithm-dependent basis array size parameters:
  | n_max_pulay                         :        8
 * Notice: The s.c.f. convergence criterion sc_accuracy_rho was not provided.
 * We used to stop in this case, and ask the user to provide reasonable
 * scf convergence criteria. However, this led some users to employ criteria
 * that led to extremely long run times, e.g., for simple relaxation.
 * We now preset a default value for sc_accuracy_rho if it is not set.
 * You may still wish to check if this setting is too tight or too loose for your needs.
 * Based on n_atoms, FHI-aims chose sc_accuracy_rho =  0.100000E-05 .
  Maximum number of self-consistency iterations not provided.
  Presetting  1000 iterations.
  Presetting      1001 iterations before the initial mixing cycle
  is restarted anyway using the sc_init_iter criterion / keyword.
  Presetting a factor      1.000 between actual scf density residual
  and density convergence criterion sc_accuracy_rho below which sc_init_iter
  takes no effect.
 * No s.c.f. convergence criteria (sc_accuracy_*) were provided in control.in.
 * The run will proceed with a reasonable default guess, but please check whether.
 * the s.c.f. cycles seem to take too much or too little time.
  Calculation of forces was not defined in control.in. No forces will be calculated.
  Geometry relaxation not requested: no relaxation will be performed.
  No accuracy limit for integral partition fn. given. Defaulting to  0.1000E-14.
  No threshold value for u(r) in integrations given. Defaulting to  0.1000E-05.
  No occupation type (smearing scheme) given. Defaulting to Gaussian broadening, width =  0.1000E-01 eV.
  The width will be adjusted in iteration number     2 of the first full s.c.f. cycle only.
  S.C.F. convergence parameters will be adjusted in iteration number     2 of the first full s.c.f. cycle only.
  No accuracy for occupation numbers given. Defaulting to  0.1000E-12.
  No threshold value for occupation numbers given. Defaulting to  0.0000E+00.
  No accuracy for fermi level given. Defaulting to  0.1000E-19.
  Maximum # of iterations to find E_F not set. Defaulting to  200.
  Preferred method for the eigenvalue solver ('KS_method') not specified in 'control.in'.
  Defaulting to serial version, 'lapack_fast'.
  Will not use alltoall communication since running on < 1024 CPUs.
  Threshold for basis singularities not set.
  Default threshold for basis singularities:  0.1000E-04
  partition_type (choice of integration weights) for integrals was not specified.
  | Using a version of the partition function of Stratmann and coworkers ('stratmann_smoother').
  | At each grid point, the set of atoms used to build the partition table is smoothly restricted to
  | only those atoms whose free-atom density would be non-zero at that grid point.
  Partitioning for Hartree potential was not defined. Using partition_type for integrals.
  | Adjusted default value of keyword multip_moments_threshold to:       0.10000000E-11
  | This value may affect high angular momentum components of the Hartree potential in periodic systems.
  Angular momentum expansion for Kerker preconditioner not set explicitly.
  | Using default value of   0
  No explicit requirement for turning off preconditioner.
  | By default, it will be turned off when the charge convergence reaches
  | sc_accuracy_rho  =   0.100000E-05
  No special mixing parameter while Kerker preconditioner is on.
  Using default: charge_mix_param =     0.0500.
  No q(lm)/r^(l+1) cutoff set for long-range Hartree potential.
  | Using default value of  0.100000E-09 .
  | Verify using the multipole_threshold keyword.
  Defaulting to new monopole extrapolation.
  Density update method: automatic selection selected.
  Using density matrix based charge density update.
  Using density matrix based charge density update.
  Using packed matrix style: index .
  Defaulting to use time-reversal symmetry for k-point grid.
------------------------------------------------------------


------------------------------------------------------------
          Reading geometry description geometry.in.
------------------------------------------------------------
  Input structure read successfully.
  The structure contains        2 atoms,  and a total of         28.000 electrons.

  Input geometry:
  | Unit cell:
  |        0.00000000        2.85000000        2.85000000
  |        2.85000000        0.00000000        2.85000000
  |        2.85000000        2.85000000        0.00000000
  | Atomic structure:
  |       Atom                x [A]            y [A]            z [A]
  |    1: Species Si            0.00000000        0.00000000        0.00000000
  |    2: Species Si            1.42500000        1.42500000        1.42500000

  Lattice parameters for 3D lattice (in Angstroms) :     4.030509    4.030509    4.030509
  Angle(s) between unit vectors (in degrees)      :    60.000000   60.000000   60.000000

  |

  | The smallest distance between any two atoms is         2.46817240 AA.
  |
  | The first atom of this pair is atom number                      1 .
  | The second atom of this pair is atom number                     2 .
  | Wigner-Seitz cell of the first atom image           0     0     0 .
  | (The Wigner-Seitz cell of the second atom is 0 0 0  by definition.)

  Quantities derived from the lattice vectors:
  | Reciprocal lattice vector 1: -1.102313  1.102313  1.102313
  | Reciprocal lattice vector 2:  1.102313 -1.102313  1.102313
  | Reciprocal lattice vector 3:  1.102313  1.102313 -1.102313
  | Unit cell volume                               :   0.462982E+02  A^3

  Range separation radius for Ewald summation (hartree_convergence_parameter):      4.10030792 bohr.

  Fractional coordinates:
                         L1                L2                L3
       atom_frac         0.00000000        0.00000000        0.00000000  Si
       atom_frac         0.25000000        0.25000000        0.25000000  Si

  Number of empty states per atom not set in control.in - providing a guess from actual geometry.
  | Total number of empty states used during s.c.f. cycle:        6
  If you use a very high smearing, use empty_states (per atom!) in control.in to increase this value.

  Structure-dependent array size parameters: 
  | Maximum number of distinct radial functions  :        8
  | Maximum number of basis functions            :       36
  | Number of Kohn-Sham states (occupied + empty):       20
------------------------------------------------------------

------------------------------------------------------------
          Preparing all fixed parts of the calculation.
------------------------------------------------------------
  Determining machine precision:
     2.2250738585072014E-308
  Setting up grids for atomic and cluster calculations.

  Creating wave function, potential, and density for free atoms.

  Species: Si

  List of occupied orbitals and eigenvalues:
    n    l              occ      energy [Ha]    energy [eV]
    1    0           2.0000       -65.491668     -1782.1190
    2    0           2.0000        -5.087967      -138.4506
    3    0           2.0000        -0.391471       -10.6525
    2    1           6.0000        -3.502246       -95.3010
    3    1           2.0000        -0.143943        -3.9169

  Creating fixed part of basis set: Ionic, confined, hydrogenic.

  Si                   ion:

  List of free ionic orbitals and eigenvalues:
    n    l      energy [Ha]    energy [eV]
    1    0       -66.364436     -1805.8682
    2    0        -5.935799      -161.5213
    3    0        -1.078166       -29.3384
    2    1        -4.351123      -118.4001
    3    1        -0.781733       -21.2720


  List of ionic basis orbitals and eigenvalues:
    n    l      energy [Ha]    energy [eV]    outer radius [A]
    3    0        -1.078146       -29.3378       4.214062


  Si                   hydrogenic:

  List of hydrogenic basis orbitals: 
    n    l      effective z      eigenvalue [eV]  inner max. [A]     outer max. [A]     outer radius [A]   
    3    2         4.200000       -26.6624           1.139231           1.139231           4.534782
    2    1         1.400000        -6.4613           1.472672           1.472672           4.590560


  Adding cutoff potential to free-atom effective potential.
  Creating atomic-like basis functions for current effective potential.

  Species Si                  :

  List of atomic basis orbitals and eigenvalues:
    n    l      energy [Ha]    energy [eV]    outer radius [A]
    1    0       -65.491668     -1782.1190       0.789468
    2    0        -5.087967      -138.4506       2.815114
    3    0        -0.391471       -10.6525       4.534782
    2    1        -3.502246       -95.3010       3.259919
    3    1        -0.143943        -3.9169       4.590560

  Assembling full basis from fixed parts.
  | Species Si :   atomic orbital   1 s accepted.
  | Species Si :   atomic orbital   2 s accepted.
  | Species Si :    ionic orbital   3 s accepted.
  | Species Si :   atomic orbital   3 s accepted.
  | Species Si :   atomic orbital   2 p accepted.
  | Species Si :   atomic orbital   3 p accepted.
  | Species Si :    hydro orbital   2 p accepted.
  | Species Si :    hydro orbital   3 d accepted.

  Basis size parameters after reduction:
  | Total number of radial functions:        8
  | Total number of basis functions :       36

  Per-task memory consumption for arrays in subroutine allocate_ext:
  |           2.757868MB.
  Testing on-site integration grid accuracy.
  |  Species  Function  <phi|h_atom|phi> (log., in eV)  <phi|h_atom|phi> (rad., in eV)
           1        1              -1782.1189727076              -1782.1182429251
           1        2               -138.4506350693               -138.4506310079
           1        3                -10.3030408815                -10.3029120678
           1        4                  5.0238999146                  4.9457540310 ***
           1        5                -95.3009689499                -95.3009689315
           1        6                 -3.9266496564                 -3.9420918374
           1        7                  6.3453628447                  6.1632372158 ***
           1        8                  6.2883050744                  6.2861881409
 * Note: Onsite integrals marked "***" above are less accurate than
 * onsite_accuracy_threshold =    0.03000 eV. Usually, this is harmless.
 * When in doubt, tighten the "radial" and/or "radial_multiplier" flags to check.

  Preparing densities etc. for the partition functions (integrals / Hartree potential).

  Preparations completed.
  max(cpu_time)          :      0.094 s.
  Wall clock time (cpu1) :      0.094 s.
------------------------------------------------------------

------------------------------------------------------------
          Begin self-consistency loop: Initialization.

          Date     :  20190513, Time     :  135012.526
------------------------------------------------------------

  Initializing index lists of integration centers etc. from given atomic structure:
  Mapping all atomic coordinates to central unit cell.

  Initializing the k-points
          Using symmetry for reducing the k-points
  | k-points reduced from:     4096 to     2052
  | Number of k-points                             :      2052
  The eigenvectors in the calculations are COMPLEX.
  | K-points in task   0:      2052
  | Number of basis functions in the Hamiltonian integrals :      1142
  | Number of basis functions in a single unit cell        :        36
  | Number of centers in hartree potential         :       708
  | Number of centers in hartree multipole         :       288
  | Number of centers in electron density summation:       190
  | Number of centers in basis integrals           :       191
  | Number of centers in integrals                 :       101
  | Number of centers in hamiltonian               :       190
  | Consuming       3591 KiB for k_phase.
  | Number of super-cells (origin) [n_cells]                     :        2197
  | Number of super-cells (after PM_index) [n_cells]             :         112
  | Number of super-cells in hamiltonian [n_cells_in_hamiltonian]:         112
  | Size of matrix packed + index [n_hamiltonian_matrix_size] :       39507
  Partitioning the integration grid into batches with maxmin method.
  | Maximal weight for a single point:     1.000
  | Minimal weight for a single point:     0.661
  | Number of batches:      128
  | Maximal batch size:      92
  | Minimal batch size:      85
  | Average batch size:      87.562
  | Standard deviation of batch sizes:       1.555
  Initializing partition tables, free-atom densities, potentials, etc. across the integration grid (initialize_grid_storage).
  | initialize_grid_storage: Actual outermost partition radius vs. multipole_radius_free
  | (-- VB: in principle, multipole_radius_free should be larger, hence this output)
  | Species        1: Confinement radius =              4.999999999999999 AA, multipole_radius_free =              5.000694715736543 AA.
  | Species        1: outer_partition_radius set to              5.000694715736543 AA .
  | Original list of interatomic distances with         191 x        191 entries is created.
  | Net number of integration points:    11208
  | of which are non-zero points    :     9924
  | Numerical average free-atom electrostatic potential    :    -11.36539962 eV
  Renormalizing the initial density to the exact electron count on the 3D integration grid.
  | Initial density: Formal number of electrons (from input files) :      28.0000000000
  | Integrated number of electrons on 3D grid     :      28.0034295986
  | Charge integration error                      :       0.0034295986
  | Normalization factor for density and gradient :       0.9998775293
  Obtaining max. number of non-zero basis functions in each batch (get_n_compute_maxes).
  | Maximal number of non-zero basis functions:      421 in task     0
  Allocating       23.639 MB for KS_eigenvector_complex
  Integrating Hamiltonian matrix: batch-based integration.
  Time summed over all CPUs for integration: real work        0.460 s, elapsed        0.460 s
  Integrating overlap matrix.
  Time summed over all CPUs for integration: real work        0.327 s, elapsed        0.327 s
  Decreasing sparse matrix size:
   Tolerance:   9.9999998245167004E-014
   Hamiltonian matrix
  | Array has    32579 nonzero elements out of    39507 elements
  | Sparsity factor is 0.175
   Overlap matrix
  | Array has    30800 nonzero elements out of    39507 elements
  | Sparsity factor is 0.220
  New size of hamiltonian matrix:       32835

  Updating Kohn-Sham eigenvalues, eigenvectors, occupation numbers, and Fermi level.
  Solving generalized eigenproblem
  Transforming overlap matrix and checking for singularities.
  Overlap matrix is nonsingular at first k-point:
  | Lowest eigenvalue:  0.741564E-02

  Obtaining occupation numbers and chemical potential using ELSI.
  | Chemical potential (Fermi level):    -5.86103889eV
  Writing Kohn-Sham eigenvalues.
  K-point:       1 at    0.000000    0.000000    0.000000 (in units of recip. lattice)

  State    Occupation    Eigenvalue [Ha]    Eigenvalue [eV]
      1       2.00000         -65.506010        -1782.50921
      2       2.00000         -65.506010        -1782.50921
      3       2.00000          -5.105857         -138.93744
      4       2.00000          -5.105711         -138.93347
      5       2.00000          -3.520122          -95.78740
      6       2.00000          -3.520122          -95.78740
      7       2.00000          -3.520122          -95.78740
      8       2.00000          -3.519772          -95.77786
      9       2.00000          -3.519772          -95.77786
     10       2.00000          -3.519772          -95.77786
     11       2.00000          -0.624171          -16.98456
     12       2.00000          -0.222575           -6.05656
     13       2.00000          -0.222575           -6.05656
     14       2.00000          -0.222575           -6.05656
     15       0.00000          -0.159737           -4.34668
     16       0.00000          -0.124244           -3.38086
     17       0.00000          -0.124244           -3.38086
     18       0.00000          -0.124244           -3.38086
     19       0.00000           0.073714            2.00586
     20       0.00000           0.073714            2.00586

  What follows are estimated values for band gap, HOMO, LUMO, etc.
  | They are estimated on a discrete k-point grid and not necessarily exact.
  | For converged numbers, create a DOS and/or band structure plot on a denser k-grid.

  Highest occupied state (VBM) at     -6.05656042 eV (relative to internal zero)
  | Occupation number:      2.00000000
  | K-point:       1 at    0.000000    0.000000    0.000000 (in units of recip. lattice)

  Lowest unoccupied state (CBM) at    -5.06264516 eV (relative to internal zero)
  | Occupation number:      0.00000000
  | K-point:    1288 at    0.437500    0.000000    0.437500 (in units of recip. lattice)

  ESTIMATED overall HOMO-LUMO gap:      0.99391526 eV between HOMO at k-point 1 and LUMO at k-point 1288
  | This appears to be an indirect band gap.
  | Smallest direct gap :      1.70988216 eV for k_point 1 at    0.437500    0.000000    0.437500 (in units of recip. lattice)
  The gap value is above 0.2 eV. Unless you are using a very sparse k-point grid,
  this system is most likely an insulator or a semiconductor.
  Calculating total energy contributions from superposition of free atom densities.

  Total energy components:
  | Sum of eigenvalues            :        -327.82122814 Ha       -8920.46948614 eV
  | XC energy correction          :         -39.58779206 Ha       -1077.23863125 eV
  | XC potential correction       :          52.30247403 Ha        1423.22273106 eV
  | Free-atom electrostatic energy:        -263.62553453 Ha       -7173.61578416 eV
  | Hartree energy correction     :          -0.00000000 Ha          -0.00000000 eV
  | Entropy correction            :          -0.00000000 Ha          -0.00000000 eV
  | ---------------------------
  | Total energy                  :        -578.73208070 Ha      -15748.10117049 eV
  | Total energy, T -> 0          :        -578.73208070 Ha      -15748.10117049 eV  <-- do not rely on this value for anything but (periodic) metals
  | Electronic free energy        :        -578.73208070 Ha      -15748.10117049 eV

  Derived energy quantities:
  | Kinetic energy                :         579.52428276 Ha       15769.65808531 eV
  | Electrostatic energy          :       -1118.66857140 Ha      -30440.52062455 eV
  | Energy correction for multipole
  | error in Hartree potential    :           0.00000000 Ha           0.00000000 eV
  | Sum of eigenvalues per atom                           :       -4460.23474307 eV
  | Total energy (T->0) per atom                          :       -7874.05058525 eV  <-- do not rely on this value for anything but (periodic) metals
  | Electronic free energy per atom                       :       -7874.05058525 eV
  Initialize hartree_potential_storage
  Max. number of atoms included in rho_multipole:            2

  End scf initialization - timings             :  max(cpu_time)    wall_clock(cpu1)
  | Time for scf. initialization               :        3.348 s           3.347 s
  | Boundary condition initialization          :        0.050 s           0.050 s
  | Integration                                :        0.787 s           0.787 s
  | Solution of K.-S. eqns.                    :        2.328 s           2.328 s
  | Grid partitioning                          :        0.028 s           0.027 s
  | Preloading free-atom quantities on grid    :        0.001 s           0.001 s
  | Free-atom superposition energy             :        0.026 s           0.026 s
  | Total energy evaluation                    :        0.001 s           0.000 s

  Partial memory accounting:
  | Current value for overall tracked memory usage on task 0  :          24.296 MB
  | Peak value for overall tracked memory usage on task 0     :          26.777 MB after allocating wave
  | Largest tracked array allocation on task 0 so far         :          23.639 MB  when allocating +KS_eigenvector_complex
  Note:  These values currently only include a subset of arrays which are explicitly tracked.
  The "true" memory usage will be greater.
------------------------------------------------------------

------------------------------------------------------------
          Begin self-consistency iteration #    1

  Date     :  20190513, Time     :  135015.874
------------------------------------------------------------
  Evaluating new KS density using the density matrix
  Evaluating density matrix
  Time summed over all CPUs for getting density from density matrix: real work        0.763 s, elapsed        0.763 s
  Integration grid: deviation in total charge (<rho> - N_e) =  -1.314504E-13
  Pulay mixing of updated and previous charge densities.

  Evaluating partitioned Hartree potential by multipole expansion.
  | Analytical far-field extrapolation by fixed multipoles:
  | Hartree multipole sum: apparent total charge =   0.366412E-02
  Summing up the Hartree potential.
  | Estimated reciprocal-space cutoff momentum G_max:         2.27091506 bohr^-1 .
  | Reciprocal lattice points for long-range Hartree potential:      58
  Time summed over all CPUs for potential: real work        0.350 s, elapsed        0.350 s
  | RMS charge density error from multipole expansion :   0.397365E-03
  | Average real-space part of the electrostatic potential :     -0.00277951 eV

  Integrating Hamiltonian matrix: batch-based integration.
  Time summed over all CPUs for integration: real work        0.462 s, elapsed        0.462 s

  Updating Kohn-Sham eigenvalues, eigenvectors, occupation numbers, and Fermi level.
  Solving generalized eigenproblem

  Obtaining occupation numbers and chemical potential using ELSI.
  | Chemical potential (Fermi level):    -5.84849604eV
  Writing Kohn-Sham eigenvalues.
  K-point:       1 at    0.000000    0.000000    0.000000 (in units of recip. lattice)

  State    Occupation    Eigenvalue [Ha]    Eigenvalue [eV]
      1       2.00000         -65.508568        -1782.57882
      2       2.00000         -65.508568        -1782.57882
      3       2.00000          -5.106435         -138.95316
      4       2.00000          -5.106289         -138.94919
      5       2.00000          -3.520771          -95.80505
      6       2.00000          -3.520771          -95.80505
      7       2.00000          -3.520771          -95.80505
      8       2.00000          -3.520421          -95.79552
      9       2.00000          -3.520421          -95.79552
     10       2.00000          -3.520421          -95.79552
     11       2.00000          -0.623709          -16.97200
     12       2.00000          -0.221947           -6.03949
     13       2.00000          -0.221947           -6.03949
     14       2.00000          -0.221947           -6.03949
     15       0.00000          -0.159200           -4.33205
     16       0.00000          -0.123913           -3.37184
     17       0.00000          -0.123913           -3.37184
     18       0.00000          -0.123913           -3.37184
     19       0.00000           0.074113            2.01671
     20       0.00000           0.074113            2.01671

  What follows are estimated values for band gap, HOMO, LUMO, etc.
  | They are estimated on a discrete k-point grid and not necessarily exact.
  | For converged numbers, create a DOS and/or band structure plot on a denser k-grid.

  Highest occupied state (VBM) at     -6.03949355 eV (relative to internal zero)
  | Occupation number:      2.00000000
  | K-point:       1 at    0.000000    0.000000    0.000000 (in units of recip. lattice)

  Lowest unoccupied state (CBM) at    -5.05695090 eV (relative to internal zero)
  | Occupation number:      0.00000000
  | K-point:    1288 at    0.437500    0.000000    0.437500 (in units of recip. lattice)

  ESTIMATED overall HOMO-LUMO gap:      0.98254265 eV between HOMO at k-point 1 and LUMO at k-point 1288
  | This appears to be an indirect band gap.
  | Smallest direct gap :      1.70744798 eV for k_point 1 at    0.437500    0.000000    0.437500 (in units of recip. lattice)
  The gap value is above 0.2 eV. Unless you are using a very sparse k-point grid,
  this system is most likely an insulator or a semiconductor.

  Total energy components:
  | Sum of eigenvalues            :        -327.83759498 Ha       -8920.91485068 eV
  | XC energy correction          :         -39.58935730 Ha       -1077.28122359 eV
  | XC potential correction       :          52.30453251 Ha        1423.27874522 eV
  | Free-atom electrostatic energy:        -263.62553453 Ha       -7173.61578416 eV
  | Hartree energy correction     :           0.01627454 Ha           0.44285285 eV
  | Entropy correction            :          -0.00000000 Ha          -0.00000000 eV
  | ---------------------------
  | Total energy                  :        -578.73167976 Ha      -15748.09026036 eV
  | Total energy, T -> 0          :        -578.73167976 Ha      -15748.09026036 eV  <-- do not rely on this value for anything but (periodic) metals
  | Electronic free energy        :        -578.73167976 Ha      -15748.09026036 eV

  Derived energy quantities:
  | Kinetic energy                :         579.41848039 Ha       15766.77905619 eV
  | Electrostatic energy          :       -1118.56080285 Ha      -30437.58809296 eV
  | Energy correction for multipole
  | error in Hartree potential    :           0.00048309 Ha           0.01314566 eV
  | Sum of eigenvalues per atom                           :       -4460.45742534 eV
  | Total energy (T->0) per atom                          :       -7874.04513018 eV  <-- do not rely on this value for anything but (periodic) metals
  | Electronic free energy per atom                       :       -7874.04513018 eV

  Self-consistency convergence accuracy:
  | Change of charge density      :  0.9109E-01
  | Change of sum of eigenvalues  : -0.4454E+00 eV
  | Change of total energy        :  0.1091E-01 eV

  End self-consistency iteration #     1       :  max(cpu_time)    wall_clock(cpu1)
  | Time for this iteration                    :        2.906 s           2.906 s
  | Charge density update                      :        0.897 s           0.897 s
  | Density mixing & preconditioning           :        0.046 s           0.046 s
  | Hartree multipole update                   :        0.001 s           0.000 s
  | Hartree multipole summation                :        0.354 s           0.354 s
  | Integration                                :        0.462 s           0.462 s
  | Solution of K.-S. eqns.                    :        1.146 s           1.146 s
  | Total energy evaluation                    :        0.001 s           0.001 s

  Partial memory accounting:
  | Current value for overall tracked memory usage on task 0  :          24.296 MB
  | Peak value for overall tracked memory usage on task 0     :          26.777 MB after allocating wave
  | Largest tracked array allocation on task 0 so far         :          23.639 MB  when allocating +KS_eigenvector_complex
  Note:  These values currently only include a subset of arrays which are explicitly tracked.
  The "true" memory usage will be greater.
------------------------------------------------------------

------------------------------------------------------------
          Begin self-consistency iteration #    2

  Date     :  20190513, Time     :  135018.780
------------------------------------------------------------
  Evaluating new KS density using the density matrix
  Evaluating density matrix
  Time summed over all CPUs for getting density from density matrix: real work        0.758 s, elapsed        0.758 s
  Integration grid: deviation in total charge (<rho> - N_e) =  -1.421085E-14
  Pulay mixing of updated and previous charge densities.

  Evaluating partitioned Hartree potential by multipole expansion.
  | Analytical far-field extrapolation by fixed multipoles:
  | Hartree multipole sum: apparent total charge =   0.787380E-02
  Summing up the Hartree potential.
  Time summed over all CPUs for potential: real work        0.425 s, elapsed        0.425 s
  | RMS charge density error from multipole expansion :   0.781010E-02
  | Average real-space part of the electrostatic potential :      0.21827098 eV

  Integrating Hamiltonian matrix: batch-based integration.
  Time summed over all CPUs for integration: real work        0.461 s, elapsed        0.461 s

  Updating Kohn-Sham eigenvalues, eigenvectors, occupation numbers, and Fermi level.
  Solving generalized eigenproblem

  Obtaining occupation numbers and chemical potential using ELSI.
  | Chemical potential (Fermi level):    -5.51629079eV
  What follows are estimated values for band gap, HOMO, LUMO, etc.
  | They are estimated on a discrete k-point grid and not necessarily exact.
  | For converged numbers, create a DOS and/or band structure plot on a denser k-grid.

  Highest occupied state (VBM) at     -5.59944930 eV (relative to internal zero)
  | Occupation number:      2.00000000
  | K-point:       1 at    0.000000    0.000000    0.000000 (in units of recip. lattice)

  Lowest unoccupied state (CBM) at    -4.91577438 eV (relative to internal zero)
  | Occupation number:      0.00000000
  | K-point:     105 at    0.000000    0.562500    0.562500 (in units of recip. lattice)

  ESTIMATED overall HOMO-LUMO gap:      0.68367492 eV between HOMO at k-point 1 and LUMO at k-point 105
  | This appears to be an indirect band gap.
  | Smallest direct gap :      1.71632319 eV for k_point 1 at    0.000000    0.562500    0.562500 (in units of recip. lattice)
  The gap value is above 0.2 eV. Unless you are using a very sparse k-point grid,
  this system is most likely an insulator or a semiconductor.

  Checking to see if s.c.f. parameters should be adjusted.
  The system likely has a gap. Increased the default Pulay mixing parameter (charge_mix_param). Value:   0.200000 .
  Kept the default occupation width. Value:   0.010000 eV.

  Total energy components:
  | Sum of eigenvalues            :        -327.32924601 Ha       -8907.08197127 eV
  | XC energy correction          :         -39.62775893 Ha       -1078.32618524 eV
  | XC potential correction       :          52.35504528 Ha        1424.65326769 eV
  | Free-atom electrostatic energy:        -263.62553453 Ha       -7173.61578416 eV
  | Hartree energy correction     :          -0.50063798 Ha         -13.62305243 eV
  | Entropy correction            :          -0.00000000 Ha          -0.00000000 eV
  | ---------------------------
  | Total energy                  :        -578.72813217 Ha      -15747.99372542 eV
  | Total energy, T -> 0          :        -578.72813217 Ha      -15747.99372542 eV  <-- do not rely on this value for anything but (periodic) metals
  | Electronic free energy        :        -578.72813217 Ha      -15747.99372542 eV

  Derived energy quantities:
  | Kinetic energy                :         579.39460874 Ha       15766.12947575 eV
  | Electrostatic energy          :       -1118.49498198 Ha      -30435.79701593 eV
  | Energy correction for multipole
  | error in Hartree potential    :           0.00949105 Ha           0.25826451 eV
  | Sum of eigenvalues per atom                           :       -4453.54098564 eV
  | Total energy (T->0) per atom                          :       -7873.99686271 eV  <-- do not rely on this value for anything but (periodic) metals
  | Electronic free energy per atom                       :       -7873.99686271 eV

  Self-consistency convergence accuracy:
  | Change of charge density      :  0.8653E-01
  | Change of sum of eigenvalues  :  0.1383E+02 eV
  | Change of total energy        :  0.9653E-01 eV

  End self-consistency iteration #     2       :  max(cpu_time)    wall_clock(cpu1)
  | Time for this iteration                    :        2.970 s           2.970 s
  | Charge density update                      :        0.892 s           0.892 s
  | Density mixing & preconditioning           :        0.044 s           0.044 s
  | Hartree multipole update                   :        0.001 s           0.001 s
  | Hartree multipole summation                :        0.429 s           0.429 s
  | Integration                                :        0.461 s           0.461 s
  | Solution of K.-S. eqns.                    :        1.142 s           1.142 s
  | Total energy evaluation                    :        0.001 s           0.000 s

  Partial memory accounting:
  | Current value for overall tracked memory usage on task 0  :          24.297 MB
  | Peak value for overall tracked memory usage on task 0     :          26.777 MB after allocating wave
  | Largest tracked array allocation on task 0 so far         :          23.639 MB  when allocating +KS_eigenvector_complex
  Note:  These values currently only include a subset of arrays which are explicitly tracked.
  The "true" memory usage will be greater.
------------------------------------------------------------

------------------------------------------------------------
          Begin self-consistency iteration #    3

  Date     :  20190513, Time     :  135021.750
------------------------------------------------------------
  Evaluating new KS density using the density matrix
  Evaluating density matrix
  Time summed over all CPUs for getting density from density matrix: real work        0.764 s, elapsed        0.764 s
  Integration grid: deviation in total charge (<rho> - N_e) =   0.000000E+00
  Pulay mixing of updated and previous charge densities.

  Evaluating partitioned Hartree potential by multipole expansion.
  | Analytical far-field extrapolation by fixed multipoles:
  | Hartree multipole sum: apparent total charge =   0.736457E-02
  Summing up the Hartree potential.
  Time summed over all CPUs for potential: real work        0.431 s, elapsed        0.431 s
  | RMS charge density error from multipole expansion :   0.781779E-02
  | Average real-space part of the electrostatic potential :      0.21274408 eV

  Integrating Hamiltonian matrix: batch-based integration.
  Time summed over all CPUs for integration: real work        0.466 s, elapsed        0.466 s

  Updating Kohn-Sham eigenvalues, eigenvectors, occupation numbers, and Fermi level.
  Solving generalized eigenproblem

  Obtaining occupation numbers and chemical potential using ELSI.
  | Chemical potential (Fermi level):    -5.52476908eV
  What follows are estimated values for band gap, HOMO, LUMO, etc.
  | They are estimated on a discrete k-point grid and not necessarily exact.
  | For converged numbers, create a DOS and/or band structure plot on a denser k-grid.

  Highest occupied state (VBM) at     -5.61094001 eV (relative to internal zero)
  | Occupation number:      2.00000000
  | K-point:       1 at    0.000000    0.000000    0.000000 (in units of recip. lattice)

  Lowest unoccupied state (CBM) at    -4.91902305 eV (relative to internal zero)
  | Occupation number:      0.00000000
  | K-point:     105 at    0.000000    0.562500    0.562500 (in units of recip. lattice)

  ESTIMATED overall HOMO-LUMO gap:      0.69191697 eV between HOMO at k-point 1 and LUMO at k-point 105
  | This appears to be an indirect band gap.
  | Smallest direct gap :      1.71358941 eV for k_point 1 at    0.000000    0.562500    0.562500 (in units of recip. lattice)
  The gap value is above 0.2 eV. Unless you are using a very sparse k-point grid,
  this system is most likely an insulator or a semiconductor.

  Total energy components:
  | Sum of eigenvalues            :        -327.35527515 Ha       -8907.79026016 eV
  | XC energy correction          :         -39.62651076 Ha       -1078.29222077 eV
  | XC potential correction       :          52.35340074 Ha        1424.60851731 eV
  | Free-atom electrostatic energy:        -263.62553453 Ha       -7173.61578416 eV
  | Hartree energy correction     :          -0.47414515 Ha         -12.90214586 eV
  | Entropy correction            :          -0.00000000 Ha          -0.00000000 eV
  | ---------------------------
  | Total energy                  :        -578.72806485 Ha      -15747.99189364 eV
  | Total energy, T -> 0          :        -578.72806485 Ha      -15747.99189364 eV  <-- do not rely on this value for anything but (periodic) metals
  | Electronic free energy        :        -578.72806485 Ha      -15747.99189364 eV

  Derived energy quantities:
  | Kinetic energy                :         579.38853416 Ha       15765.96417799 eV
  | Electrostatic energy          :       -1118.49008825 Ha      -30435.66385087 eV
  | Energy correction for multipole
  | error in Hartree potential    :           0.00952260 Ha           0.25912303 eV
  | Sum of eigenvalues per atom                           :       -4453.89513008 eV
  | Total energy (T->0) per atom                          :       -7873.99594682 eV  <-- do not rely on this value for anything but (periodic) metals
  | Electronic free energy per atom                       :       -7873.99594682 eV

  Self-consistency convergence accuracy:
  | Change of charge density      :  0.1371E-01
  | Change of sum of eigenvalues  : -0.7083E+00 eV
  | Change of total energy        :  0.1832E-02 eV

  End self-consistency iteration #     3       :  max(cpu_time)    wall_clock(cpu1)
  | Time for this iteration                    :        2.988 s           2.989 s
  | Charge density update                      :        0.899 s           0.900 s
  | Density mixing & preconditioning           :        0.044 s           0.043 s
  | Hartree multipole update                   :        0.001 s           0.001 s
  | Hartree multipole summation                :        0.435 s           0.435 s
  | Integration                                :        0.466 s           0.466 s
  | Solution of K.-S. eqns.                    :        1.143 s           1.143 s
  | Total energy evaluation                    :        0.001 s           0.001 s

  Partial memory accounting:
  | Current value for overall tracked memory usage on task 0  :          24.297 MB
  | Peak value for overall tracked memory usage on task 0     :          26.777 MB after allocating wave
  | Largest tracked array allocation on task 0 so far         :          23.639 MB  when allocating +KS_eigenvector_complex
  Note:  These values currently only include a subset of arrays which are explicitly tracked.
  The "true" memory usage will be greater.
------------------------------------------------------------

------------------------------------------------------------
          Begin self-consistency iteration #    4

  Date     :  20190513, Time     :  135024.739
------------------------------------------------------------
  Evaluating new KS density using the density matrix
  Evaluating density matrix
  Time summed over all CPUs for getting density from density matrix: real work        0.770 s, elapsed        0.770 s
  Integration grid: deviation in total charge (<rho> - N_e) =  -1.243450E-13
  Pulay mixing of updated and previous charge densities.

  Evaluating partitioned Hartree potential by multipole expansion.
  | Analytical far-field extrapolation by fixed multipoles:
  | Hartree multipole sum: apparent total charge =   0.447429E-02
  Summing up the Hartree potential.
  Time summed over all CPUs for potential: real work        0.431 s, elapsed        0.431 s
  | RMS charge density error from multipole expansion :   0.829573E-02
  | Average real-space part of the electrostatic potential :      0.19324592 eV

  Integrating Hamiltonian matrix: batch-based integration.
  Time summed over all CPUs for integration: real work        0.460 s, elapsed        0.460 s

  Updating Kohn-Sham eigenvalues, eigenvectors, occupation numbers, and Fermi level.
  Solving generalized eigenproblem

  Obtaining occupation numbers and chemical potential using ELSI.
  | Chemical potential (Fermi level):    -5.55708553eV
  What follows are estimated values for band gap, HOMO, LUMO, etc.
  | They are estimated on a discrete k-point grid and not necessarily exact.
  | For converged numbers, create a DOS and/or band structure plot on a denser k-grid.

  Highest occupied state (VBM) at     -5.65202339 eV (relative to internal zero)
  | Occupation number:      2.00000000
  | K-point:       1 at    0.000000    0.000000    0.000000 (in units of recip. lattice)

  Lowest unoccupied state (CBM) at    -4.92893973 eV (relative to internal zero)
  | Occupation number:      0.00000000
  | K-point:     105 at    0.000000    0.562500    0.562500 (in units of recip. lattice)

  ESTIMATED overall HOMO-LUMO gap:      0.72308367 eV between HOMO at k-point 1 and LUMO at k-point 105
  | This appears to be an indirect band gap.
  | Smallest direct gap :      1.69726592 eV for k_point 1 at    0.000000    0.562500    0.562500 (in units of recip. lattice)
  The gap value is above 0.2 eV. Unless you are using a very sparse k-point grid,
  this system is most likely an insulator or a semiconductor.

  Total energy components:
  | Sum of eigenvalues            :        -327.48132298 Ha       -8911.22019626 eV
  | XC energy correction          :         -39.62166664 Ha       -1078.16040542 eV
  | XC potential correction       :          52.34700939 Ha        1424.43459983 eV
  | Free-atom electrostatic energy:        -263.62553453 Ha       -7173.61578416 eV
  | Hartree energy correction     :          -0.34630979 Ha          -9.42356885 eV
  | Entropy correction            :          -0.00000000 Ha          -0.00000000 eV
  | ---------------------------
  | Total energy                  :        -578.72782456 Ha      -15747.98535486 eV
  | Total energy, T -> 0          :        -578.72782456 Ha      -15747.98535486 eV  <-- do not rely on this value for anything but (periodic) metals
  | Electronic free energy        :        -578.72782456 Ha      -15747.98535486 eV

  Derived energy quantities:
  | Kinetic energy                :         579.34870908 Ha       15764.88048246 eV
  | Electrostatic energy          :       -1118.45486700 Ha      -30434.70543190 eV
  | Energy correction for multipole
  | error in Hartree potential    :           0.01021781 Ha           0.27804063 eV
  | Sum of eigenvalues per atom                           :       -4455.61009813 eV
  | Total energy (T->0) per atom                          :       -7873.99267743 eV  <-- do not rely on this value for anything but (periodic) metals
  | Electronic free energy per atom                       :       -7873.99267743 eV

  Self-consistency convergence accuracy:
  | Change of charge density      :  0.1216E-01
  | Change of sum of eigenvalues  : -0.3430E+01 eV
  | Change of total energy        :  0.6539E-02 eV

  End self-consistency iteration #     4       :  max(cpu_time)    wall_clock(cpu1)
  | Time for this iteration                    :        2.982 s           2.981 s
  | Charge density update                      :        0.903 s           0.903 s
  | Density mixing & preconditioning           :        0.044 s           0.044 s
  | Hartree multipole update                   :        0.001 s           0.001 s
  | Hartree multipole summation                :        0.434 s           0.434 s
  | Integration                                :        0.460 s           0.460 s
  | Solution of K.-S. eqns.                    :        1.139 s           1.139 s
  | Total energy evaluation                    :        0.000 s           0.000 s

  Partial memory accounting:
  | Current value for overall tracked memory usage on task 0  :          24.298 MB
  | Peak value for overall tracked memory usage on task 0     :          26.777 MB after allocating wave
  | Largest tracked array allocation on task 0 so far         :          23.639 MB  when allocating +KS_eigenvector_complex
  Note:  These values currently only include a subset of arrays which are explicitly tracked.
  The "true" memory usage will be greater.
------------------------------------------------------------

------------------------------------------------------------
          Begin self-consistency iteration #    5

  Date     :  20190513, Time     :  135027.721
------------------------------------------------------------
  Evaluating new KS density using the density matrix
  Evaluating density matrix
  Time summed over all CPUs for getting density from density matrix: real work        0.763 s, elapsed        0.763 s
  Integration grid: deviation in total charge (<rho> - N_e) =  -1.207923E-13
  Pulay mixing of updated and previous charge densities.

  Evaluating partitioned Hartree potential by multipole expansion.
  | Analytical far-field extrapolation by fixed multipoles:
  | Hartree multipole sum: apparent total charge =   0.352520E-02
  Summing up the Hartree potential.
  Time summed over all CPUs for potential: real work        0.431 s, elapsed        0.431 s
  | RMS charge density error from multipole expansion :   0.828990E-02
  | Average real-space part of the electrostatic potential :      0.19196210 eV

  Integrating Hamiltonian matrix: batch-based integration.
  Time summed over all CPUs for integration: real work        0.458 s, elapsed        0.458 s

  Updating Kohn-Sham eigenvalues, eigenvectors, occupation numbers, and Fermi level.
  Solving generalized eigenproblem

  Obtaining occupation numbers and chemical potential using ELSI.
  | Chemical potential (Fermi level):    -5.56146807eV
  What follows are estimated values for band gap, HOMO, LUMO, etc.
  | They are estimated on a discrete k-point grid and not necessarily exact.
  | For converged numbers, create a DOS and/or band structure plot on a denser k-grid.

  Highest occupied state (VBM) at     -5.65770966 eV (relative to internal zero)
  | Occupation number:      2.00000000
  | K-point:       1 at    0.000000    0.000000    0.000000 (in units of recip. lattice)

  Lowest unoccupied state (CBM) at    -4.93119229 eV (relative to internal zero)
  | Occupation number:      0.00000000
  | K-point:     105 at    0.000000    0.562500    0.562500 (in units of recip. lattice)

  ESTIMATED overall HOMO-LUMO gap:      0.72651737 eV between HOMO at k-point 1 and LUMO at k-point 105
  | This appears to be an indirect band gap.
  | Smallest direct gap :      1.69439571 eV for k_point 1 at    0.000000    0.562500    0.562500 (in units of recip. lattice)
  The gap value is above 0.2 eV. Unless you are using a very sparse k-point grid,
  this system is most likely an insulator or a semiconductor.

  Total energy components:
  | Sum of eigenvalues            :        -327.50829670 Ha       -8911.95418851 eV
  | XC energy correction          :         -39.61962974 Ha       -1078.10497870 eV
  | XC potential correction       :          52.34430891 Ha        1424.36111627 eV
  | Free-atom electrostatic energy:        -263.62553453 Ha       -7173.61578416 eV
  | Hartree energy correction     :          -0.31865270 Ha          -8.67098101 eV
  | Entropy correction            :          -0.00000000 Ha          -0.00000000 eV
  | ---------------------------
  | Total energy                  :        -578.72780476 Ha      -15747.98481611 eV
  | Total energy, T -> 0          :        -578.72780476 Ha      -15747.98481611 eV  <-- do not rely on this value for anything but (periodic) metals
  | Electronic free energy        :        -578.72780476 Ha      -15747.98481611 eV

  Derived energy quantities:
  | Kinetic energy                :         579.33262323 Ha       15764.44276397 eV
  | Electrostatic energy          :       -1118.44079824 Ha      -30434.32260138 eV
  | Energy correction for multipole
  | error in Hartree potential    :           0.01019692 Ha           0.27747245 eV
  | Sum of eigenvalues per atom                           :       -4455.97709425 eV
  | Total energy (T->0) per atom                          :       -7873.99240806 eV  <-- do not rely on this value for anything but (periodic) metals
  | Electronic free energy per atom                       :       -7873.99240806 eV

  Self-consistency convergence accuracy:
  | Change of charge density      :  0.6022E-02
  | Change of sum of eigenvalues  : -0.7340E+00 eV
  | Change of total energy        :  0.5387E-03 eV

  End self-consistency iteration #     5       :  max(cpu_time)    wall_clock(cpu1)
  | Time for this iteration                    :        2.978 s           2.978 s
  | Charge density update                      :        0.898 s           0.898 s
  | Density mixing & preconditioning           :        0.042 s           0.042 s
  | Hartree multipole update                   :        0.001 s           0.001 s
  | Hartree multipole summation                :        0.434 s           0.434 s
  | Integration                                :        0.458 s           0.458 s
  | Solution of K.-S. eqns.                    :        1.144 s           1.144 s
  | Total energy evaluation                    :        0.000 s           0.001 s

  Partial memory accounting:
  | Current value for overall tracked memory usage on task 0  :          24.298 MB
  | Peak value for overall tracked memory usage on task 0     :          26.777 MB after allocating wave
  | Largest tracked array allocation on task 0 so far         :          23.639 MB  when allocating +KS_eigenvector_complex
  Note:  These values currently only include a subset of arrays which are explicitly tracked.
  The "true" memory usage will be greater.
------------------------------------------------------------

------------------------------------------------------------
          Begin self-consistency iteration #    6

  Date     :  20190513, Time     :  135030.699
------------------------------------------------------------
  Evaluating new KS density using the density matrix
  Evaluating density matrix
  Time summed over all CPUs for getting density from density matrix: real work        0.768 s, elapsed        0.768 s
  Integration grid: deviation in total charge (<rho> - N_e) =  -1.989520E-13
  Pulay mixing of updated and previous charge densities.

  Evaluating partitioned Hartree potential by multipole expansion.
  | Analytical far-field extrapolation by fixed multipoles:
  | Hartree multipole sum: apparent total charge =   0.346917E-02
  Summing up the Hartree potential.
  Time summed over all CPUs for potential: real work        0.428 s, elapsed        0.428 s
  | RMS charge density error from multipole expansion :   0.829967E-02
  | Average real-space part of the electrostatic potential :      0.19162812 eV

  Integrating Hamiltonian matrix: batch-based integration.
  Time summed over all CPUs for integration: real work        0.456 s, elapsed        0.456 s

  Updating Kohn-Sham eigenvalues, eigenvectors, occupation numbers, and Fermi level.
  Solving generalized eigenproblem

  Obtaining occupation numbers and chemical potential using ELSI.
  | Chemical potential (Fermi level):    -5.56176973eV
  What follows are estimated values for band gap, HOMO, LUMO, etc.
  | They are estimated on a discrete k-point grid and not necessarily exact.
  | For converged numbers, create a DOS and/or band structure plot on a denser k-grid.

  Highest occupied state (VBM) at     -5.65804068 eV (relative to internal zero)
  | Occupation number:      2.00000000
  | K-point:       1 at    0.000000    0.000000    0.000000 (in units of recip. lattice)

  Lowest unoccupied state (CBM) at    -4.93134747 eV (relative to internal zero)
  | Occupation number:      0.00000000
  | K-point:     105 at    0.000000    0.562500    0.562500 (in units of recip. lattice)

  ESTIMATED overall HOMO-LUMO gap:      0.72669321 eV between HOMO at k-point 1 and LUMO at k-point 105
  | This appears to be an indirect band gap.
  | Smallest direct gap :      1.69390556 eV for k_point 1 at    0.000000    0.562500    0.562500 (in units of recip. lattice)
  The gap value is above 0.2 eV. Unless you are using a very sparse k-point grid,
  this system is most likely an insulator or a semiconductor.

  Total energy components:
  | Sum of eigenvalues            :        -327.51295092 Ha       -8912.08083623 eV
  | XC energy correction          :         -39.61917827 Ha       -1078.09269335 eV
  | XC potential correction       :          52.34370989 Ha        1424.34481595 eV
  | Free-atom electrostatic energy:        -263.62553453 Ha       -7173.61578416 eV
  | Hartree energy correction     :          -0.31384849 Ha          -8.54025190 eV
  | Entropy correction            :          -0.00000000 Ha          -0.00000000 eV
  | ---------------------------
  | Total energy                  :        -578.72780232 Ha      -15747.98474969 eV
  | Total energy, T -> 0          :        -578.72780232 Ha      -15747.98474969 eV  <-- do not rely on this value for anything but (periodic) metals
  | Electronic free energy        :        -578.72780232 Ha      -15747.98474969 eV

  Derived energy quantities:
  | Kinetic energy                :         579.32605442 Ha       15764.26401771 eV
  | Electrostatic energy          :       -1118.43467847 Ha      -30434.15607405 eV
  | Energy correction for multipole
  | error in Hartree potential    :           0.01020045 Ha           0.27756840 eV
  | Sum of eigenvalues per atom                           :       -4456.04041811 eV
  | Total energy (T->0) per atom                          :       -7873.99237485 eV  <-- do not rely on this value for anything but (periodic) metals
  | Electronic free energy per atom                       :       -7873.99237485 eV

  Self-consistency convergence accuracy:
  | Change of charge density      :  0.4955E-02
  | Change of sum of eigenvalues  : -0.1266E+00 eV
  | Change of total energy        :  0.6642E-04 eV

  End self-consistency iteration #     6       :  max(cpu_time)    wall_clock(cpu1)
  | Time for this iteration                    :        2.971 s           2.971 s
  | Charge density update                      :        0.902 s           0.902 s
  | Density mixing & preconditioning           :        0.043 s           0.043 s
  | Hartree multipole update                   :        0.001 s           0.001 s
  | Hartree multipole summation                :        0.432 s           0.432 s
  | Integration                                :        0.456 s           0.456 s
  | Solution of K.-S. eqns.                    :        1.136 s           1.136 s
  | Total energy evaluation                    :        0.001 s           0.001 s

  Partial memory accounting:
  | Current value for overall tracked memory usage on task 0  :          24.298 MB
  | Peak value for overall tracked memory usage on task 0     :          26.777 MB after allocating wave
  | Largest tracked array allocation on task 0 so far         :          23.639 MB  when allocating +KS_eigenvector_complex
  Note:  These values currently only include a subset of arrays which are explicitly tracked.
  The "true" memory usage will be greater.
------------------------------------------------------------

------------------------------------------------------------
          Begin self-consistency iteration #    7

  Date     :  20190513, Time     :  135033.670
------------------------------------------------------------
  Evaluating new KS density using the density matrix
  Evaluating density matrix
  Time summed over all CPUs for getting density from density matrix: real work        0.763 s, elapsed        0.763 s
  Integration grid: deviation in total charge (<rho> - N_e) =   4.618528E-14
  Pulay mixing of updated and previous charge densities.

  Evaluating partitioned Hartree potential by multipole expansion.
  | Analytical far-field extrapolation by fixed multipoles:
  | Hartree multipole sum: apparent total charge =   0.338720E-02
  Summing up the Hartree potential.
  Time summed over all CPUs for potential: real work        0.430 s, elapsed        0.430 s
  | RMS charge density error from multipole expansion :   0.828385E-02
  | Average real-space part of the electrostatic potential :      0.18969990 eV

  Integrating Hamiltonian matrix: batch-based integration.
  Time summed over all CPUs for integration: real work        0.459 s, elapsed        0.459 s

  Updating Kohn-Sham eigenvalues, eigenvectors, occupation numbers, and Fermi level.
  Solving generalized eigenproblem

  Obtaining occupation numbers and chemical potential using ELSI.
  | Chemical potential (Fermi level):    -5.56386052eV
  What follows are estimated values for band gap, HOMO, LUMO, etc.
  | They are estimated on a discrete k-point grid and not necessarily exact.
  | For converged numbers, create a DOS and/or band structure plot on a denser k-grid.

  Highest occupied state (VBM) at     -5.66096780 eV (relative to internal zero)
  | Occupation number:      2.00000000
  | K-point:       1 at    0.000000    0.000000    0.000000 (in units of recip. lattice)

  Lowest unoccupied state (CBM) at    -4.93242711 eV (relative to internal zero)
  | Occupation number:      0.00000000
  | K-point:     105 at    0.000000    0.562500    0.562500 (in units of recip. lattice)

  ESTIMATED overall HOMO-LUMO gap:      0.72854069 eV between HOMO at k-point 1 and LUMO at k-point 105
  | This appears to be an indirect band gap.
  | Smallest direct gap :      1.69297126 eV for k_point 1 at    0.000000    0.562500    0.562500 (in units of recip. lattice)
  The gap value is above 0.2 eV. Unless you are using a very sparse k-point grid,
  this system is most likely an insulator or a semiconductor.

  Total energy components:
  | Sum of eigenvalues            :        -327.52454953 Ha       -8912.39645040 eV
  | XC energy correction          :         -39.61805495 Ha       -1078.06212652 eV
  | XC potential correction       :          52.34222236 Ha        1424.30433809 eV
  | Free-atom electrostatic energy:        -263.62553453 Ha       -7173.61578416 eV
  | Hartree energy correction     :          -0.30187919 Ha          -8.21455085 eV
  | Entropy correction            :          -0.00000000 Ha          -0.00000000 eV
  | ---------------------------
  | Total energy                  :        -578.72779585 Ha      -15747.98457383 eV
  | Total energy, T -> 0          :        -578.72779585 Ha      -15747.98457383 eV  <-- do not rely on this value for anything but (periodic) metals
  | Electronic free energy        :        -578.72779585 Ha      -15747.98457383 eV

  Derived energy quantities:
  | Kinetic energy                :         579.31291180 Ha       15763.90638876 eV
  | Electrostatic energy          :       -1118.42265270 Ha      -30433.82883607 eV
  | Energy correction for multipole
  | error in Hartree potential    :           0.01016409 Ha           0.27657904 eV
  | Sum of eigenvalues per atom                           :       -4456.19822520 eV
  | Total energy (T->0) per atom                          :       -7873.99228692 eV  <-- do not rely on this value for anything but (periodic) metals
  | Electronic free energy per atom                       :       -7873.99228692 eV

  Self-consistency convergence accuracy:
  | Change of charge density      :  0.4685E-02
  | Change of sum of eigenvalues  : -0.3156E+00 eV
  | Change of total energy        :  0.1759E-03 eV

  End self-consistency iteration #     7       :  max(cpu_time)    wall_clock(cpu1)
  | Time for this iteration                    :        2.972 s           2.972 s
  | Charge density update                      :        0.899 s           0.899 s
  | Density mixing & preconditioning           :        0.043 s           0.043 s
  | Hartree multipole update                   :        0.001 s           0.001 s
  | Hartree multipole summation                :        0.434 s           0.433 s
  | Integration                                :        0.458 s           0.459 s
  | Solution of K.-S. eqns.                    :        1.137 s           1.137 s
  | Total energy evaluation                    :        0.000 s           0.000 s

  Partial memory accounting:
  | Current value for overall tracked memory usage on task 0  :          24.298 MB
  | Peak value for overall tracked memory usage on task 0     :          26.777 MB after allocating wave
  | Largest tracked array allocation on task 0 so far         :          23.639 MB  when allocating +KS_eigenvector_complex
  Note:  These values currently only include a subset of arrays which are explicitly tracked.
  The "true" memory usage will be greater.
------------------------------------------------------------

------------------------------------------------------------
          Begin self-consistency iteration #    8

  Date     :  20190513, Time     :  135036.642
------------------------------------------------------------
  Evaluating new KS density using the density matrix
  Evaluating density matrix
  Time summed over all CPUs for getting density from density matrix: real work        0.758 s, elapsed        0.758 s
  Integration grid: deviation in total charge (<rho> - N_e) =   4.973799E-14
  Pulay mixing of updated and previous charge densities.

  Evaluating partitioned Hartree potential by multipole expansion.
  | Analytical far-field extrapolation by fixed multipoles:
  | Hartree multipole sum: apparent total charge =   0.344052E-02
  Summing up the Hartree potential.
  Time summed over all CPUs for potential: real work        0.427 s, elapsed        0.427 s
  | RMS charge density error from multipole expansion :   0.826251E-02
  | Average real-space part of the electrostatic potential :      0.18460700 eV

  Integrating Hamiltonian matrix: batch-based integration.
  Time summed over all CPUs for integration: real work        0.458 s, elapsed        0.458 s

  Updating Kohn-Sham eigenvalues, eigenvectors, occupation numbers, and Fermi level.
  Solving generalized eigenproblem

  Obtaining occupation numbers and chemical potential using ELSI.
  | Chemical potential (Fermi level):    -5.56825284eV
  What follows are estimated values for band gap, HOMO, LUMO, etc.
  | They are estimated on a discrete k-point grid and not necessarily exact.
  | For converged numbers, create a DOS and/or band structure plot on a denser k-grid.

  Highest occupied state (VBM) at     -5.66706881 eV (relative to internal zero)
  | Occupation number:      2.00000000
  | K-point:       1 at    0.000000    0.000000    0.000000 (in units of recip. lattice)

  Lowest unoccupied state (CBM) at    -4.93456795 eV (relative to internal zero)
  | Occupation number:      0.00000000
  | K-point:     105 at    0.000000    0.562500    0.562500 (in units of recip. lattice)

  ESTIMATED overall HOMO-LUMO gap:      0.73250086 eV between HOMO at k-point 1 and LUMO at k-point 105
  | This appears to be an indirect band gap.
  | Smallest direct gap :      1.69084654 eV for k_point 1 at    0.000000    0.562500    0.562500 (in units of recip. lattice)
  The gap value is above 0.2 eV. Unless you are using a very sparse k-point grid,
  this system is most likely an insulator or a semiconductor.

  Total energy components:
  | Sum of eigenvalues            :        -327.55090687 Ha       -8913.11367024 eV
  | XC energy correction          :         -39.61543165 Ha       -1077.99074285 eV
  | XC potential correction       :          52.33874920 Ha        1424.20982863 eV
  | Free-atom electrostatic energy:        -263.62553453 Ha       -7173.61578416 eV
  | Hartree energy correction     :          -0.27465966 Ha          -7.47386948 eV
  | Entropy correction            :          -0.00000000 Ha          -0.00000000 eV
  | ---------------------------
  | Total energy                  :        -578.72778352 Ha      -15747.98423811 eV
  | Total energy, T -> 0          :        -578.72778352 Ha      -15747.98423811 eV  <-- do not rely on this value for anything but (periodic) metals
  | Electronic free energy        :        -578.72778352 Ha      -15747.98423811 eV

  Derived energy quantities:
  | Kinetic energy                :         579.28173305 Ha       15763.05797177 eV
  | Electrostatic energy          :       -1118.39408491 Ha      -30433.05146702 eV
  | Energy correction for multipole
  | error in Hartree potential    :           0.01009872 Ha           0.27480021 eV
  | Sum of eigenvalues per atom                           :       -4456.55683512 eV
  | Total energy (T->0) per atom                          :       -7873.99211905 eV  <-- do not rely on this value for anything but (periodic) metals
  | Electronic free energy per atom                       :       -7873.99211905 eV

  Self-consistency convergence accuracy:
  | Change of charge density      :  0.4012E-02
  | Change of sum of eigenvalues  : -0.7172E+00 eV
  | Change of total energy        :  0.3357E-03 eV

  End self-consistency iteration #     8       :  max(cpu_time)    wall_clock(cpu1)
  | Time for this iteration                    :        2.963 s           2.963 s
  | Charge density update                      :        0.892 s           0.892 s
  | Density mixing & preconditioning           :        0.042 s           0.042 s
  | Hartree multipole update                   :        0.001 s           0.001 s
  | Hartree multipole summation                :        0.430 s           0.430 s
  | Integration                                :        0.458 s           0.458 s
  | Solution of K.-S. eqns.                    :        1.139 s           1.140 s
  | Total energy evaluation                    :        0.000 s           0.000 s

  Partial memory accounting:
  | Current value for overall tracked memory usage on task 0  :          24.299 MB
  | Peak value for overall tracked memory usage on task 0     :          26.777 MB after allocating wave
  | Largest tracked array allocation on task 0 so far         :          23.639 MB  when allocating +KS_eigenvector_complex
  Note:  These values currently only include a subset of arrays which are explicitly tracked.
  The "true" memory usage will be greater.
------------------------------------------------------------

------------------------------------------------------------
          Begin self-consistency iteration #    9

  Date     :  20190513, Time     :  135039.605
------------------------------------------------------------
  Evaluating new KS density using the density matrix
  Evaluating density matrix
  Time summed over all CPUs for getting density from density matrix: real work        0.763 s, elapsed        0.763 s
  Integration grid: deviation in total charge (<rho> - N_e) =   7.815970E-14
  Pulay mixing of updated and previous charge densities.

  Evaluating partitioned Hartree potential by multipole expansion.
  | Analytical far-field extrapolation by fixed multipoles:
  | Hartree multipole sum: apparent total charge =   0.344588E-02
  Summing up the Hartree potential.
  Time summed over all CPUs for potential: real work        0.431 s, elapsed        0.431 s
  | RMS charge density error from multipole expansion :   0.824495E-02
  | Average real-space part of the electrostatic potential :      0.18134356 eV

  Integrating Hamiltonian matrix: batch-based integration.
  Time summed over all CPUs for integration: real work        0.458 s, elapsed        0.458 s

  Updating Kohn-Sham eigenvalues, eigenvectors, occupation numbers, and Fermi level.
  Solving generalized eigenproblem

  Obtaining occupation numbers and chemical potential using ELSI.
  | Chemical potential (Fermi level):    -5.57120844eV
  What follows are estimated values for band gap, HOMO, LUMO, etc.
  | They are estimated on a discrete k-point grid and not necessarily exact.
  | For converged numbers, create a DOS and/or band structure plot on a denser k-grid.

  Highest occupied state (VBM) at     -5.67119267 eV (relative to internal zero)
  | Occupation number:      2.00000000
  | K-point:       1 at    0.000000    0.000000    0.000000 (in units of recip. lattice)

  Lowest unoccupied state (CBM) at    -4.93602737 eV (relative to internal zero)
  | Occupation number:      0.00000000
  | K-point:     105 at    0.000000    0.562500    0.562500 (in units of recip. lattice)

  ESTIMATED overall HOMO-LUMO gap:      0.73516530 eV between HOMO at k-point 1 and LUMO at k-point 105
  | This appears to be an indirect band gap.
  | Smallest direct gap :      1.68949129 eV for k_point 1 at    0.000000    0.562500    0.562500 (in units of recip. lattice)
  The gap value is above 0.2 eV. Unless you are using a very sparse k-point grid,
  this system is most likely an insulator or a semiconductor.

  Total energy components:
  | Sum of eigenvalues            :        -327.56798302 Ha       -8913.57833577 eV
  | XC energy correction          :         -39.61374130 Ha       -1077.94474596 eV
  | XC potential correction       :          52.33651124 Ha        1424.14893066 eV
  | Free-atom electrostatic energy:        -263.62553453 Ha       -7173.61578416 eV
  | Hartree energy correction     :          -0.25702963 Ha          -6.99413219 eV
  | Entropy correction            :          -0.00000000 Ha          -0.00000000 eV
  | ---------------------------
  | Total energy                  :        -578.72777724 Ha      -15747.98406743 eV
  | Total energy, T -> 0          :        -578.72777724 Ha      -15747.98406743 eV  <-- do not rely on this value for anything but (periodic) metals
  | Electronic free energy        :        -578.72777724 Ha      -15747.98406743 eV

  Derived energy quantities:
[...]
  | Total energy evaluation                    :        0.001 s           0.001 s

  Partial memory accounting:
  | Current value for overall tracked memory usage on task 0  :          24.299 MB
  | Peak value for overall tracked memory usage on task 0     :          26.777 MB after allocating wave
  | Largest tracked array allocation on task 0 so far         :          23.639 MB  when allocating +KS_eigenvector_complex
  Note:  These values currently only include a subset of arrays which are explicitly tracked.
  The "true" memory usage will be greater.
------------------------------------------------------------

------------------------------------------------------------
          Begin self-consistency iteration #   10

  Date     :  20190513, Time     :  135042.699
------------------------------------------------------------
  Evaluating new KS density using the density matrix
  Evaluating density matrix
  Time summed over all CPUs for getting density from density matrix: real work        0.770 s, elapsed        0.770 s
  Integration grid: deviation in total charge (<rho> - N_e) =   3.552714E-15
  Pulay mixing of updated and previous charge densities.

  Evaluating partitioned Hartree potential by multipole expansion.
  | Analytical far-field extrapolation by fixed multipoles:
  | Hartree multipole sum: apparent total charge =   0.343713E-02
  Summing up the Hartree potential.
  Time summed over all CPUs for potential: real work        0.452 s, elapsed        0.452 s
  | RMS charge density error from multipole expansion :   0.822729E-02
  | Average real-space part of the electrostatic potential :      0.17696987 eV

  Integrating Hamiltonian matrix: batch-based integration.
  Time summed over all CPUs for integration: real work        0.513 s, elapsed        0.513 s

  Updating Kohn-Sham eigenvalues, eigenvectors, occupation numbers, and Fermi level.
  Solving generalized eigenproblem

  Obtaining occupation numbers and chemical potential using ELSI.
  | Chemical potential (Fermi level):    -5.57513381eV
  What follows are estimated values for band gap, HOMO, LUMO, etc.
  | They are estimated on a discrete k-point grid and not necessarily exact.
  | For converged numbers, create a DOS and/or band structure plot on a denser k-grid.

  Highest occupied state (VBM) at     -5.67662933 eV (relative to internal zero)
  | Occupation number:      2.00000000
  | K-point:       1 at    0.000000    0.000000    0.000000 (in units of recip. lattice)

  Lowest unoccupied state (CBM) at    -4.93795536 eV (relative to internal zero)
  | Occupation number:      0.00000000
  | K-point:     105 at    0.000000    0.562500    0.562500 (in units of recip. lattice)

  ESTIMATED overall HOMO-LUMO gap:      0.73867397 eV between HOMO at k-point 1 and LUMO at k-point 105
  | This appears to be an indirect band gap.
  | Smallest direct gap :      1.68756452 eV for k_point 1 at    0.000000    0.562500    0.562500 (in units of recip. lattice)
  The gap value is above 0.2 eV. Unless you are using a very sparse k-point grid,
  this system is most likely an insulator or a semiconductor.

  Total energy components:
  | Sum of eigenvalues            :        -327.59178608 Ha       -8914.22605008 eV
  | XC energy correction          :         -39.61139333 Ha       -1077.88085435 eV
  | XC potential correction       :          52.33340213 Ha        1424.06432742 eV
  | Free-atom electrostatic energy:        -263.62553453 Ha       -7173.61578416 eV
  | Hartree energy correction     :          -0.23245889 Ha          -6.32552823 eV
  | Entropy correction            :          -0.00000000 Ha          -0.00000000 eV
  | ---------------------------
  | Total energy                  :        -578.72777070 Ha      -15747.98388940 eV
  | Total energy, T -> 0          :        -578.72777070 Ha      -15747.98388940 eV  <-- do not rely on this value for anything but (periodic) metals
  | Electronic free energy        :        -578.72777070 Ha      -15747.98388940 eV

  Derived energy quantities:
  | Kinetic energy                :         579.23351720 Ha       15761.74595175 eV
  | Electrostatic energy          :       -1118.34989457 Ha      -30431.84898680 eV
  | Energy correction for multipole
  | error in Hartree potential    :           0.00999425 Ha           0.27195741 eV
  | Sum of eigenvalues per atom                           :       -4457.11302504 eV
  | Total energy (T->0) per atom                          :       -7873.99194470 eV  <-- do not rely on this value for anything but (periodic) metals
  | Electronic free energy per atom                       :       -7873.99194470 eV

  Self-consistency convergence accuracy:
  | Change of charge density      :  0.1422E-02
  | Change of sum of eigenvalues  : -0.6477E+00 eV
  | Change of total energy        :  0.1780E-03 eV

  End self-consistency iteration #    10       :  max(cpu_time)    wall_clock(cpu1)
  | Time for this iteration                    :        3.073 s           3.073 s
  | Charge density update                      :        0.907 s           0.907 s
  | Density mixing & preconditioning           :        0.046 s           0.046 s
  | Hartree multipole update                   :        0.001 s           0.000 s
  | Hartree multipole summation                :        0.456 s           0.456 s
  | Integration                                :        0.512 s           0.513 s
  | Solution of K.-S. eqns.                    :        1.150 s           1.150 s
  | Total energy evaluation                    :        0.001 s           0.001 s

  Partial memory accounting:
  | Current value for overall tracked memory usage on task 0  :          24.299 MB
  | Peak value for overall tracked memory usage on task 0     :          26.777 MB after allocating wave
  | Largest tracked array allocation on task 0 so far         :          23.639 MB  when allocating +KS_eigenvector_complex
  Note:  These values currently only include a subset of arrays which are explicitly tracked.
  The "true" memory usage will be greater.
------------------------------------------------------------

------------------------------------------------------------
          Begin self-consistency iteration #   11

  Date     :  20190513, Time     :  135045.772
------------------------------------------------------------
  Evaluating new KS density using the density matrix
  Evaluating density matrix
  Time summed over all CPUs for getting density from density matrix: real work        0.852 s, elapsed        0.852 s
  Integration grid: deviation in total charge (<rho> - N_e) =   4.263256E-14
  Pulay mixing of updated and previous charge densities.

  Evaluating partitioned Hartree potential by multipole expansion.
  | Analytical far-field extrapolation by fixed multipoles:
  | Hartree multipole sum: apparent total charge =   0.343456E-02
  Summing up the Hartree potential.
  Time summed over all CPUs for potential: real work        0.570 s, elapsed        0.570 s
  | RMS charge density error from multipole expansion :   0.822728E-02
  | Average real-space part of the electrostatic potential :      0.17697370 eV

  Integrating Hamiltonian matrix: batch-based integration.
  Time summed over all CPUs for integration: real work        0.543 s, elapsed        0.543 s

  Updating Kohn-Sham eigenvalues, eigenvectors, occupation numbers, and Fermi level.
  Solving generalized eigenproblem

  Obtaining occupation numbers and chemical potential using ELSI.
  | Chemical potential (Fermi level):    -5.57513698eV
  What follows are estimated values for band gap, HOMO, LUMO, etc.
  | They are estimated on a discrete k-point grid and not necessarily exact.
  | For converged numbers, create a DOS and/or band structure plot on a denser k-grid.

  Highest occupied state (VBM) at     -5.67663307 eV (relative to internal zero)
  | Occupation number:      2.00000000
  | K-point:       1 at    0.000000    0.000000    0.000000 (in units of recip. lattice)

  Lowest unoccupied state (CBM) at    -4.93795789 eV (relative to internal zero)
  | Occupation number:      0.00000000
  | K-point:     105 at    0.000000    0.562500    0.562500 (in units of recip. lattice)

  ESTIMATED overall HOMO-LUMO gap:      0.73867517 eV between HOMO at k-point 1 and LUMO at k-point 105
  | This appears to be an indirect band gap.
  | Smallest direct gap :      1.68756370 eV for k_point 1 at    0.000000    0.562500    0.562500 (in units of recip. lattice)
  The gap value is above 0.2 eV. Unless you are using a very sparse k-point grid,
  this system is most likely an insulator or a semiconductor.

  Total energy components:
  | Sum of eigenvalues            :        -327.59179371 Ha       -8914.22625758 eV
  | XC energy correction          :         -39.61139386 Ha       -1077.88086896 eV
  | XC potential correction       :          52.33340282 Ha        1424.06434643 eV
  | Free-atom electrostatic energy:        -263.62553453 Ha       -7173.61578416 eV
  | Hartree energy correction     :          -0.23245142 Ha          -6.32532502 eV
  | Entropy correction            :          -0.00000000 Ha          -0.00000000 eV
  | ---------------------------
  | Total energy                  :        -578.72777070 Ha      -15747.98388930 eV
  | Total energy, T -> 0          :        -578.72777070 Ha      -15747.98388930 eV  <-- do not rely on this value for anything but (periodic) metals
  | Electronic free energy        :        -578.72777070 Ha      -15747.98388930 eV

  Derived energy quantities:
  | Kinetic energy                :         579.23351637 Ha       15761.74592912 eV
  | Electrostatic energy          :       -1118.34989320 Ha      -30431.84894946 eV
  | Energy correction for multipole
  | error in Hartree potential    :           0.00999415 Ha           0.27195473 eV
  | Sum of eigenvalues per atom                           :       -4457.11312879 eV
  | Total energy (T->0) per atom                          :       -7873.99194465 eV  <-- do not rely on this value for anything but (periodic) metals
  | Electronic free energy per atom                       :       -7873.99194465 eV

  Self-consistency convergence accuracy:
  | Change of charge density      :  0.5931E-06
  | Change of sum of eigenvalues  : -0.2075E-03 eV
  | Change of total energy        :  0.1072E-06 eV

  Preliminary charge convergence reached. Turning off preconditioner.

  Writing Kohn-Sham eigenvalues.
  K-point:       1 at    0.000000    0.000000    0.000000 (in units of recip. lattice)

  State    Occupation    Eigenvalue [Ha]    Eigenvalue [eV]
      1       2.00000         -65.498263        -1782.29842
      2       2.00000         -65.498263        -1782.29842
      3       2.00000          -5.099279         -138.75843
      4       2.00000          -5.099135         -138.75451
      5       2.00000          -3.513085          -95.59591
      6       2.00000          -3.513085          -95.59591
      7       2.00000          -3.513085          -95.59591
      8       2.00000          -3.512741          -95.58655
      9       2.00000          -3.512741          -95.58655
     10       2.00000          -3.512741          -95.58655
     11       2.00000          -0.613964          -16.70680
     12       2.00000          -0.208612           -5.67663
     13       2.00000          -0.208612           -5.67663
     14       2.00000          -0.208612           -5.67663
     15       0.00000          -0.146596           -3.98907
     16       0.00000          -0.117041           -3.18484
     17       0.00000          -0.117041           -3.18484
     18       0.00000          -0.117041           -3.18484
     19       0.00000           0.081467            2.21682
     20       0.00000           0.081467            2.21682

  What follows are estimated values for band gap, HOMO, LUMO, etc.
  | They are estimated on a discrete k-point grid and not necessarily exact.
  | For converged numbers, create a DOS and/or band structure plot on a denser k-grid.

  Highest occupied state (VBM) at     -5.67663307 eV (relative to internal zero)
  | Occupation number:      2.00000000
  | K-point:       1 at    0.000000    0.000000    0.000000 (in units of recip. lattice)

  Lowest unoccupied state (CBM) at    -4.93795789 eV (relative to internal zero)
  | Occupation number:      0.00000000
  | K-point:     105 at    0.000000    0.562500    0.562500 (in units of recip. lattice)

  ESTIMATED overall HOMO-LUMO gap:      0.73867517 eV between HOMO at k-point 1 and LUMO at k-point 105
  | This appears to be an indirect band gap.
  | Smallest direct gap :      1.68756370 eV for k_point 1 at    0.000000    0.562500    0.562500 (in units of recip. lattice)
  The gap value is above 0.2 eV. Unless you are using a very sparse k-point grid,
  this system is most likely an insulator or a semiconductor.

  Self-consistency cycle converged.

  End self-consistency iteration #    11       :  max(cpu_time)    wall_clock(cpu1)
  | Time for this iteration                    :        3.314 s           3.314 s
  | Charge density update                      :        0.991 s           0.991 s
  | Density mixing                             :        0.059 s           0.059 s
  | Hartree multipole update                   :        0.003 s           0.003 s
  | Hartree multipole summation                :        0.574 s           0.574 s
  | Integration                                :        0.544 s           0.543 s
  | Solution of K.-S. eqns.                    :        1.143 s           1.143 s
  | Total energy evaluation                    :        0.001 s           0.001 s

  Partial memory accounting:
  | Current value for overall tracked memory usage on task 0  :          24.299 MB
  | Peak value for overall tracked memory usage on task 0     :          26.777 MB after allocating wave
  | Largest tracked array allocation on task 0 so far         :          23.639 MB  when allocating +KS_eigenvector_complex
  Note:  These values currently only include a subset of arrays which are explicitly tracked.
  The "true" memory usage will be greater.
------------------------------------------------------------

  Energy and forces in a compact form:
  | Total energy uncorrected      :         -0.157479838892969E+05 eV
  | Total energy corrected        :         -0.157479838892969E+05 eV  <-- do not rely on this value for anything but (periodic) metals
  | Electronic free energy        :         -0.157479838892969E+05 eV

  ------------------------------------ 
  Start decomposition of the XC Energy 
  ------------------------------------ 
  X and C from original XC functional choice 
  Hartree-Fock Energy :          0.000000000 Ha              0.000000000 eV
  X Energy            :        -37.472574439 Ha          -1019.680631275 eV
  C Energy            :         -2.138819423 Ha            -58.200237683 eV
  Total XC Energy     :        -39.611393862 Ha          -1077.880868958 eV
  ------------------------------------ 
  LDA X and C from self-consistent density 
  X Energy LDA        :        -37.472574439 Ha          -1019.680631275 eV
  C Energy LDA        :         -2.138819423 Ha            -58.200237683 eV
  ------------------------------------ 
  End decomposition of the XC Energy 
  ------------------------------------ 

------------------------------------------------------------

------------------------------------------------------------------------------
  Final output of selected total energy values:

  The following output summarizes some interesting total energy values
  at the end of a run (AFTER all relaxation, molecular dynamics, etc.).

  | Total energy of the DFT / Hartree-Fock s.c.f. calculation      :         -15747.983889297 eV
  | Final zero-broadening corrected energy (caution - metals only) :         -15747.983889297 eV
  | For reference only, the value of 1 Hartree used in FHI-aims is :             27.211384500 eV

  Before relying on these values, please be sure to understand exactly which
  total energy value is referred to by a given number. Different objects may
  all carry the same name 'total energy'. Definitions:

  Total energy of the DFT / Hartree-Fock s.c.f. calculation:
  | Note that this energy does not include ANY quantities calculated after the
  | s.c.f. cycle, in particular not ANY RPA, MP2, etc. many-body perturbation terms.

  Final zero-broadening corrected energy:
  | For metallic systems only, a broadening of the occupation numbers at the Fermi
  | level can be extrapolated back to zero broadening by an electron-gas inspired
  | formula. For all systems that are not real metals, this value can be
  | meaningless and should be avoided.

------------------------------------------------------------------------------
  Methods described in the following list of references were used in this FHI-aims run.
  If you publish the results, please make sure to cite these reference if they apply.
  FHI-aims is an academic code, and for our developers (often, Ph.D. students
  and postdocs), scientific credit in the community is essential.
  Thank you for helping us!

  For any use of FHI-aims, please cite:

    Volker Blum, Ralf Gehrke, Felix Hanke, Paula Havu, Ville Havu,
    Xinguo Ren, Karsten Reuter, and Matthias Scheffler
    'Ab initio molecular simulations with numeric atom-centered orbitals'
    Computer Physics Communications 180, 2175-2196 (2009)
    http://dx.doi.org/10.1016/j.cpc.2009.06.022


  For the real-space grid partitioning and parallelization used in this calculation, please cite:

    Ville Havu, Volker Blum, Paula Havu, and Matthias Scheffler,
    'Efficient O(N) integration for all-electron electronic structure calculation'
    'using numerically tabulated basis functions'
    Journal of Computational Physics 228, 8367-8379 (2009).
    http://dx.doi.org/10.1016/j.jcp.2009.08.008

  Of course, there are many other important community references, e.g., those cited in the
  above references. Our list is limited to references that describe implementations in the
  FHI-aims code. The reason is purely practical (length of this list) - please credit others as well.

------------------------------------------------------------
          Leaving FHI-aims.
          Date     :  20190513, Time     :  135049.094

          Computational steps:
          | Number of self-consistency cycles          :           11
          | Number of SCF (re)initializations          :            1

          Detailed time accounting                     :  max(cpu_time)    wall_clock(cpu1)
          | Total time                                 :       36.663 s          36.663 s
          | Preparation time                           :        0.094 s           0.094 s
          | Boundary condition initalization           :        0.050 s           0.050 s
          | Grid partitioning                          :        0.028 s           0.027 s
          | Preloading free-atom quantities on grid    :        0.001 s           0.001 s
          | Free-atom superposition energy             :        0.026 s           0.026 s
          | Total time for integrations                :        5.981 s           5.981 s
          | Total time for solution of K.-S. equations :       15.005 s          15.007 s
          | Total time for density update              :        9.979 s           9.979 s
          | Total time for mixing & preconditioning    :        0.495 s           0.495 s
          | Total time for Hartree multipole update    :        0.010 s           0.010 s
          | Total time for Hartree multipole sum       :        4.847 s           4.846 s
          | Total time for total energy evaluation     :        0.007 s           0.007 s
          | Total time for scaled ZORA corrections     :        0.000 s           0.000 s

 This is a stub MPI_ALLREDUCE call.
 You should not be here. Check your
 setting on the use_mpi variable, or
 link against true MPI-libraries.
