------------------------------------------------------------
          Invoking FHI-aims ...
          Version 171221_1
          Compiled on 2019/05/06 at 14:26:40 on host ffph0xx.

          When using FHI-aims, please cite the following reference:

          Volker Blum, Ralf Gehrke, Felix Hanke, Paula Havu,
          Ville Havu, Xinguo Ren, Karsten Reuter, and Matthias Scheffler,
          'Ab Initio Molecular Simulations with Numeric Atom-Centered Orbitals',
          Computer Physics Communications 180, 2175-2196 (2009)

          For any questions about FHI-aims, please visit the aimsclub website
          with its forums and wiki. Contributions to both the forums and the
          wiki are warmly encouraged - they are for you, and everyone is welcome there.

------------------------------------------------------------



  Date     :  20190514, Time     :  105011.415
  Time zero on CPU 1             :   0.640000000000000E-03  s.
  Internal wall clock time zero  :           327063011.415  s.

  FHI-aims created a unique identifier for this run for later identification
  aims_uuid : 7C259B94-9917-4460-AF69-A8EC7BAC90C1


  Performing system and environment tests:
  *** Environment variable OMP_NUM_THREADS is not set
  *** For performance reasons you might want to set it to 1
  | Stacksize not measured: no C compiler

  Obtaining array dimensions for all initial allocations:
  
  -----------------------------------------------------------------------
  Parsing control.in (first pass over file, find array dimensions only).
  The contents of control.in will be repeated verbatim below
  unless switched off by setting 'verbatim_writeout .false.' .
  in the first line of control.in .
  -----------------------------------------------------------------------
  
  #--- method ---
  xc pw-lda
  spin none
  relativistic atomic_zora scalar
  #---
  
  #--- k-grid settings ---
  k_grid 12 12 12
  #---
  
  
  
  
  
  
  
  
  
  
  
  #-------------------------------------------------------------------------------
  #--- Species defaults for Si
  #-------------------------------------------------------------------------------
  
  ################################################################################
  #
  #  FHI-aims code project
  #  VB, Fritz-Haber Institut, 2009
  #
  #  Suggested "light" defaults for Si atom (to be pasted into control.in file)
  #  Be sure to double-check any results obtained with these settings for post-processing,
  #  e.g., with the "tight" defaults and larger basis sets.
  #
  ################################################################################
    species        Si
  #     global species definitions
      nucleus             14
      mass                28.0855
  #
      l_hartree           4
  #
      cut_pot             3.5          1.5  1.0
      basis_dep_cutoff    1e-4
  #
      radial_base         42 5.0
      radial_multiplier   1
      angular_grids       specified
        division   0.5866   50
        division   0.9616  110
        division   1.2249  194
        division   1.3795  302
  #      division   1.4810  434
  #      division   1.5529  590
  #      division   1.6284  770
  #      division   1.7077  974
  #      division   2.4068 1202
  #      outer_grid   974
        outer_grid 302
  ################################################################################
  #
  #  Definition of "minimal" basis
  #
  ################################################################################
  #     valence basis states
      valence      3  s   2.
      valence      3  p   2.
  #     ion occupancy
      ion_occ      3  s   1.
      ion_occ      3  p   1.
  ################################################################################
  #
  #  Suggested additional basis functions. For production calculations,
  #  uncomment them one after another (the most important basis functions are
  #  listed first).
  #
  #  Constructed for dimers: 1.75 A, 2.0 A, 2.25 A, 2.75 A, 3.75 A
  #
  ################################################################################
  #  "First tier" - improvements: -571.96 meV to -37.03 meV
       hydro 3 d 4.2
       hydro 2 p 1.4
  #     hydro 4 f 6.2
       ionic 3 s auto
  #  "Second tier" - improvements: -16.76 meV to -3.03 meV
  #     hydro 3 d 9
  #     hydro 5 g 9.4
  #     hydro 4 p 4
  #     hydro 1 s 0.65
  #  "Third tier" - improvements: -3.89 meV to -0.60 meV
  #     ionic 3 d auto
  #     hydro 3 s 2.6
  #     hydro 4 f 8.4
  #     hydro 3 d 3.4
  #     hydro 3 p 7.8
  #  "Fourth tier" - improvements: -0.33 meV to -0.11 meV
  #     hydro 2 p 1.6
  #     hydro 5 g 10.8
  #     hydro 5 f 11.2
  #     hydro 3 d 1
  #     hydro 4 s 4.5
  #  Further basis functions that fell out of the optimization - noise
  #  level... < -0.08 meV
  #     hydro 4 d 6.6
  #     hydro 5 g 16.4
  #     hydro 4 d 9
  
  -----------------------------------------------------------------------
  Completed first pass over input file control.in .
  -----------------------------------------------------------------------
  
  
  -----------------------------------------------------------------------
  Parsing geometry.in (first pass over file, find array dimensions only).
  The contents of geometry.in will be repeated verbatim below
  unless switched off by setting 'verbatim_writeout .false.' .
  in the first line of geometry.in .
  -----------------------------------------------------------------------
  
  lattice_vector   0.000000   2.600000   2.600000
  lattice_vector   2.600000   0.000000   2.600000
  lattice_vector   2.600000   2.600000   0.000000
  atom_frac   0.000000   0.000000   0.000000 Si
  
  -----------------------------------------------------------------------
  Completed first pass over input file geometry.in .
  -----------------------------------------------------------------------
  

  Basic array size parameters:
  | Number of species                 :        1
  | Number of atoms                   :        1
  | Number of lattice vectors         :        3
  | Max. basis fn. angular momentum   :        2
  | Max. atomic/ionic basis occupied n:        3
  | Max. number of basis fn. types    :        3
  | Max. radial fns per species/type  :        5
  | Max. logarithmic grid size        :     1346
  | Max. radial integration grid size :       42
  | Max. angular integration grid size:      302
  | Max. angular grid division number :        8
  | Radial grid for Hartree potential :     1346
  | Number of spin channels           :        1

------------------------------------------------------------
          Reading file control.in.
------------------------------------------------------------
  XC: Using Perdew-Wang parametrisation of Ceperley-Alder LDA.
  Spin treatment: No spin polarisation.
  Scalar relativistic treatment of kinetic energy: on-site free-atom approximation to ZORA.
  Found k-point grid:        12        12        12

  Reading configuration options for species Si                  .
  | Found nuclear charge :  14.0000
  | Found atomic mass :    28.085500000000000      amu
  | Found l_max for Hartree potential  :   4
  | Found cutoff potl. onset [A], width [A], scale factor :    3.50000    1.50000    1.00000
  | Threshold for basis-dependent cutoff potential is   0.100000E-03
  | Found data for basic radial integration grid :    42 points, outermost radius =    5.000 A
  | Found multiplier for basic radial grid :   1
  | Found angular grid specification: user-specified.
  | Specified grid contains     5 separate shells.
  | Check grid settings after all constraints further below.
  | Found free-atom valence shell :  3 s   2.000
  | Found free-atom valence shell :  3 p   2.000
  | Found free-ion valence shell :  3 s   1.000
  | Found free-ion valence shell :  3 p   1.000
  | Found hydrogenic basis function :  3 d   4.200
  | Found hydrogenic basis function :  2 p   1.400
  | Found ionic basis function :  3 s , default cutoff radius.
  Species Si                  : Missing cutoff potential type.
  Defaulting to exp(1/x)/(1-x)^2 type cutoff potential.
  Species Si: No 'logarithmic' tag. Using default grid for free atom:
  | Default logarithmic grid data [bohr] : 0.1000E-03 0.1000E+03 0.1012E+01
  | Will include ionic basis functions of  2.0-fold positive Si                   ion.
  Species Si: On-site basis accuracy parameter (for Gram-Schmidt orthonormalisation) not specified.
  Using default value basis_acc =  0.1000000E-03.
  Species Si                  : Using default innermost maximum threshold i_radial=  2 for radial functions.
  Species Si                  : Default cutoff onset for free atom density etc. : 0.35000000E+01 AA.
  Species Si                  : Basic radial grid will be enhanced according to radial_multiplier =   1, to contain    42 grid points.

  Finished reading input file 'control.in'. Consistency checks are next.

  MPI_IN_PLACE appears to work with this MPI implementation.
  | Keeping use_mpi_in_place .true. (see manual).
  Target number of points in a grid batch is not set. Defaulting to  100
  Method for grid partitioning is not set. Defaulting to 'maxmin' partitioning.
  Batch size limit is not set. Defaulting to    200
  By default, will store active basis functions for each batch.
  If in need of memory, prune_basis_once .false. can be used to disable this option.
  communication_type for Hartree potential was not specified.
  Defaulting to calc_hartree .
 * Attention: 
 * You may want to set distributed_spline_storage to .true. in order to save memory.
 * This doesn't harm performance and is perfectly ok unless:
 * - you get error messages in postprocessing (about missing atoms in get_rho_multipole_spl)
 * - you need full spline storage in hirshfeld_analysis
  Defaulting to Pulay charge density mixer.
  Pulay mixer: Number of relevant iterations not set.
  Defaulting to    8 iterations.
  Pulay mixer: Number of initial linear mixing iterations not set.
  Defaulting to    0 iterations.
  Work space size for distributed Hartree potential not set.
  Defaulting to   0.200000E+03 MB.
  Mixing parameter for charge density mixing has not been set.
  Using default: charge_mix_param =     0.0500.
  The mixing parameter will be adjusted in iteration number     2 of the first full s.c.f. cycle only.
  Algorithm-dependent basis array size parameters:
  | n_max_pulay                         :        8
 * Notice: The s.c.f. convergence criterion sc_accuracy_rho was not provided.
 * We used to stop in this case, and ask the user to provide reasonable
 * scf convergence criteria. However, this led some users to employ criteria
 * that led to extremely long run times, e.g., for simple relaxation.
 * We now preset a default value for sc_accuracy_rho if it is not set.
 * You may still wish to check if this setting is too tight or too loose for your needs.
 * Based on n_atoms, FHI-aims chose sc_accuracy_rho =  0.100000E-05 .
  Maximum number of self-consistency iterations not provided.
  Presetting  1000 iterations.
  Presetting      1001 iterations before the initial mixing cycle
  is restarted anyway using the sc_init_iter criterion / keyword.
  Presetting a factor      1.000 between actual scf density residual
  and density convergence criterion sc_accuracy_rho below which sc_init_iter
  takes no effect.
 * No s.c.f. convergence criteria (sc_accuracy_*) were provided in control.in.
 * The run will proceed with a reasonable default guess, but please check whether.
 * the s.c.f. cycles seem to take too much or too little time.
  Calculation of forces was not defined in control.in. No forces will be calculated.
  Geometry relaxation not requested: no relaxation will be performed.
  No accuracy limit for integral partition fn. given. Defaulting to  0.1000E-14.
  No threshold value for u(r) in integrations given. Defaulting to  0.1000E-05.
  No occupation type (smearing scheme) given. Defaulting to Gaussian broadening, width =  0.1000E-01 eV.
  The width will be adjusted in iteration number     2 of the first full s.c.f. cycle only.
  S.C.F. convergence parameters will be adjusted in iteration number     2 of the first full s.c.f. cycle only.
  No accuracy for occupation numbers given. Defaulting to  0.1000E-12.
  No threshold value for occupation numbers given. Defaulting to  0.0000E+00.
  No accuracy for fermi level given. Defaulting to  0.1000E-19.
  Maximum # of iterations to find E_F not set. Defaulting to  200.
  Preferred method for the eigenvalue solver ('KS_method') not specified in 'control.in'.
  Defaulting to serial version, 'lapack_fast'.
  Will not use alltoall communication since running on < 1024 CPUs.
  Threshold for basis singularities not set.
  Default threshold for basis singularities:  0.1000E-04
  partition_type (choice of integration weights) for integrals was not specified.
  | Using a version of the partition function of Stratmann and coworkers ('stratmann_smoother').
  | At each grid point, the set of atoms used to build the partition table is smoothly restricted to
  | only those atoms whose free-atom density would be non-zero at that grid point.
  Partitioning for Hartree potential was not defined. Using partition_type for integrals.
  | Adjusted default value of keyword multip_moments_threshold to:       0.10000000E-11
  | This value may affect high angular momentum components of the Hartree potential in periodic systems.
  Angular momentum expansion for Kerker preconditioner not set explicitly.
  | Using default value of   0
  No explicit requirement for turning off preconditioner.
  | By default, it will be turned off when the charge convergence reaches
  | sc_accuracy_rho  =   0.100000E-05
  No special mixing parameter while Kerker preconditioner is on.
  Using default: charge_mix_param =     0.0500.
  No q(lm)/r^(l+1) cutoff set for long-range Hartree potential.
  | Using default value of  0.100000E-09 .
  | Verify using the multipole_threshold keyword.
  Defaulting to new monopole extrapolation.
  Density update method: automatic selection selected.
  Using density matrix based charge density update.
  Using density matrix based charge density update.
  Using packed matrix style: index .
  Defaulting to use time-reversal symmetry for k-point grid.
------------------------------------------------------------


------------------------------------------------------------
          Reading geometry description geometry.in.
------------------------------------------------------------
  Input structure read successfully.
  The structure contains        1 atoms,  and a total of         14.000 electrons.

  Input geometry:
  | Unit cell:
  |        0.00000000        2.60000000        2.60000000
  |        2.60000000        0.00000000        2.60000000
  |        2.60000000        2.60000000        0.00000000
  | Atomic structure:
  |       Atom                x [A]            y [A]            z [A]
  |    1: Species Si            0.00000000        0.00000000        0.00000000

  Lattice parameters for 3D lattice (in Angstroms) :     3.676955    3.676955    3.676955
  Angle(s) between unit vectors (in degrees)      :    60.000000   60.000000   60.000000

  |

  | The smallest distance between any two atoms is         3.67695526 AA.
  |
  | The first atom of this pair is atom number                      1 .
  | The second atom of this pair is atom number                     1 .
  | Wigner-Seitz cell of the first atom image          -1     0     1 .
  | (The Wigner-Seitz cell of the second atom is 0 0 0  by definition.)

  Quantities derived from the lattice vectors:
  | Reciprocal lattice vector 1: -1.208305  1.208305  1.208305
  | Reciprocal lattice vector 2:  1.208305 -1.208305  1.208305
  | Reciprocal lattice vector 3:  1.208305  1.208305 -1.208305
  | Unit cell volume                               :   0.351520E+02  A^3

  Range separation radius for Ewald summation (hartree_convergence_parameter):      4.75927409 bohr.

  Fractional coordinates:
                         L1                L2                L3
       atom_frac         0.00000000        0.00000000        0.00000000  Si

  Number of empty states per atom not set in control.in - providing a guess from actual geometry.
  | Total number of empty states used during s.c.f. cycle:        3
  If you use a very high smearing, use empty_states (per atom!) in control.in to increase this value.

  Structure-dependent array size parameters: 
  | Maximum number of distinct radial functions  :        8
  | Maximum number of basis functions            :       18
  | Number of Kohn-Sham states (occupied + empty):       10
------------------------------------------------------------

------------------------------------------------------------
          Preparing all fixed parts of the calculation.
------------------------------------------------------------
  Determining machine precision:
     2.2250738585072014E-308
  Setting up grids for atomic and cluster calculations.

  Creating wave function, potential, and density for free atoms.

  Species: Si

  List of occupied orbitals and eigenvalues:
    n    l              occ      energy [Ha]    energy [eV]
    1    0           2.0000       -65.491668     -1782.1190
    2    0           2.0000        -5.087967      -138.4506
    3    0           2.0000        -0.391471       -10.6525
    2    1           6.0000        -3.502246       -95.3010
    3    1           2.0000        -0.143943        -3.9169

  Creating fixed part of basis set: Ionic, confined, hydrogenic.

  Si                   ion:

  List of free ionic orbitals and eigenvalues:
    n    l      energy [Ha]    energy [eV]
    1    0       -66.364436     -1805.8682
    2    0        -5.935799      -161.5213
    3    0        -1.078166       -29.3384
    2    1        -4.351123      -118.4001
    3    1        -0.781733       -21.2720


  List of ionic basis orbitals and eigenvalues:
    n    l      energy [Ha]    energy [eV]    outer radius [A]
    3    0        -1.078146       -29.3378       4.214062


  Si                   hydrogenic:

  List of hydrogenic basis orbitals: 
    n    l      effective z      eigenvalue [eV]  inner max. [A]     outer max. [A]     outer radius [A]   
    3    2         4.200000       -26.6624           1.139231           1.139231           4.534782
    2    1         1.400000        -6.4613           1.472672           1.472672           4.590560


  Adding cutoff potential to free-atom effective potential.
  Creating atomic-like basis functions for current effective potential.

  Species Si                  :

  List of atomic basis orbitals and eigenvalues:
    n    l      energy [Ha]    energy [eV]    outer radius [A]
    1    0       -65.491668     -1782.1190       0.789468
    2    0        -5.087967      -138.4506       2.815114
    3    0        -0.391471       -10.6525       4.534782
    2    1        -3.502246       -95.3010       3.259919
    3    1        -0.143943        -3.9169       4.590560

  Assembling full basis from fixed parts.
  | Species Si :   atomic orbital   1 s accepted.
  | Species Si :   atomic orbital   2 s accepted.
  | Species Si :    ionic orbital   3 s accepted.
  | Species Si :   atomic orbital   3 s accepted.
  | Species Si :   atomic orbital   2 p accepted.
  | Species Si :   atomic orbital   3 p accepted.
  | Species Si :    hydro orbital   2 p accepted.
  | Species Si :    hydro orbital   3 d accepted.

  Basis size parameters after reduction:
  | Total number of radial functions:        8
  | Total number of basis functions :       18

  Per-task memory consumption for arrays in subroutine allocate_ext:
  |           2.757468MB.
  Testing on-site integration grid accuracy.
  |  Species  Function  <phi|h_atom|phi> (log., in eV)  <phi|h_atom|phi> (rad., in eV)
           1        1              -1782.1189727076              -1782.1182429251
           1        2               -138.4506350693               -138.4506310079
           1        3                -10.3030408815                -10.3029120678
           1        4                  5.0238999146                  4.9457540310 ***
           1        5                -95.3009689499                -95.3009689315
           1        6                 -3.9266496564                 -3.9420918374
           1        7                  6.3453628447                  6.1632372158 ***
           1        8                  6.2883050744                  6.2861881409
 * Note: Onsite integrals marked "***" above are less accurate than
 * onsite_accuracy_threshold =    0.03000 eV. Usually, this is harmless.
 * When in doubt, tighten the "radial" and/or "radial_multiplier" flags to check.

  Preparing densities etc. for the partition functions (integrals / Hartree potential).

  Preparations completed.
  max(cpu_time)          :      0.111 s.
  Wall clock time (cpu1) :      0.112 s.
------------------------------------------------------------

------------------------------------------------------------
          Begin self-consistency loop: Initialization.

          Date     :  20190514, Time     :  105011.528
------------------------------------------------------------

  Initializing index lists of integration centers etc. from given atomic structure:
  Mapping all atomic coordinates to central unit cell.

  Initializing the k-points
          Using symmetry for reducing the k-points
  | k-points reduced from:     1728 to      868
  | Number of k-points                             :       868
  The eigenvectors in the calculations are COMPLEX.
  | K-points in task   0:       868
  | Number of basis functions in the Hamiltonian integrals :       764
  | Number of basis functions in a single unit cell        :        18
  | Number of centers in hartree potential         :       555
  | Number of centers in hartree multipole         :       141
  | Number of centers in electron density summation:        87
  | Number of centers in basis integrals           :       135
  | Number of centers in integrals                 :        51
  | Number of centers in hamiltonian               :        87
  | Consuming       1193 KiB for k_phase.
  | Number of super-cells (origin) [n_cells]                     :        2197
  | Number of super-cells (after PM_index) [n_cells]             :          88
  | Number of super-cells in hamiltonian [n_cells_in_hamiltonian]:          88
  | Size of matrix packed + index [n_hamiltonian_matrix_size] :       11764
  Partitioning the integration grid into batches with maxmin method.
  | Maximal weight for a single point:     1.000
  | Minimal weight for a single point:     0.661
  | Number of batches:       64
  | Maximal batch size:      90
  | Minimal batch size:      85
  | Average batch size:      87.562
  | Standard deviation of batch sizes:       1.499
  Initializing partition tables, free-atom densities, potentials, etc. across the integration grid (initialize_grid_storage).
  | initialize_grid_storage: Actual outermost partition radius vs. multipole_radius_free
  | (-- VB: in principle, multipole_radius_free should be larger, hence this output)
  | Species        1: Confinement radius =              4.999999999999999 AA, multipole_radius_free =              5.000694715736543 AA.
  | Species        1: outer_partition_radius set to              5.000694715736543 AA .
  | Original list of interatomic distances with         135 x        135 entries is created.
  | Net number of integration points:     5604
  | of which are non-zero points    :     5094
  | Numerical average free-atom electrostatic potential    :     -7.48368179 eV
  Renormalizing the initial density to the exact electron count on the 3D integration grid.
  | Initial density: Formal number of electrons (from input files) :      14.0000000000
  | Integrated number of electrons on 3D grid     :      14.0000631488
  | Charge integration error                      :       0.0000631488
  | Normalization factor for density and gradient :       0.9999954894
  Obtaining max. number of non-zero basis functions in each batch (get_n_compute_maxes).
  | Maximal number of non-zero basis functions:      299 in task     0
  Allocating        2.500 MB for KS_eigenvector_complex
  Integrating Hamiltonian matrix: batch-based integration.
  Time summed over all CPUs for integration: real work        0.138 s, elapsed        0.138 s
  Integrating overlap matrix.
  Time summed over all CPUs for integration: real work        0.092 s, elapsed        0.092 s
  Decreasing sparse matrix size:
   Tolerance:   9.9999998245167004E-014
   Hamiltonian matrix
  | Array has     7905 nonzero elements out of    11764 elements
  | Sparsity factor is 0.328
   Overlap matrix
  | Array has     7673 nonzero elements out of    11764 elements
  | Sparsity factor is 0.348
  New size of hamiltonian matrix:        8044

  Updating Kohn-Sham eigenvalues, eigenvectors, occupation numbers, and Fermi level.
  Solving generalized eigenproblem
  Transforming overlap matrix and checking for singularities.
  Overlap matrix is nonsingular at first k-point:
  | Lowest eigenvalue:  0.109226E-01

  Obtaining occupation numbers and chemical potential using ELSI.
  | Chemical potential (Fermi level):    -4.73981191eV
  Writing Kohn-Sham eigenvalues.
  K-point:       1 at    0.000000    0.000000    0.000000 (in units of recip. lattice)

  State    Occupation    Eigenvalue [Ha]    Eigenvalue [eV]
      1       2.00000         -65.491733        -1782.12072
      2       2.00000          -5.088195         -138.45682
      3       2.00000          -3.502471          -95.30710
      4       2.00000          -3.502471          -95.30710
      5       2.00000          -3.502471          -95.30710
      6       2.00000          -0.489279          -13.31396
      7       0.00000          -0.027707           -0.75393
      8       0.00000          -0.027707           -0.75393
      9       0.00000          -0.027707           -0.75393
     10       0.00000           0.177254            4.82334

  What follows are estimated values for band gap, HOMO, LUMO, etc.
  | They are estimated on a discrete k-point grid and not necessarily exact.
  | For converged numbers, create a DOS and/or band structure plot on a denser k-grid.

  Highest occupied state (VBM) at     -4.75482050 eV (relative to internal zero)
  | Occupation number:      1.96620715
  | K-point:     725 at    0.666667    0.000000    0.250000 (in units of recip. lattice)

  Lowest unoccupied state (CBM) at    -4.73218524 eV (relative to internal zero)
  | Occupation number:      0.28077778
  | K-point:     259 at    0.166667    0.666667    0.500000 (in units of recip. lattice)

  ESTIMATED overall HOMO-LUMO gap:      0.02263526 eV between HOMO at k-point 725 and LUMO at k-point 259
  | This appears to be an indirect band gap.
  | Smallest direct gap :      1.07052598 eV for k_point 33 at    0.166667    0.666667    0.500000 (in units of recip. lattice)
  However, this system has fractional occupation numbers. Since we use a finite k-point grid,
  this material is metallic within the approximate finite broadening function (occupation_type)
  applied to determine the occupation numbers.
  Calculating total energy contributions from superposition of free atom densities.

  Total energy components:
  | Sum of eigenvalues            :        -163.42794237 Ha       -4447.10057787 eV
  | XC energy correction          :         -19.67968973 Ha        -535.51160406 eV
  | XC potential correction       :          26.00140591 Ha         707.53425370 eV
  | Free-atom electrostatic energy:        -132.17953614 Ha       -3596.78818090 eV
  | Hartree energy correction     :          -0.00000000 Ha          -0.00000000 eV
  | Entropy correction            :          -0.00000068 Ha          -0.00001844 eV
  | ---------------------------
  | Total energy                  :        -289.28576233 Ha       -7871.86610912 eV
  | Total energy, T -> 0          :        -289.28576301 Ha       -7871.86612756 eV  <-- do not rely on this value for anything but (periodic) metals
  | Electronic free energy        :        -289.28576368 Ha       -7871.86614601 eV

  Derived energy quantities:
  | Kinetic energy                :         289.56206714 Ha        7879.38474565 eV
  | Electrostatic energy          :        -559.16813974 Ha      -15215.73925071 eV
  | Energy correction for multipole
  | error in Hartree potential    :           0.00000000 Ha           0.00000000 eV
  | Sum of eigenvalues per atom                           :       -4447.10057787 eV
  | Total energy (T->0) per atom                          :       -7871.86612756 eV  <-- do not rely on this value for anything but (periodic) metals
  | Electronic free energy per atom                       :       -7871.86614601 eV
  Initialize hartree_potential_storage
  Max. number of atoms included in rho_multipole:            1

  End scf initialization - timings             :  max(cpu_time)    wall_clock(cpu1)
  | Time for scf. initialization               :        0.583 s           0.584 s
  | Boundary condition initialization          :        0.026 s           0.026 s
  | Integration                                :        0.229 s           0.230 s
  | Solution of K.-S. eqns.                    :        0.263 s           0.264 s
  | Grid partitioning                          :        0.011 s           0.011 s
  | Preloading free-atom quantities on grid    :        0.001 s           0.001 s
  | Free-atom superposition energy             :        0.012 s           0.012 s
  | Total energy evaluation                    :        0.000 s           0.000 s

  Partial memory accounting:
  | Current value for overall tracked memory usage on task 0  :           2.661 MB
  | Peak value for overall tracked memory usage on task 0     :           4.096 MB after allocating wave
  | Largest tracked array allocation on task 0 so far         :           2.500 MB  when allocating +KS_eigenvector_complex
  Note:  These values currently only include a subset of arrays which are explicitly tracked.
  The "true" memory usage will be greater.
------------------------------------------------------------

------------------------------------------------------------
          Begin self-consistency iteration #    1

  Date     :  20190514, Time     :  105012.112
------------------------------------------------------------
  Evaluating new KS density using the density matrix
  Evaluating density matrix
  Time summed over all CPUs for getting density from density matrix: real work        0.204 s, elapsed        0.204 s
  Integration grid: deviation in total charge (<rho> - N_e) =  -1.989520E-13
  Pulay mixing of updated and previous charge densities.

  Evaluating partitioned Hartree potential by multipole expansion.
  | Analytical far-field extrapolation by fixed multipoles:
  | Hartree multipole sum: apparent total charge =  -0.635547E-04
  Summing up the Hartree potential.
  | Estimated reciprocal-space cutoff momentum G_max:         1.94232681 bohr^-1 .
  | Reciprocal lattice points for long-range Hartree potential:      26
  Time summed over all CPUs for potential: real work        0.164 s, elapsed        0.164 s
  | RMS charge density error from multipole expansion :   0.958846E-04
  | Average real-space part of the electrostatic potential :     -0.01148000 eV

  Integrating Hamiltonian matrix: batch-based integration.
  Time summed over all CPUs for integration: real work        0.184 s, elapsed        0.184 s

  Updating Kohn-Sham eigenvalues, eigenvectors, occupation numbers, and Fermi level.
  Solving generalized eigenproblem

  Obtaining occupation numbers and chemical potential using ELSI.
  | Chemical potential (Fermi level):    -4.74690890eV
  Writing Kohn-Sham eigenvalues.
  K-point:       1 at    0.000000    0.000000    0.000000 (in units of recip. lattice)

  State    Occupation    Eigenvalue [Ha]    Eigenvalue [eV]
      1       2.00000         -65.494081        -1782.18461
      2       2.00000          -5.089798         -138.50045
      3       2.00000          -3.504127          -95.35215
      4       2.00000          -3.504127          -95.35215
      5       2.00000          -3.504127          -95.35215
      6       2.00000          -0.489589          -13.32239
      7       0.00000          -0.028136           -0.76561
      8       0.00000          -0.028136           -0.76561
      9       0.00000          -0.028136           -0.76561
     10       0.00000           0.176833            4.81187

  What follows are estimated values for band gap, HOMO, LUMO, etc.
  | They are estimated on a discrete k-point grid and not necessarily exact.
  | For converged numbers, create a DOS and/or band structure plot on a denser k-grid.

  Highest occupied state (VBM) at     -4.76207195 eV (relative to internal zero)
  | Occupation number:      1.96799744
  | K-point:      42 at    0.000000    0.333333    0.750000 (in units of recip. lattice)

  Lowest unoccupied state (CBM) at    -4.73921505 eV (relative to internal zero)
  | Occupation number:      0.27656195
  | K-point:     656 at    0.500000    0.333333    0.833333 (in units of recip. lattice)

  ESTIMATED overall HOMO-LUMO gap:      0.02285690 eV between HOMO at k-point 42 and LUMO at k-point 656
  | This appears to be an indirect band gap.
  | Smallest direct gap :      1.07114878 eV for k_point 347 at    0.500000    0.333333    0.833333 (in units of recip. lattice)
  However, this system has fractional occupation numbers. Since we use a finite k-point grid,
  this material is metallic within the approximate finite broadening function (occupation_type)
  applied to determine the occupation numbers.

  Total energy components:
  | Sum of eigenvalues            :        -163.44705491 Ha       -4447.62065662 eV
  | XC energy correction          :         -19.67809793 Ha        -535.46828899 eV
  | XC potential correction       :          25.99930414 Ha         707.47706180 eV
  | Free-atom electrostatic energy:        -132.17953614 Ha       -3596.78818090 eV
  | Hartree energy correction     :           0.01971065 Ha           0.53635407 eV
  | Entropy correction            :          -0.00000067 Ha          -0.00001822 eV
  | ---------------------------
  | Total energy                  :        -289.28567419 Ha       -7871.86371064 eV
  | Total energy, T -> 0          :        -289.28567486 Ha       -7871.86372886 eV  <-- do not rely on this value for anything but (periodic) metals
  | Electronic free energy        :        -289.28567553 Ha       -7871.86374708 eV

  Derived energy quantities:
  | Kinetic energy                :         289.54535103 Ha        7878.92987705 eV
  | Electrostatic energy          :        -559.15292729 Ha      -15215.32529870 eV
  | Energy correction for multipole
  | error in Hartree potential    :           0.00000937 Ha           0.00025489 eV
  | Sum of eigenvalues per atom                           :       -4447.62065662 eV
  | Total energy (T->0) per atom                          :       -7871.86372886 eV  <-- do not rely on this value for anything but (periodic) metals
  | Electronic free energy per atom                       :       -7871.86374708 eV

  Self-consistency convergence accuracy:
  | Change of charge density      :  0.2793E-01
  | Change of sum of eigenvalues  : -0.5201E+00 eV
  | Change of total energy        :  0.2398E-02 eV

  End self-consistency iteration #     1       :  max(cpu_time)    wall_clock(cpu1)
  | Time for this iteration                    :        0.720 s           0.723 s
  | Charge density update                      :        0.218 s           0.219 s
  | Density mixing & preconditioning           :        0.025 s           0.026 s
  | Hartree multipole update                   :        0.000 s           0.000 s
  | Hartree multipole summation                :        0.166 s           0.166 s
  | Integration                                :        0.183 s           0.185 s
  | Solution of K.-S. eqns.                    :        0.126 s           0.126 s
  | Total energy evaluation                    :        0.000 s           0.000 s

  Partial memory accounting:
  | Current value for overall tracked memory usage on task 0  :           2.661 MB
  | Peak value for overall tracked memory usage on task 0     :           4.096 MB after allocating wave
  | Largest tracked array allocation on task 0 so far         :           2.500 MB  when allocating +KS_eigenvector_complex
  Note:  These values currently only include a subset of arrays which are explicitly tracked.
  The "true" memory usage will be greater.
------------------------------------------------------------

------------------------------------------------------------
          Begin self-consistency iteration #    2

  Date     :  20190514, Time     :  105012.835
------------------------------------------------------------
  Evaluating new KS density using the density matrix
  Evaluating density matrix
  Time summed over all CPUs for getting density from density matrix: real work        0.255 s, elapsed        0.255 s
  Integration grid: deviation in total charge (<rho> - N_e) =  -2.984279E-13
  Pulay mixing of updated and previous charge densities.

  Evaluating partitioned Hartree potential by multipole expansion.
  | Analytical far-field extrapolation by fixed multipoles:
  | Hartree multipole sum: apparent total charge =  -0.238844E-02
  Summing up the Hartree potential.
  Time summed over all CPUs for potential: real work        0.202 s, elapsed        0.202 s
  | RMS charge density error from multipole expansion :   0.185084E-02
  | Average real-space part of the electrostatic potential :     -0.21329937 eV

  Integrating Hamiltonian matrix: batch-based integration.
  Time summed over all CPUs for integration: real work        0.132 s, elapsed        0.132 s

  Updating Kohn-Sham eigenvalues, eigenvectors, occupation numbers, and Fermi level.
  Solving generalized eigenproblem

  Obtaining occupation numbers and chemical potential using ELSI.
  | Chemical potential (Fermi level):    -4.87978732eV
  What follows are estimated values for band gap, HOMO, LUMO, etc.
  | They are estimated on a discrete k-point grid and not necessarily exact.
  | For converged numbers, create a DOS and/or band structure plot on a denser k-grid.

  Highest occupied state (VBM) at     -4.89142021 eV (relative to internal zero)
  | Occupation number:      1.90005870
  | K-point:     645 at    0.500000    0.250000    0.583333 (in units of recip. lattice)

  Lowest unoccupied state (CBM) at    -4.87327907 eV (relative to internal zero)
  | Occupation number:      0.35736088
  | K-point:     222 at    0.166667    0.333333    0.333333 (in units of recip. lattice)

  ESTIMATED overall HOMO-LUMO gap:      0.01814113 eV between HOMO at k-point 645 and LUMO at k-point 222
  | This appears to be an indirect band gap.
  | Smallest direct gap :      1.08153339 eV for k_point 33 at    0.166667    0.333333    0.333333 (in units of recip. lattice)
  However, this system has fractional occupation numbers. Since we use a finite k-point grid,
  this material is metallic within the approximate finite broadening function (occupation_type)
  applied to determine the occupation numbers.

  Checking to see if s.c.f. parameters should be adjusted.
  Adjusted the Pulay mixing parameter (charge_mix_param) for an expected low-gap system. New value:   0.020000 .
  Adjusted the occupation broadening width for an expected low-gap system. New value:      0.05000000 eV.

  Total energy components:
  | Sum of eigenvalues            :        -163.78014373 Ha       -4456.68446459 eV
  | XC energy correction          :         -19.64967735 Ha        -534.69492558 eV
  | XC potential correction       :          25.96177737 Ha         706.45590634 eV
  | Free-atom electrostatic energy:        -132.17953614 Ha       -3596.78818090 eV
  | Hartree energy correction     :           0.36282488 Ha           9.87296737 eV
  | Entropy correction            :          -0.00003999 Ha          -0.00108815 eV
  | ---------------------------
  | Total energy                  :        -289.28475497 Ha       -7871.83869736 eV
  | Total energy, T -> 0          :        -289.28479495 Ha       -7871.83978551 eV  <-- do not rely on this value for anything but (periodic) metals
  | Electronic free energy        :        -289.28483494 Ha       -7871.84087366 eV

  Derived energy quantities:
  | Kinetic energy                :         289.27873832 Ha        7871.67497609 eV
  | Electrostatic energy          :        -558.91381594 Ha      -15208.81874787 eV
  | Energy correction for multipole
  | error in Hartree potential    :           0.00019620 Ha           0.00533901 eV
  | Sum of eigenvalues per atom                           :       -4456.68446459 eV
  | Total energy (T->0) per atom                          :       -7871.83978551 eV  <-- do not rely on this value for anything but (periodic) metals
  | Electronic free energy per atom                       :       -7871.84087366 eV

  Self-consistency convergence accuracy:
  | Change of charge density      :  0.2656E-01
  | Change of sum of eigenvalues  : -0.9064E+01 eV
  | Change of total energy        :  0.2501E-01 eV

  End self-consistency iteration #     2       :  max(cpu_time)    wall_clock(cpu1)
  | Time for this iteration                    :        0.750 s           0.753 s
  | Charge density update                      :        0.271 s           0.272 s
  | Density mixing & preconditioning           :        0.023 s           0.023 s
  | Hartree multipole update                   :        0.000 s           0.001 s
  | Hartree multipole summation                :        0.203 s           0.203 s
  | Integration                                :        0.131 s           0.132 s
  | Solution of K.-S. eqns.                    :        0.121 s           0.121 s
  | Total energy evaluation                    :        0.000 s           0.001 s

  Partial memory accounting:
  | Current value for overall tracked memory usage on task 0  :           2.662 MB
  | Peak value for overall tracked memory usage on task 0     :           4.096 MB after allocating wave
  | Largest tracked array allocation on task 0 so far         :           2.500 MB  when allocating +KS_eigenvector_complex
  Note:  These values currently only include a subset of arrays which are explicitly tracked.
  The "true" memory usage will be greater.
------------------------------------------------------------

------------------------------------------------------------
          Begin self-consistency iteration #    3

  Date     :  20190514, Time     :  105013.588
------------------------------------------------------------
  Evaluating new KS density using the density matrix
  Evaluating density matrix
  Time summed over all CPUs for getting density from density matrix: real work        0.223 s, elapsed        0.223 s
  Integration grid: deviation in total charge (<rho> - N_e) =  -2.717826E-13
  Pulay mixing of updated and previous charge densities.

  Evaluating partitioned Hartree potential by multipole expansion.
  | Analytical far-field extrapolation by fixed multipoles:
  | Hartree multipole sum: apparent total charge =  -0.296397E-02
  Summing up the Hartree potential.
  Time summed over all CPUs for potential: real work        0.184 s, elapsed        0.184 s
  | RMS charge density error from multipole expansion :   0.225067E-02
  | Average real-space part of the electrostatic potential :     -0.26693755 eV

  Integrating Hamiltonian matrix: batch-based integration.
  Time summed over all CPUs for integration: real work        0.135 s, elapsed        0.135 s

  Updating Kohn-Sham eigenvalues, eigenvectors, occupation numbers, and Fermi level.
  Solving generalized eigenproblem

  Obtaining occupation numbers and chemical potential using ELSI.
  | Chemical potential (Fermi level):    -4.90092464eV
  What follows are estimated values for band gap, HOMO, LUMO, etc.
  | They are estimated on a discrete k-point grid and not necessarily exact.
  | For converged numbers, create a DOS and/or band structure plot on a denser k-grid.

  Highest occupied state (VBM) at     -4.90857126 eV (relative to internal zero)
  | Occupation number:      1.17122980
  | K-point:     417 at    0.333333    0.166667    0.000000 (in units of recip. lattice)

  Lowest unoccupied state (CBM) at    -4.89498357 eV (relative to internal zero)
  | Occupation number:      0.86655266
  | K-point:     493 at    0.333333    0.833333    0.500000 (in units of recip. lattice)

  ESTIMATED overall HOMO-LUMO gap:      0.01358769 eV between HOMO at k-point 417 and LUMO at k-point 493
  | This appears to be an indirect band gap.
  | Smallest direct gap :      1.08366056 eV for k_point 33 at    0.333333    0.833333    0.500000 (in units of recip. lattice)
  However, this system has fractional occupation numbers. Since we use a finite k-point grid,
  this material is metallic within the approximate finite broadening function (occupation_type)
  applied to determine the occupation numbers.

  Total energy components:
  | Sum of eigenvalues            :        -163.83334568 Ha       -4458.13216328 eV
  | XC energy correction          :         -19.64660471 Ha        -534.61131490 eV
  | XC potential correction       :          25.95775145 Ha         706.34635533 eV
  | Free-atom electrostatic energy:        -132.17953614 Ha       -3596.78818090 eV
  | Hartree energy correction     :           0.41704935 Ha          11.34849027 eV
  | Entropy correction            :          -0.00003814 Ha          -0.00103774 eV
  | ---------------------------
  | Total energy                  :        -289.28468573 Ha       -7871.83681348 eV
  | Total energy, T -> 0          :        -289.28472387 Ha       -7871.83785121 eV  <-- do not rely on this value for anything but (periodic) metals
  | Electronic free energy        :        -289.28476201 Ha       -7871.83888895 eV

  Derived energy quantities:
  | Kinetic energy                :         289.28698974 Ha        7871.89950871 eV
  | Electrostatic energy          :        -558.92507077 Ha      -15209.12500728 eV
  | Energy correction for multipole
  | error in Hartree potential    :           0.00025375 Ha           0.00690490 eV
  | Sum of eigenvalues per atom                           :       -4458.13216328 eV
  | Total energy (T->0) per atom                          :       -7871.83785121 eV  <-- do not rely on this value for anything but (periodic) metals
  | Electronic free energy per atom                       :       -7871.83888895 eV

  Self-consistency convergence accuracy:
  | Change of charge density      :  0.6634E-02
  | Change of sum of eigenvalues  : -0.1448E+01 eV
  | Change of total energy        :  0.1884E-02 eV

  End self-consistency iteration #     3       :  max(cpu_time)    wall_clock(cpu1)
  | Time for this iteration                    :        0.699 s           0.699 s
  | Charge density update                      :        0.240 s           0.240 s
  | Density mixing & preconditioning           :        0.020 s           0.020 s
  | Hartree multipole update                   :        0.000 s           0.001 s
  | Hartree multipole summation                :        0.186 s           0.186 s
  | Integration                                :        0.135 s           0.135 s
  | Solution of K.-S. eqns.                    :        0.116 s           0.117 s
  | Total energy evaluation                    :        0.000 s           0.000 s

  Partial memory accounting:
  | Current value for overall tracked memory usage on task 0  :           2.662 MB
  | Peak value for overall tracked memory usage on task 0     :           4.096 MB after allocating wave
  | Largest tracked array allocation on task 0 so far         :           2.500 MB  when allocating +KS_eigenvector_complex
  Note:  These values currently only include a subset of arrays which are explicitly tracked.
  The "true" memory usage will be greater.
------------------------------------------------------------

------------------------------------------------------------
          Begin self-consistency iteration #    4

  Date     :  20190514, Time     :  105014.287
------------------------------------------------------------
  Evaluating new KS density using the density matrix
  Evaluating density matrix
  Time summed over all CPUs for getting density from density matrix: real work        0.212 s, elapsed        0.212 s
  Integration grid: deviation in total charge (<rho> - N_e) =  -2.220446E-13
  Pulay mixing of updated and previous charge densities.

  Evaluating partitioned Hartree potential by multipole expansion.
  | Analytical far-field extrapolation by fixed multipoles:
  | Hartree multipole sum: apparent total charge =  -0.287096E-02
  Summing up the Hartree potential.
  Time summed over all CPUs for potential: real work        0.184 s, elapsed        0.184 s
  | RMS charge density error from multipole expansion :   0.220487E-02
  | Average real-space part of the electrostatic potential :     -0.26742765 eV

  Integrating Hamiltonian matrix: batch-based integration.
  Time summed over all CPUs for integration: real work        0.134 s, elapsed        0.134 s

  Updating Kohn-Sham eigenvalues, eigenvectors, occupation numbers, and Fermi level.
  Solving generalized eigenproblem

  Obtaining occupation numbers and chemical potential using ELSI.
  | Chemical potential (Fermi level):    -4.89821967eV
  What follows are estimated values for band gap, HOMO, LUMO, etc.
  | They are estimated on a discrete k-point grid and not necessarily exact.
  | For converged numbers, create a DOS and/or band structure plot on a denser k-grid.

  Highest occupied state (VBM) at     -4.90530934 eV (relative to internal zero)
  | Occupation number:      1.15893081
  | K-point:     417 at    0.333333    0.166667    0.000000 (in units of recip. lattice)

  Lowest unoccupied state (CBM) at    -4.89247367 eV (relative to internal zero)
  | Occupation number:      0.87089511
  | K-point:     493 at    0.333333    0.833333    0.500000 (in units of recip. lattice)

  ESTIMATED overall HOMO-LUMO gap:      0.01283567 eV between HOMO at k-point 417 and LUMO at k-point 493
  | This appears to be an indirect band gap.
  | Smallest direct gap :      1.08333765 eV for k_point 33 at    0.333333    0.833333    0.500000 (in units of recip. lattice)
  However, this system has fractional occupation numbers. Since we use a finite k-point grid,
  this material is metallic within the approximate finite broadening function (occupation_type)
  applied to determine the occupation numbers.

  Total energy components:
  | Sum of eigenvalues            :        -163.80557068 Ha       -4457.37636706 eV
  | XC energy correction          :         -19.65000524 Ha        -534.70384795 eV
  | XC potential correction       :          25.96226739 Ha         706.46924052 eV
  | Free-atom electrostatic energy:        -132.17953614 Ha       -3596.78818090 eV
  | Hartree energy correction     :           0.38816119 Ha          10.56240349 eV
  | Entropy correction            :          -0.00003816 Ha          -0.00103842 eV
  | ---------------------------
  | Total energy                  :        -289.28468347 Ha       -7871.83675190 eV
  | Total energy, T -> 0          :        -289.28472163 Ha       -7871.83779032 eV  <-- do not rely on this value for anything but (periodic) metals
  | Electronic free energy        :        -289.28475979 Ha       -7871.83882873 eV

  Derived energy quantities:
  | Kinetic energy                :         289.34971152 Ha        7873.60625526 eV
  | Electrostatic energy          :        -558.98438976 Ha      -15210.73915921 eV
  | Energy correction for multipole
  | error in Hartree potential    :           0.00025649 Ha           0.00697937 eV
  | Sum of eigenvalues per atom                           :       -4457.37636706 eV
  | Total energy (T->0) per atom                          :       -7871.83779032 eV  <-- do not rely on this value for anything but (periodic) metals
  | Electronic free energy per atom                       :       -7871.83882873 eV

  Self-consistency convergence accuracy:
  | Change of charge density      :  0.3678E-02
  | Change of sum of eigenvalues  :  0.7558E+00 eV
  | Change of total energy        :  0.6158E-04 eV

  End self-consistency iteration #     4       :  max(cpu_time)    wall_clock(cpu1)
  | Time for this iteration                    :        0.686 s           0.686 s
  | Charge density update                      :        0.227 s           0.227 s
  | Density mixing & preconditioning           :        0.020 s           0.020 s
  | Hartree multipole update                   :        0.001 s           0.001 s
  | Hartree multipole summation                :        0.186 s           0.186 s
  | Integration                                :        0.134 s           0.134 s
  | Solution of K.-S. eqns.                    :        0.118 s           0.118 s
  | Total energy evaluation                    :        0.000 s           0.000 s

  Partial memory accounting:
  | Current value for overall tracked memory usage on task 0  :           2.663 MB
  | Peak value for overall tracked memory usage on task 0     :           4.096 MB after allocating wave
  | Largest tracked array allocation on task 0 so far         :           2.500 MB  when allocating +KS_eigenvector_complex
  Note:  These values currently only include a subset of arrays which are explicitly tracked.
  The "true" memory usage will be greater.
------------------------------------------------------------

------------------------------------------------------------
          Begin self-consistency iteration #    5

  Date     :  20190514, Time     :  105014.973
------------------------------------------------------------
  Evaluating new KS density using the density matrix
  Evaluating density matrix
  Time summed over all CPUs for getting density from density matrix: real work        0.209 s, elapsed        0.209 s
  Integration grid: deviation in total charge (<rho> - N_e) =  -3.197442E-13
  Pulay mixing of updated and previous charge densities.

  Evaluating partitioned Hartree potential by multipole expansion.
  | Analytical far-field extrapolation by fixed multipoles:
  | Hartree multipole sum: apparent total charge =  -0.270682E-02
  Summing up the Hartree potential.
  Time summed over all CPUs for potential: real work        0.212 s, elapsed        0.212 s
  | RMS charge density error from multipole expansion :   0.223884E-02
  | Average real-space part of the electrostatic potential :     -0.27235274 eV

  Integrating Hamiltonian matrix: batch-based integration.
  Time summed over all CPUs for integration: real work        0.143 s, elapsed        0.143 s

  Updating Kohn-Sham eigenvalues, eigenvectors, occupation numbers, and Fermi level.
  Solving generalized eigenproblem

  Obtaining occupation numbers and chemical potential using ELSI.
  | Chemical potential (Fermi level):    -4.90055874eV
  What follows are estimated values for band gap, HOMO, LUMO, etc.
  | They are estimated on a discrete k-point grid and not necessarily exact.
  | For converged numbers, create a DOS and/or band structure plot on a denser k-grid.

  Highest occupied state (VBM) at     -4.90799435 eV (relative to internal zero)
  | Occupation number:      1.16657472
  | K-point:     208 at    0.166667    0.166667    0.833333 (in units of recip. lattice)

  Lowest unoccupied state (CBM) at    -4.89468966 eV (relative to internal zero)
  | Occupation number:      0.86815475
  | K-point:     493 at    0.333333    0.833333    0.500000 (in units of recip. lattice)

  ESTIMATED overall HOMO-LUMO gap:      0.01330469 eV between HOMO at k-point 208 and LUMO at k-point 493
  | This appears to be an indirect band gap.
  | Smallest direct gap :      1.08352714 eV for k_point 642 at    0.333333    0.833333    0.500000 (in units of recip. lattice)
  However, this system has fractional occupation numbers. Since we use a finite k-point grid,
  this material is metallic within the approximate finite broadening function (occupation_type)
  applied to determine the occupation numbers.

  Total energy components:
  | Sum of eigenvalues            :        -163.81298535 Ha       -4457.57813038 eV
  | XC energy correction          :         -19.64924884 Ha        -534.68326544 eV
  | XC potential correction       :          25.96126808 Ha         706.44204792 eV
  | Free-atom electrostatic energy:        -132.17953614 Ha       -3596.78818090 eV
  | Hartree energy correction     :           0.39581955 Ha          10.77079788 eV
  | Entropy correction            :          -0.00003814 Ha          -0.00103792 eV
  | ---------------------------
  | Total energy                  :        -289.28468270 Ha       -7871.83673092 eV
  | Total energy, T -> 0          :        -289.28472084 Ha       -7871.83776884 eV  <-- do not rely on this value for anything but (periodic) metals
  | Electronic free energy        :        -289.28475899 Ha       -7871.83880675 eV

  Derived energy quantities:
  | Kinetic energy                :         289.34126549 Ha        7873.37642688 eV
  | Electrostatic energy          :        -558.97669934 Ha      -15210.52989236 eV
  | Energy correction for multipole
  | error in Hartree potential    :           0.00026030 Ha           0.00708324 eV
  | Sum of eigenvalues per atom                           :       -4457.57813038 eV
  | Total energy (T->0) per atom                          :       -7871.83776884 eV  <-- do not rely on this value for anything but (periodic) metals
  | Electronic free energy per atom                       :       -7871.83880675 eV

  Self-consistency convergence accuracy:
  | Change of charge density      :  0.9731E-03
  | Change of sum of eigenvalues  : -0.2018E+00 eV
  | Change of total energy        :  0.2098E-04 eV

  End self-consistency iteration #     5       :  max(cpu_time)    wall_clock(cpu1)
  | Time for this iteration                    :        0.720 s           0.720 s
  | Charge density update                      :        0.224 s           0.224 s
  | Density mixing & preconditioning           :        0.020 s           0.020 s
  | Hartree multipole update                   :        0.001 s           0.001 s
  | Hartree multipole summation                :        0.215 s           0.215 s
  | Integration                                :        0.142 s           0.143 s
  | Solution of K.-S. eqns.                    :        0.117 s           0.117 s
  | Total energy evaluation                    :        0.000 s           0.000 s

  Partial memory accounting:
  | Current value for overall tracked memory usage on task 0  :           2.663 MB
  | Peak value for overall tracked memory usage on task 0     :           4.096 MB after allocating wave
  | Largest tracked array allocation on task 0 so far         :           2.500 MB  when allocating +KS_eigenvector_complex
  Note:  These values currently only include a subset of arrays which are explicitly tracked.
  The "true" memory usage will be greater.
------------------------------------------------------------

------------------------------------------------------------
          Begin self-consistency iteration #    6

  Date     :  20190514, Time     :  105015.693
------------------------------------------------------------
  Evaluating new KS density using the density matrix
  Evaluating density matrix
  Time summed over all CPUs for getting density from density matrix: real work        0.220 s, elapsed        0.220 s
  Integration grid: deviation in total charge (<rho> - N_e) =  -2.824407E-13
  Pulay mixing of updated and previous charge densities.

  Evaluating partitioned Hartree potential by multipole expansion.
  | Analytical far-field extrapolation by fixed multipoles:
  | Hartree multipole sum: apparent total charge =  -0.921822E-04
  Summing up the Hartree potential.
  Time summed over all CPUs for potential: real work        0.206 s, elapsed        0.206 s
  | RMS charge density error from multipole expansion :   0.223358E-02
  | Average real-space part of the electrostatic potential :     -0.28711522 eV

  Integrating Hamiltonian matrix: batch-based integration.
  Time summed over all CPUs for integration: real work        0.143 s, elapsed        0.143 s

  Updating Kohn-Sham eigenvalues, eigenvectors, occupation numbers, and Fermi level.
  Solving generalized eigenproblem

  Obtaining occupation numbers and chemical potential using ELSI.
  | Chemical potential (Fermi level):    -4.89787687eV
  What follows are estimated values for band gap, HOMO, LUMO, etc.
  | They are estimated on a discrete k-point grid and not necessarily exact.
  | For converged numbers, create a DOS and/or band structure plot on a denser k-grid.

  Highest occupied state (VBM) at     -4.90520028 eV (relative to internal zero)
  | Occupation number:      1.16409728
  | K-point:     222 at    0.166667    0.333333    0.333333 (in units of recip. lattice)

  Lowest unoccupied state (CBM) at    -4.89204127 eV (relative to internal zero)
  | Occupation number:      0.86890001
  | K-point:     243 at    0.166667    0.500000    0.666667 (in units of recip. lattice)

  ESTIMATED overall HOMO-LUMO gap:      0.01315901 eV between HOMO at k-point 222 and LUMO at k-point 243
  | This appears to be an indirect band gap.
  | Smallest direct gap :      1.08348960 eV for k_point 372 at    0.166667    0.500000    0.666667 (in units of recip. lattice)
  However, this system has fractional occupation numbers. Since we use a finite k-point grid,
  this material is metallic within the approximate finite broadening function (occupation_type)
  applied to determine the occupation numbers.

  Total energy components:
  | Sum of eigenvalues            :        -163.81129901 Ha       -4457.53224270 eV
  | XC energy correction          :         -19.64834191 Ha        -534.65858660 eV
  | XC potential correction       :          25.96008049 Ha         706.40973176 eV
  | Free-atom electrostatic energy:        -132.17953614 Ha       -3596.78818090 eV
  | Hartree energy correction     :           0.39441397 Ha          10.73255012 eV
  | Entropy correction            :          -0.00003815 Ha          -0.00103803 eV
  | ---------------------------
  | Total energy                  :        -289.28468260 Ha       -7871.83672831 eV
  | Total energy, T -> 0          :        -289.28472075 Ha       -7871.83776634 eV  <-- do not rely on this value for anything but (periodic) metals
  | Electronic free energy        :        -289.28475890 Ha       -7871.83880438 eV

  Derived energy quantities:
  | Kinetic energy                :         289.33651667 Ha        7873.24720511 eV
  | Electrostatic energy          :        -558.97285736 Ha      -15210.42534682 eV
  | Energy correction for multipole
  | error in Hartree potential    :           0.00026108 Ha           0.00710428 eV
  | Sum of eigenvalues per atom                           :       -4457.53224270 eV
  | Total energy (T->0) per atom                          :       -7871.83776634 eV  <-- do not rely on this value for anything but (periodic) metals
  | Electronic free energy per atom                       :       -7871.83880438 eV

  Self-consistency convergence accuracy:
  | Change of charge density      :  0.5571E-03
  | Change of sum of eigenvalues  :  0.4589E-01 eV
  | Change of total energy        :  0.2606E-05 eV

  End self-consistency iteration #     6       :  max(cpu_time)    wall_clock(cpu1)
  | Time for this iteration                    :        0.734 s           0.734 s
  | Charge density update                      :        0.235 s           0.235 s
  | Density mixing & preconditioning           :        0.023 s           0.023 s
  | Hartree multipole update                   :        0.001 s           0.002 s
  | Hartree multipole summation                :        0.208 s           0.208 s
  | Integration                                :        0.143 s           0.143 s
  | Solution of K.-S. eqns.                    :        0.122 s           0.122 s
  | Total energy evaluation                    :        0.000 s           0.000 s

  Partial memory accounting:
  | Current value for overall tracked memory usage on task 0  :           2.663 MB
  | Peak value for overall tracked memory usage on task 0     :           4.096 MB after allocating wave
  | Largest tracked array allocation on task 0 so far         :           2.500 MB  when allocating +KS_eigenvector_complex
  Note:  These values currently only include a subset of arrays which are explicitly tracked.
  The "true" memory usage will be greater.
------------------------------------------------------------

------------------------------------------------------------
          Begin self-consistency iteration #    7

  Date     :  20190514, Time     :  105016.427
------------------------------------------------------------
  Evaluating new KS density using the density matrix
  Evaluating density matrix
  Time summed over all CPUs for getting density from density matrix: real work        0.264 s, elapsed        0.264 s
  Integration grid: deviation in total charge (<rho> - N_e) =  -4.938272E-13
  Pulay mixing of updated and previous charge densities.

  Evaluating partitioned Hartree potential by multipole expansion.
  | Analytical far-field extrapolation by fixed multipoles:
  | Hartree multipole sum: apparent total charge =  -0.230697E-03
  Summing up the Hartree potential.
  Time summed over all CPUs for potential: real work        0.216 s, elapsed        0.216 s
  | RMS charge density error from multipole expansion :   0.224076E-02
  | Average real-space part of the electrostatic potential :     -0.28724814 eV

  Integrating Hamiltonian matrix: batch-based integration.
  Time summed over all CPUs for integration: real work        0.178 s, elapsed        0.178 s

  Updating Kohn-Sham eigenvalues, eigenvectors, occupation numbers, and Fermi level.
  Solving generalized eigenproblem

  Obtaining occupation numbers and chemical potential using ELSI.
  | Chemical potential (Fermi level):    -4.89856693eV
  What follows are estimated values for band gap, HOMO, LUMO, etc.
  | They are estimated on a discrete k-point grid and not necessarily exact.
  | For converged numbers, create a DOS and/or band structure plot on a denser k-grid.

  Highest occupied state (VBM) at     -4.90597024 eV (relative to internal zero)
  | Occupation number:      1.16586185
  | K-point:      20 at    0.000000    0.166667    0.333333 (in units of recip. lattice)

  Lowest unoccupied state (CBM) at    -4.89270363 eV (relative to internal zero)
  | Occupation number:      0.86828345
  | K-point:     243 at    0.166667    0.500000    0.666667 (in units of recip. lattice)

  ESTIMATED overall HOMO-LUMO gap:      0.01326661 eV between HOMO at k-point 20 and LUMO at k-point 243
  | This appears to be an indirect band gap.
  | Smallest direct gap :      1.08352980 eV for k_point 322 at    0.166667    0.500000    0.666667 (in units of recip. lattice)
  However, this system has fractional occupation numbers. Since we use a finite k-point grid,
  this material is metallic within the approximate finite broadening function (occupation_type)
  applied to determine the occupation numbers.

  Total energy components:
  | Sum of eigenvalues            :        -163.81273236 Ha       -4457.57124613 eV
  | XC energy correction          :         -19.64827837 Ha        -534.65685748 eV
  | XC potential correction       :          25.95999616 Ha         706.40743700 eV
  | Free-atom electrostatic energy:        -132.17953614 Ha       -3596.78818090 eV
  | Hartree energy correction     :           0.39586824 Ha          10.77212283 eV
  | Entropy correction            :          -0.00003814 Ha          -0.00103792 eV
  | ---------------------------
  | Total energy                  :        -289.28468247 Ha       -7871.83672467 eV
  | Total energy, T -> 0          :        -289.28472061 Ha       -7871.83776259 eV  <-- do not rely on this value for anything but (periodic) metals
  | Electronic free energy        :        -289.28475876 Ha       -7871.83880051 eV

  Derived energy quantities:
  | Kinetic energy                :         289.33578692 Ha        7873.22734740 eV
  | Electrostatic energy          :        -558.97219102 Ha      -15210.40721460 eV
  | Energy correction for multipole
  | error in Hartree potential    :           0.00026188 Ha           0.00712606 eV
  | Sum of eigenvalues per atom                           :       -4457.57124613 eV
  | Total energy (T->0) per atom                          :       -7871.83776259 eV  <-- do not rely on this value for anything but (periodic) metals
  | Electronic free energy per atom                       :       -7871.83880051 eV

  Self-consistency convergence accuracy:
  | Change of charge density      :  0.5556E-04
  | Change of sum of eigenvalues  : -0.3900E-01 eV
  | Change of total energy        :  0.3640E-05 eV

  End self-consistency iteration #     7       :  max(cpu_time)    wall_clock(cpu1)
  | Time for this iteration                    :        0.831 s           0.831 s
  | Charge density update                      :        0.283 s           0.283 s
  | Density mixing & preconditioning           :        0.025 s           0.024 s
  | Hartree multipole update                   :        0.001 s           0.001 s
  | Hartree multipole summation                :        0.220 s           0.219 s
  | Integration                                :        0.178 s           0.178 s
  | Solution of K.-S. eqns.                    :        0.124 s           0.125 s
  | Total energy evaluation                    :        0.000 s           0.000 s

  Partial memory accounting:
  | Current value for overall tracked memory usage on task 0  :           2.663 MB
  | Peak value for overall tracked memory usage on task 0     :           4.096 MB after allocating wave
  | Largest tracked array allocation on task 0 so far         :           2.500 MB  when allocating +KS_eigenvector_complex
  Note:  These values currently only include a subset of arrays which are explicitly tracked.
  The "true" memory usage will be greater.
------------------------------------------------------------

------------------------------------------------------------
          Begin self-consistency iteration #    8

  Date     :  20190514, Time     :  105017.258
------------------------------------------------------------
  Evaluating new KS density using the density matrix
  Evaluating density matrix
  Time summed over all CPUs for getting density from density matrix: real work        0.226 s, elapsed        0.226 s
  Integration grid: deviation in total charge (<rho> - N_e) =  -3.339551E-13
  Pulay mixing of updated and previous charge densities.

  Evaluating partitioned Hartree potential by multipole expansion.
  | Analytical far-field extrapolation by fixed multipoles:
  | Hartree multipole sum: apparent total charge =   0.638936E-04
  Summing up the Hartree potential.
  Time summed over all CPUs for potential: real work        0.197 s, elapsed        0.197 s
  | RMS charge density error from multipole expansion :   0.223133E-02
  | Average real-space part of the electrostatic potential :     -0.28806659 eV

  Integrating Hamiltonian matrix: batch-based integration.
  Time summed over all CPUs for integration: real work        0.146 s, elapsed        0.146 s

  Updating Kohn-Sham eigenvalues, eigenvectors, occupation numbers, and Fermi level.
  Solving generalized eigenproblem

  Obtaining occupation numbers and chemical potential using ELSI.
  | Chemical potential (Fermi level):    -4.89782645eV
  What follows are estimated values for band gap, HOMO, LUMO, etc.
  | They are estimated on a discrete k-point grid and not necessarily exact.
  | For converged numbers, create a DOS and/or band structure plot on a denser k-grid.

  Highest occupied state (VBM) at     -4.90515264 eV (relative to internal zero)
  | Occupation number:      1.16415883
  | K-point:      20 at    0.000000    0.166667    0.333333 (in units of recip. lattice)

  Lowest unoccupied state (CBM) at    -4.89199205 eV (relative to internal zero)
  | Occupation number:      0.86892696
  | K-point:     259 at    0.166667    0.666667    0.500000 (in units of recip. lattice)

  ESTIMATED overall HOMO-LUMO gap:      0.01316059 eV between HOMO at k-point 20 and LUMO at k-point 259
  | This appears to be an indirect band gap.
  | Smallest direct gap :      1.08347913 eV for k_point 347 at    0.166667    0.666667    0.500000 (in units of recip. lattice)
  However, this system has fractional occupation numbers. Since we use a finite k-point grid,
  this material is metallic within the approximate finite broadening function (occupation_type)
  applied to determine the occupation numbers.

  Total energy components:
  | Sum of eigenvalues            :        -163.81120326 Ha       -4457.52963738 eV
  | XC energy correction          :         -19.64830562 Ha        -534.65759897 eV
  | XC potential correction       :          25.96003343 Ha         706.40845143 eV
  | Free-atom electrostatic energy:        -132.17953614 Ha       -3596.78818090 eV
  | Hartree energy correction     :           0.39432900 Ha          10.73023790 eV
  | Entropy correction            :          -0.00003815 Ha          -0.00103803 eV
  | ---------------------------
  | Total energy                  :        -289.28468259 Ha       -7871.83672791 eV
  | Total energy, T -> 0          :        -289.28472074 Ha       -7871.83776595 eV  <-- do not rely on this value for anything but (periodic) metals
  | Electronic free energy        :        -289.28475888 Ha       -7871.83880398 eV

  Derived energy quantities:
  | Kinetic energy                :         289.33659970 Ha        7873.24946425 eV
  | Electrostatic energy          :        -558.97297667 Ha      -15210.42859320 eV
  | Energy correction for multipole
  | error in Hartree potential    :           0.00026070 Ha           0.00709411 eV
  | Sum of eigenvalues per atom                           :       -4457.52963738 eV
  | Total energy (T->0) per atom                          :       -7871.83776595 eV  <-- do not rely on this value for anything but (periodic) metals
  | Electronic free energy per atom                       :       -7871.83880398 eV

  Self-consistency convergence accuracy:
  | Change of charge density      :  0.1054E-03
  | Change of sum of eigenvalues  :  0.4161E-01 eV
  | Change of total energy        : -0.3241E-05 eV

  End self-consistency iteration #     8       :  max(cpu_time)    wall_clock(cpu1)
  | Time for this iteration                    :        0.726 s           0.726 s
  | Charge density update                      :        0.240 s           0.240 s
  | Density mixing & preconditioning           :        0.023 s           0.024 s
  | Hartree multipole update                   :        0.000 s           0.000 s
  | Hartree multipole summation                :        0.199 s           0.199 s
  | Integration                                :        0.146 s           0.146 s
  | Solution of K.-S. eqns.                    :        0.117 s           0.117 s
  | Total energy evaluation                    :        0.000 s           0.000 s

  Partial memory accounting:
  | Current value for overall tracked memory usage on task 0  :           2.664 MB
  | Peak value for overall tracked memory usage on task 0     :           4.096 MB after allocating wave
  | Largest tracked array allocation on task 0 so far         :           2.500 MB  when allocating +KS_eigenvector_complex
  Note:  These values currently only include a subset of arrays which are explicitly tracked.
  The "true" memory usage will be greater.
------------------------------------------------------------

------------------------------------------------------------
          Begin self-consistency iteration #    9

  Date     :  20190514, Time     :  105017.984
------------------------------------------------------------
  Evaluating new KS density using the density matrix
  Evaluating density matrix
  Time summed over all CPUs for getting density from density matrix: real work        0.211 s, elapsed        0.211 s
  Integration grid: deviation in total charge (<rho> - N_e) =  -3.161915E-13
  Pulay mixing of updated and previous charge densities.

  Evaluating partitioned Hartree potential by multipole expansion.
  | Analytical far-field extrapolation by fixed multipoles:
  | Hartree multipole sum: apparent total charge =   0.647310E-04
  Summing up the Hartree potential.
  Time summed over all CPUs for potential: real work        0.191 s, elapsed        0.191 s
  | RMS charge density error from multipole expansion :   0.223130E-02
  | Average real-space part of the electrostatic potential :     -0.28807543 eV

  Integrating Hamiltonian matrix: batch-based integration.
  Time summed over all CPUs for integration: real work        0.137 s, elapsed        0.137 s

  Updating Kohn-Sham eigenvalues, eigenvectors, occupation numbers, and Fermi level.
  Solving generalized eigenproblem

  Obtaining occupation numbers and chemical potential using ELSI.
  | Chemical potential (Fermi level):    -4.89782889eV
  What follows are estimated values for band gap, HOMO, LUMO, etc.
  | They are estimated on a discrete k-point grid and not necessarily exact.
  | For converged numbers, create a DOS and/or band structure plot on a denser k-grid.

  Highest occupied state (VBM) at     -4.90515553 eV (relative to internal zero)
  | Occupation number:      1.16416870
  | K-point:      37 at    0.000000    0.333333    0.166667 (in units of recip. lattice)

  Lowest unoccupied state (CBM) at    -4.89199435 eV (relative to internal zero)
  | Occupation number:      0.86892377
  | K-point:     259 at    0.166667    0.666667    0.500000 (in units of recip. lattice)

  ESTIMATED overall HOMO-LUMO gap:      0.01316118 eV between HOMO at k-point 37 and LUMO at k-point 259
  | This appears to be an indirect band gap.
  | Smallest direct gap :      1.08347934 eV for k_point 347 at    0.166667    0.666667    0.500000 (in units of recip. lattice)
  However, this system has fractional occupation numbers. Since we use a finite k-point grid,
  this material is metallic within the approximate finite broadening function (occupation_type)
  applied to determine the occupation numbers.

  Total energy components:
  | Sum of eigenvalues            :        -163.81121857 Ha       -4457.53005384 eV
  | XC energy correction          :         -19.64830353 Ha        -534.65754224 eV
  | XC potential correction       :          25.96003068 Ha         706.40837639 eV
  | Free-atom electrostatic energy:        -132.17953614 Ha       -3596.78818090 eV
  | Hartree energy correction     :           0.39434497 Ha          10.73067271 eV
  | Entropy correction            :          -0.00003815 Ha          -0.00103803 eV
  | ---------------------------
  | Total energy                  :        -289.28468259 Ha       -7871.83672788 eV
  | Total energy, T -> 0          :        -289.28472074 Ha       -7871.83776591 eV  <-- do not rely on this value for anything but (periodic) metals
  | Electronic free energy        :        -289.28475888 Ha       -7871.83880394 eV

  Derived energy quantities:
  | Kinetic energy                :         289.33657456 Ha        7873.24878023 eV
  | Electrostatic energy          :        -558.97295361 Ha      -15210.42796586 eV
  | Energy correction for multipole
  | error in Hartree potential    :           0.00026071 Ha           0.00709415 eV
  | Sum of eigenvalues per atom                           :       -4457.53005384 eV
  | Total energy (T->0) per atom                          :       -7871.83776591 eV  <-- do not rely on this value for anything but (periodic) metals
  | Electronic free energy per atom                       :       -7871.83880394 eV

  Self-consistency convergence accuracy:
  | Change of charge density      :  0.2502E-05
  | Change of sum of eigenvalues  : -0.4165E-03 eV
  | Change of total energy        :  0.3505E-07 eV

  End self-consistency iteration #     9       :  max(cpu_time)    wall_clock(cpu1)
  | Time for this iteration                    :        0.702 s           0.703 s
  | Charge density update                      :        0.227 s           0.227 s
  | Density mixing & preconditioning           :        0.020 s           0.020 s
  | Hartree multipole update                   :        0.000 s           0.001 s
  | Hartree multipole summation                :        0.192 s           0.192 s
  | Integration                                :        0.137 s           0.138 s
  | Solution of K.-S. eqns.                    :        0.125 s           0.124 s
  | Total energy evaluation                    :        0.000 s           0.001 s

  Partial memory accounting:
  | Current value for overall tracked memory usage on task 0  :           2.664 MB
  | Peak value for overall tracked memory usage on task 0     :           4.096 MB after allocating wave
  | Largest tracked array allocation on task 0 so far         :           2.500 MB  when allocating +KS_eigenvector_complex
  Note:  These values currently only include a subset of arrays which are explicitly tracked.
  The "true" memory usage will be greater.
------------------------------------------------------------

------------------------------------------------------------
          Begin self-consistency iteration #   10

  Date     :  20190514, Time     :  105018.687
------------------------------------------------------------
  Evaluating new KS density using the density matrix
  Evaluating density matrix
  Time summed over all CPUs for getting density from density matrix: real work        0.213 s, elapsed        0.213 s
  Integration grid: deviation in total charge (<rho> - N_e) =  -3.375078E-13
  Pulay mixing of updated and previous charge densities.

  Evaluating partitioned Hartree potential by multipole expansion.
  | Analytical far-field extrapolation by fixed multipoles:
  | Hartree multipole sum: apparent total charge =   0.631354E-04
  Summing up the Hartree potential.
  Time summed over all CPUs for potential: real work        0.209 s, elapsed        0.209 s
  | RMS charge density error from multipole expansion :   0.223129E-02
  | Average real-space part of the electrostatic potential :     -0.28806828 eV

  Integrating Hamiltonian matrix: batch-based integration.
  Time summed over all CPUs for integration: real work        0.164 s, elapsed        0.164 s

  Updating Kohn-Sham eigenvalues, eigenvectors, occupation numbers, and Fermi level.
  Solving generalized eigenproblem

  Obtaining occupation numbers and chemical potential using ELSI.
  | Chemical potential (Fermi level):    -4.89783176eV
  What follows are estimated values for band gap, HOMO, LUMO, etc.
  | They are estimated on a discrete k-point grid and not necessarily exact.
  | For converged numbers, create a DOS and/or band structure plot on a denser k-grid.

  Highest occupied state (VBM) at     -4.90515865 eV (relative to internal zero)
  | Occupation number:      1.16417424
  | K-point:     280 at    0.166667    0.833333    0.833333 (in units of recip. lattice)

  Lowest unoccupied state (CBM) at    -4.89199714 eV (relative to internal zero)
  | Occupation number:      0.86892195
  | K-point:     259 at    0.166667    0.666667    0.500000 (in units of recip. lattice)

  ESTIMATED overall HOMO-LUMO gap:      0.01316151 eV between HOMO at k-point 280 and LUMO at k-point 259
  | This appears to be an indirect band gap.
  | Smallest direct gap :      1.08347946 eV for k_point 372 at    0.166667    0.666667    0.500000 (in units of recip. lattice)
  However, this system has fractional occupation numbers. Since we use a finite k-point grid,
  this material is metallic within the approximate finite broadening function (occupation_type)
  applied to determine the occupation numbers.

  Total energy components:
  | Sum of eigenvalues            :        -163.81122553 Ha       -4457.53024329 eV
  | XC energy correction          :         -19.64830340 Ha        -534.65753863 eV
  | XC potential correction       :          25.96003049 Ha         706.40837138 eV
  | Free-atom electrostatic energy:        -132.17953614 Ha       -3596.78818090 eV
  | Hartree energy correction     :           0.39435199 Ha          10.73086357 eV
  | Entropy correction            :          -0.00003815 Ha          -0.00103803 eV
  | ---------------------------
  | Total energy                  :        -289.28468259 Ha       -7871.83672786 eV
  | Total energy, T -> 0          :        -289.28472074 Ha       -7871.83776590 eV  <-- do not rely on this value for anything but (periodic) metals
  | Electronic free energy        :        -289.28475888 Ha       -7871.83880393 eV

  Derived energy quantities:
  | Kinetic energy                :         289.33656927 Ha        7873.24863641 eV
  | Electrostatic energy          :        -558.97294846 Ha      -15210.42782564 eV
  | Energy correction for multipole
  | error in Hartree potential    :           0.00026071 Ha           0.00709419 eV
  | Sum of eigenvalues per atom                           :       -4457.53024329 eV
  | Total energy (T->0) per atom                          :       -7871.83776590 eV  <-- do not rely on this value for anything but (periodic) metals
  | Electronic free energy per atom                       :       -7871.83880393 eV

  Self-consistency convergence accuracy:
  | Change of charge density      :  0.7909E-06
  | Change of sum of eigenvalues  : -0.1894E-03 eV
  | Change of total energy        :  0.1366E-07 eV

  Preliminary charge convergence reached. Turning off preconditioner.

  Writing Kohn-Sham eigenvalues.
  K-point:       1 at    0.000000    0.000000    0.000000 (in units of recip. lattice)

  State    Occupation    Eigenvalue [Ha]    Eigenvalue [eV]
      1       2.00000         -65.533735        -1783.26367
      2       2.00000          -5.121507         -139.36330
      3       2.00000          -3.536399          -96.23032
      4       2.00000          -3.536399          -96.23032
      5       2.00000          -3.536399          -96.23032
      6       2.00000          -0.496368          -13.50687
      7       0.00000          -0.037408           -1.01792
      8       0.00000          -0.037408           -1.01792
      9       0.00000          -0.037408           -1.01792
     10       0.00000           0.167834            4.56698

  What follows are estimated values for band gap, HOMO, LUMO, etc.
  | They are estimated on a discrete k-point grid and not necessarily exact.
  | For converged numbers, create a DOS and/or band structure plot on a denser k-grid.

  Highest occupied state (VBM) at     -4.90515865 eV (relative to internal zero)
  | Occupation number:      1.16417424
  | K-point:     280 at    0.166667    0.833333    0.833333 (in units of recip. lattice)

  Lowest unoccupied state (CBM) at    -4.89199714 eV (relative to internal zero)
  | Occupation number:      0.86892195
  | K-point:     259 at    0.166667    0.666667    0.500000 (in units of recip. lattice)

  ESTIMATED overall HOMO-LUMO gap:      0.01316151 eV between HOMO at k-point 280 and LUMO at k-point 259
  | This appears to be an indirect band gap.
  | Smallest direct gap :      1.08347946 eV for k_point 372 at    0.166667    0.666667    0.500000 (in units of recip. lattice)
  However, this system has fractional occupation numbers. Since we use a finite k-point grid,
  this material is metallic within the approximate finite broadening function (occupation_type)
  applied to determine the occupation numbers.

  Self-consistency cycle converged.

  End self-consistency iteration #    10       :  max(cpu_time)    wall_clock(cpu1)
  | Time for this iteration                    :        0.756 s           0.756 s
  | Charge density update                      :        0.235 s           0.235 s
  | Density mixing                             :        0.018 s           0.018 s
  | Hartree multipole update                   :        0.000 s           0.001 s
  | Hartree multipole summation                :        0.210 s           0.210 s
  | Integration                                :        0.164 s           0.164 s
  | Solution of K.-S. eqns.                    :        0.127 s           0.127 s
  | Total energy evaluation                    :        0.000 s           0.000 s

  Partial memory accounting:
  | Current value for overall tracked memory usage on task 0  :           2.664 MB
  | Peak value for overall tracked memory usage on task 0     :           4.096 MB after allocating wave
  | Largest tracked array allocation on task 0 so far         :           2.500 MB  when allocating +KS_eigenvector_complex
  Note:  These values currently only include a subset of arrays which are explicitly tracked.
  The "true" memory usage will be greater.
------------------------------------------------------------

  Energy and forces in a compact form:
  | Total energy uncorrected      :         -0.787183672786476E+04 eV
  | Total energy corrected        :         -0.787183776589681E+04 eV  <-- do not rely on this value for anything but (periodic) metals
  | Electronic free energy        :         -0.787183880392885E+04 eV

  ------------------------------------ 
  Start decomposition of the XC Energy 
  ------------------------------------ 
  X and C from original XC functional choice 
  Hartree-Fock Energy :          0.000000000 Ha              0.000000000 eV
  X Energy            :        -18.591155551 Ha           -505.891082011 eV
  C Energy            :         -1.057147850 Ha            -28.766456621 eV
  Total XC Energy     :        -19.648303402 Ha           -534.657538632 eV
  ------------------------------------ 
  LDA X and C from self-consistent density 
  X Energy LDA        :        -18.591155551 Ha           -505.891082011 eV
  C Energy LDA        :         -1.057147850 Ha            -28.766456621 eV
  ------------------------------------ 
  End decomposition of the XC Energy 
  ------------------------------------ 

------------------------------------------------------------

------------------------------------------------------------------------------
  Final output of selected total energy values:

  The following output summarizes some interesting total energy values
  at the end of a run (AFTER all relaxation, molecular dynamics, etc.).

  | Total energy of the DFT / Hartree-Fock s.c.f. calculation      :          -7871.836727865 eV
  | Final zero-broadening corrected energy (caution - metals only) :          -7871.837765897 eV
  | For reference only, the value of 1 Hartree used in FHI-aims is :             27.211384500 eV

  Before relying on these values, please be sure to understand exactly which
  total energy value is referred to by a given number. Different objects may
  all carry the same name 'total energy'. Definitions:

  Total energy of the DFT / Hartree-Fock s.c.f. calculation:
  | Note that this energy does not include ANY quantities calculated after the
  | s.c.f. cycle, in particular not ANY RPA, MP2, etc. many-body perturbation terms.

  Final zero-broadening corrected energy:
  | For metallic systems only, a broadening of the occupation numbers at the Fermi
  | level can be extrapolated back to zero broadening by an electron-gas inspired
  | formula. For all systems that are not real metals, this value can be
  | meaningless and should be avoided.

------------------------------------------------------------------------------
  Methods described in the following list of references were used in this FHI-aims run.
  If you publish the results, please make sure to cite these reference if they apply.
  FHI-aims is an academic code, and for our developers (often, Ph.D. students
  and postdocs), scientific credit in the community is essential.
  Thank you for helping us!

  For any use of FHI-aims, please cite:

    Volker Blum, Ralf Gehrke, Felix Hanke, Paula Havu, Ville Havu,
    Xinguo Ren, Karsten Reuter, and Matthias Scheffler
    'Ab initio molecular simulations with numeric atom-centered orbitals'
    Computer Physics Communications 180, 2175-2196 (2009)
    http://dx.doi.org/10.1016/j.cpc.2009.06.022


  For the real-space grid partitioning and parallelization used in this calculation, please cite:

    Ville Havu, Volker Blum, Paula Havu, and Matthias Scheffler,
    'Efficient O(N) integration for all-electron electronic structure calculation'
    'using numerically tabulated basis functions'
    Journal of Computational Physics 228, 8367-8379 (2009).
    http://dx.doi.org/10.1016/j.jcp.2009.08.008

  Of course, there are many other important community references, e.g., those cited in the
  above references. Our list is limited to references that describe implementations in the
  FHI-aims code. The reason is purely practical (length of this list) - please credit others as well.

------------------------------------------------------------
          Leaving FHI-aims.
          Date     :  20190514, Time     :  105019.447

          Computational steps:
          | Number of self-consistency cycles          :           10
          | Number of SCF (re)initializations          :            1

          Detailed time accounting                     :  max(cpu_time)    wall_clock(cpu1)
          | Total time                                 :        8.024 s           8.032 s
          | Preparation time                           :        0.111 s           0.112 s
          | Boundary condition initalization           :        0.026 s           0.026 s
          | Grid partitioning                          :        0.011 s           0.011 s
          | Preloading free-atom quantities on grid    :        0.001 s           0.001 s
          | Free-atom superposition energy             :        0.012 s           0.012 s
          | Total time for integrations                :        1.723 s           1.728 s
          | Total time for solution of K.-S. equations :        1.476 s           1.478 s
          | Total time for density update              :        2.399 s           2.402 s
          | Total time for mixing & preconditioning    :        0.217 s           0.218 s
          | Total time for Hartree multipole update    :        0.007 s           0.009 s
          | Total time for Hartree multipole sum       :        1.986 s           1.984 s
          | Total time for total energy evaluation     :        0.003 s           0.002 s
          | Total time for scaled ZORA corrections     :        0.000 s           0.000 s

 This is a stub MPI_ALLREDUCE call.
 You should not be here. Check your
 setting on the use_mpi variable, or
 link against true MPI-libraries.
