------------------------------------------------------------
          Invoking FHI-aims ...
          Version 171221_1
          Compiled on 2019/05/06 at 14:26:40 on host ffph0xx.

          When using FHI-aims, please cite the following reference:

          Volker Blum, Ralf Gehrke, Felix Hanke, Paula Havu,
          Ville Havu, Xinguo Ren, Karsten Reuter, and Matthias Scheffler,
          'Ab Initio Molecular Simulations with Numeric Atom-Centered Orbitals',
          Computer Physics Communications 180, 2175-2196 (2009)

          For any questions about FHI-aims, please visit the aimsclub website
          with its forums and wiki. Contributions to both the forums and the
          wiki are warmly encouraged - they are for you, and everyone is welcome there.

------------------------------------------------------------



  Date     :  20190514, Time     :  123632.014
  Time zero on CPU 1             :   0.649000000000000E-03  s.
  Internal wall clock time zero  :           327069392.014  s.

  FHI-aims created a unique identifier for this run for later identification
  aims_uuid : A31DEC28-9D97-4B70-AC09-72F36E22B291


  Performing system and environment tests:
  *** Environment variable OMP_NUM_THREADS is not set
  *** For performance reasons you might want to set it to 1
  | Stacksize not measured: no C compiler

  Obtaining array dimensions for all initial allocations:
  
  -----------------------------------------------------------------------
  Parsing control.in (first pass over file, find array dimensions only).
  The contents of control.in will be repeated verbatim below
  unless switched off by setting 'verbatim_writeout .false.' .
  in the first line of control.in .
  -----------------------------------------------------------------------
  
  #--- method ---
  xc pw-lda
  spin none
  relativistic atomic_zora scalar
  #---
  
  #--- k-grid settings ---
  k_grid 12 12 12
  #---
  
  
  
  
  
  
  
  
  
  
  
  #-------------------------------------------------------------------------------
  #--- Species defaults for Si
  #-------------------------------------------------------------------------------
  
  ################################################################################
  #
  #  FHI-aims code project
  #  VB, Fritz-Haber Institut, 2009
  #
  #  Suggested "light" defaults for Si atom (to be pasted into control.in file)
  #  Be sure to double-check any results obtained with these settings for post-processing,
  #  e.g., with the "tight" defaults and larger basis sets.
  #
  ################################################################################
    species        Si
  #     global species definitions
      nucleus             14
      mass                28.0855
  #
      l_hartree           4
  #
      cut_pot             3.5          1.5  1.0
      basis_dep_cutoff    1e-4
  #
      radial_base         42 5.0
      radial_multiplier   1
      angular_grids       specified
        division   0.5866   50
        division   0.9616  110
        division   1.2249  194
        division   1.3795  302
  #      division   1.4810  434
  #      division   1.5529  590
  #      division   1.6284  770
  #      division   1.7077  974
  #      division   2.4068 1202
  #      outer_grid   974
        outer_grid 302
  ################################################################################
  #
  #  Definition of "minimal" basis
  #
  ################################################################################
  #     valence basis states
      valence      3  s   2.
      valence      3  p   2.
  #     ion occupancy
      ion_occ      3  s   1.
      ion_occ      3  p   1.
  ################################################################################
  #
  #  Suggested additional basis functions. For production calculations,
  #  uncomment them one after another (the most important basis functions are
  #  listed first).
  #
  #  Constructed for dimers: 1.75 A, 2.0 A, 2.25 A, 2.75 A, 3.75 A
  #
  ################################################################################
  #  "First tier" - improvements: -571.96 meV to -37.03 meV
       hydro 3 d 4.2
       hydro 2 p 1.4
  #     hydro 4 f 6.2
       ionic 3 s auto
  #  "Second tier" - improvements: -16.76 meV to -3.03 meV
  #     hydro 3 d 9
  #     hydro 5 g 9.4
  #     hydro 4 p 4
  #     hydro 1 s 0.65
  #  "Third tier" - improvements: -3.89 meV to -0.60 meV
  #     ionic 3 d auto
  #     hydro 3 s 2.6
  #     hydro 4 f 8.4
  #     hydro 3 d 3.4
  #     hydro 3 p 7.8
  #  "Fourth tier" - improvements: -0.33 meV to -0.11 meV
  #     hydro 2 p 1.6
  #     hydro 5 g 10.8
  #     hydro 5 f 11.2
  #     hydro 3 d 1
  #     hydro 4 s 4.5
  #  Further basis functions that fell out of the optimization - noise
  #  level... < -0.08 meV
  #     hydro 4 d 6.6
  #     hydro 5 g 16.4
  #     hydro 4 d 9
  
  -----------------------------------------------------------------------
  Completed first pass over input file control.in .
  -----------------------------------------------------------------------
  
  
  -----------------------------------------------------------------------
  Parsing geometry.in (first pass over file, find array dimensions only).
  The contents of geometry.in will be repeated verbatim below
  unless switched off by setting 'verbatim_writeout .false.' .
  in the first line of geometry.in .
  -----------------------------------------------------------------------
  
  lattice_vector   0.000000   2.900000   2.900000
  lattice_vector   2.900000   0.000000   2.900000
  lattice_vector   2.900000   2.900000   0.000000
  atom_frac   0.000000   0.000000   0.000000 Si
  
  -----------------------------------------------------------------------
  Completed first pass over input file geometry.in .
  -----------------------------------------------------------------------
  

  Basic array size parameters:
  | Number of species                 :        1
  | Number of atoms                   :        1
  | Number of lattice vectors         :        3
  | Max. basis fn. angular momentum   :        2
  | Max. atomic/ionic basis occupied n:        3
  | Max. number of basis fn. types    :        3
  | Max. radial fns per species/type  :        5
  | Max. logarithmic grid size        :     1346
  | Max. radial integration grid size :       42
  | Max. angular integration grid size:      302
  | Max. angular grid division number :        8
  | Radial grid for Hartree potential :     1346
  | Number of spin channels           :        1

------------------------------------------------------------
          Reading file control.in.
------------------------------------------------------------
  XC: Using Perdew-Wang parametrisation of Ceperley-Alder LDA.
  Spin treatment: No spin polarisation.
  Scalar relativistic treatment of kinetic energy: on-site free-atom approximation to ZORA.
  Found k-point grid:        12        12        12

  Reading configuration options for species Si                  .
  | Found nuclear charge :  14.0000
  | Found atomic mass :    28.085500000000000      amu
  | Found l_max for Hartree potential  :   4
  | Found cutoff potl. onset [A], width [A], scale factor :    3.50000    1.50000    1.00000
  | Threshold for basis-dependent cutoff potential is   0.100000E-03
  | Found data for basic radial integration grid :    42 points, outermost radius =    5.000 A
  | Found multiplier for basic radial grid :   1
  | Found angular grid specification: user-specified.
  | Specified grid contains     5 separate shells.
  | Check grid settings after all constraints further below.
  | Found free-atom valence shell :  3 s   2.000
  | Found free-atom valence shell :  3 p   2.000
  | Found free-ion valence shell :  3 s   1.000
  | Found free-ion valence shell :  3 p   1.000
  | Found hydrogenic basis function :  3 d   4.200
  | Found hydrogenic basis function :  2 p   1.400
  | Found ionic basis function :  3 s , default cutoff radius.
  Species Si                  : Missing cutoff potential type.
  Defaulting to exp(1/x)/(1-x)^2 type cutoff potential.
  Species Si: No 'logarithmic' tag. Using default grid for free atom:
  | Default logarithmic grid data [bohr] : 0.1000E-03 0.1000E+03 0.1012E+01
  | Will include ionic basis functions of  2.0-fold positive Si                   ion.
  Species Si: On-site basis accuracy parameter (for Gram-Schmidt orthonormalisation) not specified.
  Using default value basis_acc =  0.1000000E-03.
  Species Si                  : Using default innermost maximum threshold i_radial=  2 for radial functions.
  Species Si                  : Default cutoff onset for free atom density etc. : 0.35000000E+01 AA.
  Species Si                  : Basic radial grid will be enhanced according to radial_multiplier =   1, to contain    42 grid points.

  Finished reading input file 'control.in'. Consistency checks are next.

  MPI_IN_PLACE appears to work with this MPI implementation.
  | Keeping use_mpi_in_place .true. (see manual).
  Target number of points in a grid batch is not set. Defaulting to  100
  Method for grid partitioning is not set. Defaulting to 'maxmin' partitioning.
  Batch size limit is not set. Defaulting to    200
  By default, will store active basis functions for each batch.
  If in need of memory, prune_basis_once .false. can be used to disable this option.
  communication_type for Hartree potential was not specified.
  Defaulting to calc_hartree .
 * Attention: 
 * You may want to set distributed_spline_storage to .true. in order to save memory.
 * This doesn't harm performance and is perfectly ok unless:
 * - you get error messages in postprocessing (about missing atoms in get_rho_multipole_spl)
 * - you need full spline storage in hirshfeld_analysis
  Defaulting to Pulay charge density mixer.
  Pulay mixer: Number of relevant iterations not set.
  Defaulting to    8 iterations.
  Pulay mixer: Number of initial linear mixing iterations not set.
  Defaulting to    0 iterations.
  Work space size for distributed Hartree potential not set.
  Defaulting to   0.200000E+03 MB.
  Mixing parameter for charge density mixing has not been set.
  Using default: charge_mix_param =     0.0500.
  The mixing parameter will be adjusted in iteration number     2 of the first full s.c.f. cycle only.
  Algorithm-dependent basis array size parameters:
  | n_max_pulay                         :        8
 * Notice: The s.c.f. convergence criterion sc_accuracy_rho was not provided.
 * We used to stop in this case, and ask the user to provide reasonable
 * scf convergence criteria. However, this led some users to employ criteria
 * that led to extremely long run times, e.g., for simple relaxation.
 * We now preset a default value for sc_accuracy_rho if it is not set.
 * You may still wish to check if this setting is too tight or too loose for your needs.
 * Based on n_atoms, FHI-aims chose sc_accuracy_rho =  0.100000E-05 .
  Maximum number of self-consistency iterations not provided.
  Presetting  1000 iterations.
  Presetting      1001 iterations before the initial mixing cycle
  is restarted anyway using the sc_init_iter criterion / keyword.
  Presetting a factor      1.000 between actual scf density residual
  and density convergence criterion sc_accuracy_rho below which sc_init_iter
  takes no effect.
 * No s.c.f. convergence criteria (sc_accuracy_*) were provided in control.in.
 * The run will proceed with a reasonable default guess, but please check whether.
 * the s.c.f. cycles seem to take too much or too little time.
  Calculation of forces was not defined in control.in. No forces will be calculated.
  Geometry relaxation not requested: no relaxation will be performed.
  No accuracy limit for integral partition fn. given. Defaulting to  0.1000E-14.
  No threshold value for u(r) in integrations given. Defaulting to  0.1000E-05.
  No occupation type (smearing scheme) given. Defaulting to Gaussian broadening, width =  0.1000E-01 eV.
  The width will be adjusted in iteration number     2 of the first full s.c.f. cycle only.
  S.C.F. convergence parameters will be adjusted in iteration number     2 of the first full s.c.f. cycle only.
  No accuracy for occupation numbers given. Defaulting to  0.1000E-12.
  No threshold value for occupation numbers given. Defaulting to  0.0000E+00.
  No accuracy for fermi level given. Defaulting to  0.1000E-19.
  Maximum # of iterations to find E_F not set. Defaulting to  200.
  Preferred method for the eigenvalue solver ('KS_method') not specified in 'control.in'.
  Defaulting to serial version, 'lapack_fast'.
  Will not use alltoall communication since running on < 1024 CPUs.
  Threshold for basis singularities not set.
  Default threshold for basis singularities:  0.1000E-04
  partition_type (choice of integration weights) for integrals was not specified.
  | Using a version of the partition function of Stratmann and coworkers ('stratmann_smoother').
  | At each grid point, the set of atoms used to build the partition table is smoothly restricted to
  | only those atoms whose free-atom density would be non-zero at that grid point.
  Partitioning for Hartree potential was not defined. Using partition_type for integrals.
  | Adjusted default value of keyword multip_moments_threshold to:       0.10000000E-11
  | This value may affect high angular momentum components of the Hartree potential in periodic systems.
  Angular momentum expansion for Kerker preconditioner not set explicitly.
  | Using default value of   0
  No explicit requirement for turning off preconditioner.
  | By default, it will be turned off when the charge convergence reaches
  | sc_accuracy_rho  =   0.100000E-05
  No special mixing parameter while Kerker preconditioner is on.
  Using default: charge_mix_param =     0.0500.
  No q(lm)/r^(l+1) cutoff set for long-range Hartree potential.
  | Using default value of  0.100000E-09 .
  | Verify using the multipole_threshold keyword.
  Defaulting to new monopole extrapolation.
  Density update method: automatic selection selected.
  Using density matrix based charge density update.
  Using density matrix based charge density update.
  Using packed matrix style: index .
  Defaulting to use time-reversal symmetry for k-point grid.
------------------------------------------------------------


------------------------------------------------------------
          Reading geometry description geometry.in.
------------------------------------------------------------
  Input structure read successfully.
  The structure contains        1 atoms,  and a total of         14.000 electrons.

  Input geometry:
  | Unit cell:
  |        0.00000000        2.90000000        2.90000000
  |        2.90000000        0.00000000        2.90000000
  |        2.90000000        2.90000000        0.00000000
  | Atomic structure:
  |       Atom                x [A]            y [A]            z [A]
  |    1: Species Si            0.00000000        0.00000000        0.00000000

  Lattice parameters for 3D lattice (in Angstroms) :     4.101219    4.101219    4.101219
  Angle(s) between unit vectors (in degrees)      :    60.000000   60.000000   60.000000

  |

  | The smallest distance between any two atoms is         4.10121933 AA.
  |
  | The first atom of this pair is atom number                      1 .
  | The second atom of this pair is atom number                     1 .
  | Wigner-Seitz cell of the first atom image          -1     0     1 .
  | (The Wigner-Seitz cell of the second atom is 0 0 0  by definition.)

  Quantities derived from the lattice vectors:
  | Reciprocal lattice vector 1: -1.083308  1.083308  1.083308
  | Reciprocal lattice vector 2:  1.083308 -1.083308  1.083308
  | Reciprocal lattice vector 3:  1.083308  1.083308 -1.083308
  | Unit cell volume                               :   0.487780E+02  A^3

  Range separation radius for Ewald summation (hartree_convergence_parameter):      5.00000000 bohr.

  Fractional coordinates:
                         L1                L2                L3
       atom_frac         0.00000000        0.00000000        0.00000000  Si

  Number of empty states per atom not set in control.in - providing a guess from actual geometry.
  | Total number of empty states used during s.c.f. cycle:        3
  If you use a very high smearing, use empty_states (per atom!) in control.in to increase this value.

  Structure-dependent array size parameters: 
  | Maximum number of distinct radial functions  :        8
  | Maximum number of basis functions            :       18
  | Number of Kohn-Sham states (occupied + empty):       10
------------------------------------------------------------

------------------------------------------------------------
          Preparing all fixed parts of the calculation.
------------------------------------------------------------
  Determining machine precision:
     2.2250738585072014E-308
  Setting up grids for atomic and cluster calculations.

  Creating wave function, potential, and density for free atoms.

  Species: Si

  List of occupied orbitals and eigenvalues:
    n    l              occ      energy [Ha]    energy [eV]
    1    0           2.0000       -65.491668     -1782.1190
    2    0           2.0000        -5.087967      -138.4506
    3    0           2.0000        -0.391471       -10.6525
    2    1           6.0000        -3.502246       -95.3010
    3    1           2.0000        -0.143943        -3.9169

  Creating fixed part of basis set: Ionic, confined, hydrogenic.

  Si                   ion:

  List of free ionic orbitals and eigenvalues:
    n    l      energy [Ha]    energy [eV]
    1    0       -66.364436     -1805.8682
    2    0        -5.935799      -161.5213
    3    0        -1.078166       -29.3384
    2    1        -4.351123      -118.4001
    3    1        -0.781733       -21.2720


  List of ionic basis orbitals and eigenvalues:
    n    l      energy [Ha]    energy [eV]    outer radius [A]
    3    0        -1.078146       -29.3378       4.214062


  Si                   hydrogenic:

  List of hydrogenic basis orbitals: 
    n    l      effective z      eigenvalue [eV]  inner max. [A]     outer max. [A]     outer radius [A]   
    3    2         4.200000       -26.6624           1.139231           1.139231           4.534782
    2    1         1.400000        -6.4613           1.472672           1.472672           4.590560


  Adding cutoff potential to free-atom effective potential.
  Creating atomic-like basis functions for current effective potential.

  Species Si                  :

  List of atomic basis orbitals and eigenvalues:
    n    l      energy [Ha]    energy [eV]    outer radius [A]
    1    0       -65.491668     -1782.1190       0.789468
    2    0        -5.087967      -138.4506       2.815114
    3    0        -0.391471       -10.6525       4.534782
    2    1        -3.502246       -95.3010       3.259919
    3    1        -0.143943        -3.9169       4.590560

  Assembling full basis from fixed parts.
  | Species Si :   atomic orbital   1 s accepted.
  | Species Si :   atomic orbital   2 s accepted.
  | Species Si :    ionic orbital   3 s accepted.
  | Species Si :   atomic orbital   3 s accepted.
  | Species Si :   atomic orbital   2 p accepted.
  | Species Si :   atomic orbital   3 p accepted.
  | Species Si :    hydro orbital   2 p accepted.
  | Species Si :    hydro orbital   3 d accepted.

  Basis size parameters after reduction:
  | Total number of radial functions:        8
  | Total number of basis functions :       18

  Per-task memory consumption for arrays in subroutine allocate_ext:
  |           2.757468MB.
  Testing on-site integration grid accuracy.
  |  Species  Function  <phi|h_atom|phi> (log., in eV)  <phi|h_atom|phi> (rad., in eV)
           1        1              -1782.1189727076              -1782.1182429251
           1        2               -138.4506350693               -138.4506310079
           1        3                -10.3030408815                -10.3029120678
           1        4                  5.0238999146                  4.9457540310 ***
           1        5                -95.3009689499                -95.3009689315
           1        6                 -3.9266496564                 -3.9420918374
           1        7                  6.3453628447                  6.1632372158 ***
           1        8                  6.2883050744                  6.2861881409
 * Note: Onsite integrals marked "***" above are less accurate than
 * onsite_accuracy_threshold =    0.03000 eV. Usually, this is harmless.
 * When in doubt, tighten the "radial" and/or "radial_multiplier" flags to check.

  Preparing densities etc. for the partition functions (integrals / Hartree potential).

  Preparations completed.
  max(cpu_time)          :      0.099 s.
  Wall clock time (cpu1) :      0.099 s.
------------------------------------------------------------

------------------------------------------------------------
          Begin self-consistency loop: Initialization.

          Date     :  20190514, Time     :  123632.114
------------------------------------------------------------

  Initializing index lists of integration centers etc. from given atomic structure:
  Mapping all atomic coordinates to central unit cell.

  Initializing the k-points
          Using symmetry for reducing the k-points
  | k-points reduced from:     1728 to      868
  | Number of k-points                             :       868
  The eigenvectors in the calculations are COMPLEX.
  | K-points in task   0:       868
  | Number of basis functions in the Hamiltonian integrals :       426
  | Number of basis functions in a single unit cell        :        18
  | Number of centers in hartree potential         :       429
  | Number of centers in hartree multipole         :        87
  | Number of centers in electron density summation:        79
  | Number of centers in basis integrals           :        81
  | Number of centers in integrals                 :        51
  | Number of centers in hamiltonian               :        79
  | Consuming       1085 KiB for k_phase.
  | Number of super-cells (origin) [n_cells]                     :        2197
  | Number of super-cells (after PM_index) [n_cells]             :          80
  | Number of super-cells in hamiltonian [n_cells_in_hamiltonian]:          80
  | Size of matrix packed + index [n_hamiltonian_matrix_size] :        9946
  Partitioning the integration grid into batches with maxmin method.
  | Maximal weight for a single point:     1.000
  | Minimal weight for a single point:     0.391
  | Number of batches:       64
  | Maximal batch size:      90
  | Minimal batch size:      85
  | Average batch size:      87.562
  | Standard deviation of batch sizes:       1.499
  Initializing partition tables, free-atom densities, potentials, etc. across the integration grid (initialize_grid_storage).
  | initialize_grid_storage: Actual outermost partition radius vs. multipole_radius_free
  | (-- VB: in principle, multipole_radius_free should be larger, hence this output)
  | Species        1: Confinement radius =              4.999999999999999 AA, multipole_radius_free =              5.000694715736543 AA.
  | Species        1: outer_partition_radius set to              5.000694715736543 AA .
  | Original list of interatomic distances with          81 x         81 entries is created.
  | Net number of integration points:     5604
  | of which are non-zero points    :     5310
  | Numerical average free-atom electrostatic potential    :     -5.39311009 eV
  Renormalizing the initial density to the exact electron count on the 3D integration grid.
  | Initial density: Formal number of electrons (from input files) :      14.0000000000
  | Integrated number of electrons on 3D grid     :      14.0000116016
  | Charge integration error                      :       0.0000116016
  | Normalization factor for density and gradient :       0.9999991713
  Obtaining max. number of non-zero basis functions in each batch (get_n_compute_maxes).
  | Maximal number of non-zero basis functions:      224 in task     0
  Allocating        2.500 MB for KS_eigenvector_complex
  Integrating Hamiltonian matrix: batch-based integration.
  Time summed over all CPUs for integration: real work        0.077 s, elapsed        0.077 s
  Integrating overlap matrix.
  Time summed over all CPUs for integration: real work        0.053 s, elapsed        0.053 s
  Decreasing sparse matrix size:
   Tolerance:   9.9999998245167004E-014
   Hamiltonian matrix
  | Array has     6271 nonzero elements out of     9946 elements
  | Sparsity factor is 0.369
   Overlap matrix
  | Array has     5555 nonzero elements out of     9946 elements
  | Sparsity factor is 0.441
  New size of hamiltonian matrix:        6410

  Updating Kohn-Sham eigenvalues, eigenvectors, occupation numbers, and Fermi level.
  Solving generalized eigenproblem
  Transforming overlap matrix and checking for singularities.
  Overlap matrix is nonsingular at first k-point:
  | Lowest eigenvalue:  0.476544E-01

  Obtaining occupation numbers and chemical potential using ELSI.
  | Chemical potential (Fermi level):    -4.47113583eV
  Writing Kohn-Sham eigenvalues.
  K-point:       1 at    0.000000    0.000000    0.000000 (in units of recip. lattice)

  State    Occupation    Eigenvalue [Ha]    Eigenvalue [eV]
      1       2.00000         -65.491667        -1782.11894
      2       2.00000          -5.087978         -138.45091
      3       2.00000          -3.502258          -95.30128
      4       2.00000          -3.502258          -95.30128
      5       2.00000          -3.502258          -95.30128
      6       2.00000          -0.444285          -12.08960
      7       0.00000          -0.071818           -1.95426
      8       0.00000          -0.071818           -1.95426
      9       0.00000          -0.071818           -1.95426
     10       0.00000           0.086840            2.36304

  What follows are estimated values for band gap, HOMO, LUMO, etc.
  | They are estimated on a discrete k-point grid and not necessarily exact.
  | For converged numbers, create a DOS and/or band structure plot on a denser k-grid.

  Highest occupied state (VBM) at     -4.47977975 eV (relative to internal zero)
  | Occupation number:      1.77845703
  | K-point:     585 at    0.416667    0.666667    0.666667 (in units of recip. lattice)

  Lowest unoccupied state (CBM) at    -4.46101677 eV (relative to internal zero)
  | Occupation number:      0.15241566
  | K-point:     707 at    0.583333    0.500000    0.250000 (in units of recip. lattice)

  ESTIMATED overall HOMO-LUMO gap:      0.01876298 eV between HOMO at k-point 585 and LUMO at k-point 707
  | This appears to be an indirect band gap.
  | Smallest direct gap :      0.90175762 eV for k_point 376 at    0.583333    0.500000    0.250000 (in units of recip. lattice)
  However, this system has fractional occupation numbers. Since we use a finite k-point grid,
  this material is metallic within the approximate finite broadening function (occupation_type)
  applied to determine the occupation numbers.
  Calculating total energy contributions from superposition of free atom densities.

  Total energy components:
  | Sum of eigenvalues            :        -163.36405556 Ha       -4445.36212933 eV
  | XC energy correction          :         -19.64840294 Ha        -534.66024726 eV
  | XC potential correction       :          25.96051820 Ha         706.42164246 eV
  | Free-atom electrostatic energy:        -132.19998068 Ha       -3597.34450520 eV
  | Hartree energy correction     :          -0.00000000 Ha          -0.00000000 eV
  | Entropy correction            :          -0.00000172 Ha          -0.00004671 eV
  | ---------------------------
  | Total energy                  :        -289.25192099 Ha       -7870.94523933 eV
  | Total energy, T -> 0          :        -289.25192270 Ha       -7870.94528604 eV  <-- do not rely on this value for anything but (periodic) metals
  | Electronic free energy        :        -289.25192442 Ha       -7870.94533276 eV

  Derived energy quantities:
  | Kinetic energy                :         289.54510102 Ha        7878.92307408 eV
  | Electrostatic energy          :        -559.14861907 Ha      -15215.20806615 eV
  | Energy correction for multipole
  | error in Hartree potential    :           0.00000000 Ha           0.00000000 eV
  | Sum of eigenvalues per atom                           :       -4445.36212933 eV
  | Total energy (T->0) per atom                          :       -7870.94528604 eV  <-- do not rely on this value for anything but (periodic) metals
  | Electronic free energy per atom                       :       -7870.94533276 eV
  Initialize hartree_potential_storage
  Max. number of atoms included in rho_multipole:            1

  End scf initialization - timings             :  max(cpu_time)    wall_clock(cpu1)
  | Time for scf. initialization               :        0.420 s           0.420 s
  | Boundary condition initialization          :        0.028 s           0.028 s
  | Integration                                :        0.129 s           0.130 s
  | Solution of K.-S. eqns.                    :        0.223 s           0.223 s
  | Grid partitioning                          :        0.008 s           0.008 s
  | Preloading free-atom quantities on grid    :        0.001 s           0.001 s
  | Free-atom superposition energy             :        0.007 s           0.008 s
  | Total energy evaluation                    :        0.000 s           0.000 s

  Partial memory accounting:
  | Current value for overall tracked memory usage on task 0  :           2.628 MB
  | Peak value for overall tracked memory usage on task 0     :           3.584 MB after allocating wave
  | Largest tracked array allocation on task 0 so far         :           2.500 MB  when allocating +KS_eigenvector_complex
  Note:  These values currently only include a subset of arrays which are explicitly tracked.
  The "true" memory usage will be greater.
------------------------------------------------------------

------------------------------------------------------------
          Begin self-consistency iteration #    1

  Date     :  20190514, Time     :  123632.534
------------------------------------------------------------
  Evaluating new KS density using the density matrix
  Evaluating density matrix
  Time summed over all CPUs for getting density from density matrix: real work        0.117 s, elapsed        0.117 s
  Integration grid: deviation in total charge (<rho> - N_e) =  -2.113865E-13
  Pulay mixing of updated and previous charge densities.

  Evaluating partitioned Hartree potential by multipole expansion.
  | Analytical far-field extrapolation by fixed multipoles:
  | Hartree multipole sum: apparent total charge =  -0.135203E-03
  Summing up the Hartree potential.
  | Estimated reciprocal-space cutoff momentum G_max:         1.84432723 bohr^-1 .
  | Reciprocal lattice points for long-range Hartree potential:      26
  Time summed over all CPUs for potential: real work        0.104 s, elapsed        0.104 s
  | RMS charge density error from multipole expansion :   0.990566E-04
  | Average real-space part of the electrostatic potential :     -0.01273704 eV

  Integrating Hamiltonian matrix: batch-based integration.
  Time summed over all CPUs for integration: real work        0.080 s, elapsed        0.080 s

  Updating Kohn-Sham eigenvalues, eigenvectors, occupation numbers, and Fermi level.
  Solving generalized eigenproblem

  Obtaining occupation numbers and chemical potential using ELSI.
  | Chemical potential (Fermi level):    -4.48193423eV
  Writing Kohn-Sham eigenvalues.
  K-point:       1 at    0.000000    0.000000    0.000000 (in units of recip. lattice)

  State    Occupation    Eigenvalue [Ha]    Eigenvalue [eV]
      1       2.00000         -65.494270        -1782.18977
      2       2.00000          -5.089855         -138.50200
      3       2.00000          -3.504189          -95.35382
      4       2.00000          -3.504189          -95.35382
      5       2.00000          -3.504189          -95.35382
      6       2.00000          -0.444787          -12.10327
      7       0.00000          -0.072388           -1.96978
      8       0.00000          -0.072388           -1.96978
      9       0.00000          -0.072388           -1.96978
     10       0.00000           0.086311            2.34863

  What follows are estimated values for band gap, HOMO, LUMO, etc.
  | They are estimated on a discrete k-point grid and not necessarily exact.
  | For converged numbers, create a DOS and/or band structure plot on a denser k-grid.

  Highest occupied state (VBM) at     -4.49062580 eV (relative to internal zero)
  | Occupation number:      1.78099302
  | K-point:      32 at    0.000000    0.250000    0.666667 (in units of recip. lattice)

  Lowest unoccupied state (CBM) at    -4.47178318 eV (relative to internal zero)
  | Occupation number:      0.15112308
  | K-point:     752 at    0.666667    0.750000    0.250000 (in units of recip. lattice)

  ESTIMATED overall HOMO-LUMO gap:      0.01884262 eV between HOMO at k-point 32 and LUMO at k-point 752
  | This appears to be an indirect band gap.
  | Smallest direct gap :      0.90153016 eV for k_point 376 at    0.666667    0.750000    0.250000 (in units of recip. lattice)
  However, this system has fractional occupation numbers. Since we use a finite k-point grid,
  this material is metallic within the approximate finite broadening function (occupation_type)
  applied to determine the occupation numbers.

  Total energy components:
  | Sum of eigenvalues            :        -163.38653039 Ha       -4445.97370065 eV
  | XC energy correction          :         -19.64641449 Ha        -534.60613873 eV
  | XC potential correction       :          25.95789623 Ha         706.35029512 eV
  | Free-atom electrostatic energy:        -132.19998068 Ha       -3597.34450520 eV
  | Hartree energy correction     :           0.02323321 Ha           0.63220794 eV
  | Entropy correction            :          -0.00000170 Ha          -0.00004639 eV
  | ---------------------------
  | Total energy                  :        -289.25179612 Ha       -7870.94184152 eV
  | Total energy, T -> 0          :        -289.25179782 Ha       -7870.94188791 eV  <-- do not rely on this value for anything but (periodic) metals
  | Electronic free energy        :        -289.25179953 Ha       -7870.94193430 eV

  Derived energy quantities:
  | Kinetic energy                :         289.52876976 Ha        7878.47867763 eV
  | Electrostatic energy          :        -559.13415139 Ha      -15214.81438042 eV
  | Energy correction for multipole
  | error in Hartree potential    :           0.00000765 Ha           0.00020818 eV
  | Sum of eigenvalues per atom                           :       -4445.97370065 eV
  | Total energy (T->0) per atom                          :       -7870.94188791 eV  <-- do not rely on this value for anything but (periodic) metals
  | Electronic free energy per atom                       :       -7870.94193430 eV

  Self-consistency convergence accuracy:
  | Change of charge density      :  0.3144E-01
  | Change of sum of eigenvalues  : -0.6116E+00 eV
  | Change of total energy        :  0.3398E-02 eV

  End self-consistency iteration #     1       :  max(cpu_time)    wall_clock(cpu1)
  | Time for this iteration                    :        0.433 s           0.433 s
  | Charge density update                      :        0.130 s           0.130 s
  | Density mixing & preconditioning           :        0.015 s           0.015 s
  | Hartree multipole update                   :        0.000 s           0.001 s
  | Hartree multipole summation                :        0.105 s           0.105 s
  | Integration                                :        0.080 s           0.081 s
  | Solution of K.-S. eqns.                    :        0.101 s           0.101 s
  | Total energy evaluation                    :        0.000 s           0.000 s

  Partial memory accounting:
  | Current value for overall tracked memory usage on task 0  :           2.628 MB
  | Peak value for overall tracked memory usage on task 0     :           3.584 MB after allocating wave
  | Largest tracked array allocation on task 0 so far         :           2.500 MB  when allocating +KS_eigenvector_complex
  Note:  These values currently only include a subset of arrays which are explicitly tracked.
  The "true" memory usage will be greater.
------------------------------------------------------------

------------------------------------------------------------
          Begin self-consistency iteration #    2

  Date     :  20190514, Time     :  123632.967
------------------------------------------------------------
  Evaluating new KS density using the density matrix
  Evaluating density matrix
  Time summed over all CPUs for getting density from density matrix: real work        0.117 s, elapsed        0.117 s
  Integration grid: deviation in total charge (<rho> - N_e) =  -3.410605E-13
  Pulay mixing of updated and previous charge densities.

  Evaluating partitioned Hartree potential by multipole expansion.
  | Analytical far-field extrapolation by fixed multipoles:
  | Hartree multipole sum: apparent total charge =  -0.285300E-02
  Summing up the Hartree potential.
  Time summed over all CPUs for potential: real work        0.141 s, elapsed        0.141 s
  | RMS charge density error from multipole expansion :   0.191741E-02
  | Average real-space part of the electrostatic potential :     -0.24609274 eV

  Integrating Hamiltonian matrix: batch-based integration.
  Time summed over all CPUs for integration: real work        0.077 s, elapsed        0.077 s

  Updating Kohn-Sham eigenvalues, eigenvectors, occupation numbers, and Fermi level.
  Solving generalized eigenproblem

  Obtaining occupation numbers and chemical potential using ELSI.
  | Chemical potential (Fermi level):    -4.68041342eV
  What follows are estimated values for band gap, HOMO, LUMO, etc.
  | They are estimated on a discrete k-point grid and not necessarily exact.
  | For converged numbers, create a DOS and/or band structure plot on a denser k-grid.

  Highest occupied state (VBM) at     -4.68753922 eV (relative to internal zero)
  | Occupation number:      1.68642066
  | K-point:     363 at    0.250000    0.666667    0.000000 (in units of recip. lattice)

  Lowest unoccupied state (CBM) at    -4.66983714 eV (relative to internal zero)
  | Occupation number:      0.13472872
  | K-point:      96 at    0.083333    0.166667    0.333333 (in units of recip. lattice)

  ESTIMATED overall HOMO-LUMO gap:      0.01770208 eV between HOMO at k-point 363 and LUMO at k-point 96
  | This appears to be an indirect band gap.
  | Smallest direct gap :      0.89655411 eV for k_point 680 at    0.083333    0.166667    0.333333 (in units of recip. lattice)
  However, this system has fractional occupation numbers. Since we use a finite k-point grid,
  this material is metallic within the approximate finite broadening function (occupation_type)
  applied to determine the occupation numbers.

  Checking to see if s.c.f. parameters should be adjusted.
  Adjusted the Pulay mixing parameter (charge_mix_param) for an expected low-gap system. New value:   0.020000 .
  Adjusted the occupation broadening width for an expected low-gap system. New value:      0.05000000 eV.

  Total energy components:
  | Sum of eigenvalues            :        -163.79403748 Ha       -4457.06253264 eV
  | XC energy correction          :         -19.61090727 Ha        -533.63993820 eV
  | XC potential correction       :          25.91107383 Ha         705.07619291 eV
  | Free-atom electrostatic energy:        -132.19998068 Ha       -3597.34450520 eV
  | Hartree energy correction     :           0.44338841 Ha          12.06521249 eV
  | Entropy correction            :          -0.00004696 Ha          -0.00127792 eV
  | ---------------------------
  | Total energy                  :        -289.25046319 Ha       -7870.90557065 eV
  | Total energy, T -> 0          :        -289.25051015 Ha       -7870.90684857 eV  <-- do not rely on this value for anything but (periodic) metals
  | Electronic free energy        :        -289.25055711 Ha       -7870.90812648 eV

  Derived energy quantities:
  | Kinetic energy                :         289.23973192 Ha        7870.61355809 eV
  | Electrostatic energy          :        -558.87928784 Ha      -15207.87919053 eV
  | Energy correction for multipole
  | error in Hartree potential    :           0.00016952 Ha           0.00461290 eV
  | Sum of eigenvalues per atom                           :       -4457.06253264 eV
  | Total energy (T->0) per atom                          :       -7870.90684857 eV  <-- do not rely on this value for anything but (periodic) metals
  | Electronic free energy per atom                       :       -7870.90812648 eV

  Self-consistency convergence accuracy:
  | Change of charge density      :  0.2992E-01
  | Change of sum of eigenvalues  : -0.1109E+02 eV
  | Change of total energy        :  0.3627E-01 eV

  End self-consistency iteration #     2       :  max(cpu_time)    wall_clock(cpu1)
  | Time for this iteration                    :        0.465 s           0.465 s
  | Charge density update                      :        0.129 s           0.129 s
  | Density mixing & preconditioning           :        0.014 s           0.014 s
  | Hartree multipole update                   :        0.000 s           0.001 s
  | Hartree multipole summation                :        0.142 s           0.142 s
  | Integration                                :        0.077 s           0.077 s
  | Solution of K.-S. eqns.                    :        0.102 s           0.102 s
  | Total energy evaluation                    :        0.000 s           0.000 s

  Partial memory accounting:
  | Current value for overall tracked memory usage on task 0  :           2.629 MB
  | Peak value for overall tracked memory usage on task 0     :           3.584 MB after allocating wave
  | Largest tracked array allocation on task 0 so far         :           2.500 MB  when allocating +KS_eigenvector_complex
  Note:  These values currently only include a subset of arrays which are explicitly tracked.
  The "true" memory usage will be greater.
------------------------------------------------------------

------------------------------------------------------------
          Begin self-consistency iteration #    3

  Date     :  20190514, Time     :  123633.432
------------------------------------------------------------
  Evaluating new KS density using the density matrix
  Evaluating density matrix
  Time summed over all CPUs for getting density from density matrix: real work        0.117 s, elapsed        0.117 s
  Integration grid: deviation in total charge (<rho> - N_e) =  -2.540190E-13
  Pulay mixing of updated and previous charge densities.

  Evaluating partitioned Hartree potential by multipole expansion.
  | Analytical far-field extrapolation by fixed multipoles:
  | Hartree multipole sum: apparent total charge =  -0.352661E-02
  Summing up the Hartree potential.
  Time summed over all CPUs for potential: real work        0.141 s, elapsed        0.141 s
  | RMS charge density error from multipole expansion :   0.210803E-02
  | Average real-space part of the electrostatic potential :     -0.28474392 eV

  Integrating Hamiltonian matrix: batch-based integration.
  Time summed over all CPUs for integration: real work        0.079 s, elapsed        0.079 s

  Updating Kohn-Sham eigenvalues, eigenvectors, occupation numbers, and Fermi level.
  Solving generalized eigenproblem

  Obtaining occupation numbers and chemical potential using ELSI.
  | Chemical potential (Fermi level):    -4.72528765eV
  What follows are estimated values for band gap, HOMO, LUMO, etc.
  | They are estimated on a discrete k-point grid and not necessarily exact.
  | For converged numbers, create a DOS and/or band structure plot on a denser k-grid.

  Highest occupied state (VBM) at     -4.76189089 eV (relative to internal zero)
  | Occupation number:      1.69946926
  | K-point:     472 at    0.333333    0.666667    0.166667 (in units of recip. lattice)

  Lowest unoccupied state (CBM) at    -4.71166999 eV (relative to internal zero)
  | Occupation number:      0.70011473
  | K-point:      32 at    0.000000    0.250000    0.666667 (in units of recip. lattice)

  ESTIMATED overall HOMO-LUMO gap:      0.05022090 eV between HOMO at k-point 472 and LUMO at k-point 32
  | This appears to be an indirect band gap.
  | Smallest direct gap :      0.89660411 eV for k_point 680 at    0.000000    0.250000    0.666667 (in units of recip. lattice)
  However, this system has fractional occupation numbers. Since we use a finite k-point grid,
  this material is metallic within the approximate finite broadening function (occupation_type)
  applied to determine the occupation numbers.

  Total energy components:
  | Sum of eigenvalues            :        -163.79677049 Ha       -4457.13690170 eV
  | XC energy correction          :         -19.61253610 Ha        -533.68426077 eV
  | XC potential correction       :          25.91328364 Ha         705.13632469 eV
  | Free-atom electrostatic energy:        -132.19998068 Ha       -3597.34450520 eV
  | Hartree energy correction     :           0.44559778 Ha          12.12533261 eV
  | Entropy correction            :          -0.00003435 Ha          -0.00093458 eV
  | ---------------------------
  | Total energy                  :        -289.25040585 Ha       -7870.90401037 eV
  | Total energy, T -> 0          :        -289.25044020 Ha       -7870.90494495 eV  <-- do not rely on this value for anything but (periodic) metals
  | Electronic free energy        :        -289.25047454 Ha       -7870.90587953 eV

  Derived energy quantities:
  | Kinetic energy                :         289.32134879 Ha        7872.83446607 eV
  | Electrostatic energy          :        -558.95921855 Ha      -15210.05421567 eV
  | Energy correction for multipole
  | error in Hartree potential    :           0.00020914 Ha           0.00569091 eV
  | Sum of eigenvalues per atom                           :       -4457.13690170 eV
  | Total energy (T->0) per atom                          :       -7870.90494495 eV  <-- do not rely on this value for anything but (periodic) metals
  | Electronic free energy per atom                       :       -7870.90587953 eV

  Self-consistency convergence accuracy:
  | Change of charge density      :  0.7736E-02
  | Change of sum of eigenvalues  : -0.7437E-01 eV
  | Change of total energy        :  0.1560E-02 eV

  End self-consistency iteration #     3       :  max(cpu_time)    wall_clock(cpu1)
  | Time for this iteration                    :        0.468 s           0.468 s
  | Charge density update                      :        0.129 s           0.129 s
  | Density mixing & preconditioning           :        0.014 s           0.014 s
  | Hartree multipole update                   :        0.000 s           0.000 s
  | Hartree multipole summation                :        0.143 s           0.143 s
  | Integration                                :        0.078 s           0.079 s
  | Solution of K.-S. eqns.                    :        0.103 s           0.103 s
  | Total energy evaluation                    :        0.000 s           0.000 s

  Partial memory accounting:
  | Current value for overall tracked memory usage on task 0  :           2.630 MB
  | Peak value for overall tracked memory usage on task 0     :           3.584 MB after allocating wave
  | Largest tracked array allocation on task 0 so far         :           2.500 MB  when allocating +KS_eigenvector_complex
  Note:  These values currently only include a subset of arrays which are explicitly tracked.
  The "true" memory usage will be greater.
------------------------------------------------------------

------------------------------------------------------------
          Begin self-consistency iteration #    4

  Date     :  20190514, Time     :  123633.900
------------------------------------------------------------
  Evaluating new KS density using the density matrix
  Evaluating density matrix
  Time summed over all CPUs for getting density from density matrix: real work        0.117 s, elapsed        0.117 s
  Integration grid: deviation in total charge (<rho> - N_e) =  -3.108624E-13
  Pulay mixing of updated and previous charge densities.

  Evaluating partitioned Hartree potential by multipole expansion.
  | Analytical far-field extrapolation by fixed multipoles:
  | Hartree multipole sum: apparent total charge =  -0.399861E-02
  Summing up the Hartree potential.
  Time summed over all CPUs for potential: real work        0.145 s, elapsed        0.145 s
  | RMS charge density error from multipole expansion :   0.239910E-02
  | Average real-space part of the electrostatic potential :     -0.32678743 eV

  Integrating Hamiltonian matrix: batch-based integration.
  Time summed over all CPUs for integration: real work        0.076 s, elapsed        0.076 s

  Updating Kohn-Sham eigenvalues, eigenvectors, occupation numbers, and Fermi level.
  Solving generalized eigenproblem

  Obtaining occupation numbers and chemical potential using ELSI.
  | Chemical potential (Fermi level):    -4.75813468eV
  What follows are estimated values for band gap, HOMO, LUMO, etc.
  | They are estimated on a discrete k-point grid and not necessarily exact.
  | For converged numbers, create a DOS and/or band structure plot on a denser k-grid.

  Highest occupied state (VBM) at     -4.79398235 eV (relative to internal zero)
  | Occupation number:      1.68938149
  | K-point:     423 at    0.333333    0.166667    0.666667 (in units of recip. lattice)

  Lowest unoccupied state (CBM) at    -4.74350213 eV (relative to internal zero)
  | Occupation number:      0.67896857
  | K-point:     698 at    0.583333    0.250000    0.250000 (in units of recip. lattice)

  ESTIMATED overall HOMO-LUMO gap:      0.05048022 eV between HOMO at k-point 423 and LUMO at k-point 698
  | This appears to be an indirect band gap.
  | Smallest direct gap :      0.89583140 eV for k_point 680 at    0.583333    0.250000    0.250000 (in units of recip. lattice)
  However, this system has fractional occupation numbers. Since we use a finite k-point grid,
  this material is metallic within the approximate finite broadening function (occupation_type)
  applied to determine the occupation numbers.

  Total energy components:
  | Sum of eigenvalues            :        -163.84806030 Ha       -4458.53256833 eV
  | XC energy correction          :         -19.60878574 Ha        -533.58220823 eV
  | XC potential correction       :          25.90835751 Ha         705.00227788 eV
  | Free-atom electrostatic energy:        -132.19998068 Ha       -3597.34450520 eV
  | Hartree energy correction     :           0.49807833 Ha          13.55340089 eV
  | Entropy correction            :          -0.00003458 Ha          -0.00094091 eV
  | ---------------------------
  | Total energy                  :        -289.25039088 Ha       -7870.90360299 eV
  | Total energy, T -> 0          :        -289.25042546 Ha       -7870.90454390 eV  <-- do not rely on this value for anything but (periodic) metals
  | Electronic free energy        :        -289.25046004 Ha       -7870.90548481 eV

  Derived energy quantities:
  | Kinetic energy                :         289.31185258 Ha        7872.57606103 eV
  | Electrostatic energy          :        -558.95345773 Ha      -15209.89745580 eV
  | Energy correction for multipole
  | error in Hartree potential    :           0.00024666 Ha           0.00671207 eV
  | Sum of eigenvalues per atom                           :       -4458.53256833 eV
  | Total energy (T->0) per atom                          :       -7870.90454390 eV  <-- do not rely on this value for anything but (periodic) metals
  | Electronic free energy per atom                       :       -7870.90548481 eV

  Self-consistency convergence accuracy:
  | Change of charge density      :  0.2483E-02
  | Change of sum of eigenvalues  : -0.1396E+01 eV
  | Change of total energy        :  0.4074E-03 eV

  End self-consistency iteration #     4       :  max(cpu_time)    wall_clock(cpu1)
  | Time for this iteration                    :        0.471 s           0.471 s
  | Charge density update                      :        0.129 s           0.129 s
  | Density mixing & preconditioning           :        0.014 s           0.014 s
  | Hartree multipole update                   :        0.000 s           0.000 s
  | Hartree multipole summation                :        0.147 s           0.147 s
  | Integration                                :        0.076 s           0.076 s
  | Solution of K.-S. eqns.                    :        0.105 s           0.105 s
  | Total energy evaluation                    :        0.000 s           0.000 s

  Partial memory accounting:
  | Current value for overall tracked memory usage on task 0  :           2.630 MB
  | Peak value for overall tracked memory usage on task 0     :           3.584 MB after allocating wave
  | Largest tracked array allocation on task 0 so far         :           2.500 MB  when allocating +KS_eigenvector_complex
  Note:  These values currently only include a subset of arrays which are explicitly tracked.
  The "true" memory usage will be greater.
------------------------------------------------------------

------------------------------------------------------------
          Begin self-consistency iteration #    5

  Date     :  20190514, Time     :  123634.371
------------------------------------------------------------
  Evaluating new KS density using the density matrix
  Evaluating density matrix
  Time summed over all CPUs for getting density from density matrix: real work        0.118 s, elapsed        0.118 s
  Integration grid: deviation in total charge (<rho> - N_e) =  -4.085621E-13
  Pulay mixing of updated and previous charge densities.

  Evaluating partitioned Hartree potential by multipole expansion.
  | Analytical far-field extrapolation by fixed multipoles:
  | Hartree multipole sum: apparent total charge =  -0.315971E-02
  Summing up the Hartree potential.
  Time summed over all CPUs for potential: real work        0.143 s, elapsed        0.143 s
  | RMS charge density error from multipole expansion :   0.236466E-02
  | Average real-space part of the electrostatic potential :     -0.32502341 eV

  Integrating Hamiltonian matrix: batch-based integration.
  Time summed over all CPUs for integration: real work        0.077 s, elapsed        0.077 s

  Updating Kohn-Sham eigenvalues, eigenvectors, occupation numbers, and Fermi level.
  Solving generalized eigenproblem

  Obtaining occupation numbers and chemical potential using ELSI.
  | Chemical potential (Fermi level):    -4.75291241eV
  What follows are estimated values for band gap, HOMO, LUMO, etc.
  | They are estimated on a discrete k-point grid and not necessarily exact.
  | For converged numbers, create a DOS and/or band structure plot on a denser k-grid.

  Highest occupied state (VBM) at     -4.78887488 eV (relative to internal zero)
  | Occupation number:      1.69092852
  | K-point:     472 at    0.333333    0.666667    0.166667 (in units of recip. lattice)

  Lowest unoccupied state (CBM) at    -4.73843194 eV (relative to internal zero)
  | Occupation number:      0.68212187
  | K-point:      42 at    0.000000    0.333333    0.750000 (in units of recip. lattice)

  ESTIMATED overall HOMO-LUMO gap:      0.05044294 eV between HOMO at k-point 472 and LUMO at k-point 42
  | This appears to be an indirect band gap.
  | Smallest direct gap :      0.89599911 eV for k_point 680 at    0.000000    0.333333    0.750000 (in units of recip. lattice)
  However, this system has fractional occupation numbers. Since we use a finite k-point grid,
  this material is metallic within the approximate finite broadening function (occupation_type)
  applied to determine the occupation numbers.

  Total energy components:
  | Sum of eigenvalues            :        -163.83963713 Ha       -4458.30336230 eV
  | XC energy correction          :         -19.60913718 Ha        -533.59177143 eV
  | XC potential correction       :          25.90882167 Ha         705.01490850 eV
  | Free-atom electrostatic energy:        -132.19998068 Ha       -3597.34450520 eV
  | Hartree energy correction     :           0.48954333 Ha          13.32115178 eV
  | Entropy correction            :          -0.00003454 Ha          -0.00094000 eV
  | ---------------------------
  | Total energy                  :        -289.25038999 Ha       -7870.90357866 eV
  | Total energy, T -> 0          :        -289.25042453 Ha       -7870.90451866 eV  <-- do not rely on this value for anything but (periodic) metals
  | Electronic free energy        :        -289.25045907 Ha       -7870.90545866 eV

  Derived energy quantities:
  | Kinetic energy                :         289.31324417 Ha        7872.61392803 eV
  | Electrostatic energy          :        -558.95449698 Ha      -15209.92573525 eV
  | Energy correction for multipole
  | error in Hartree potential    :           0.00024238 Ha           0.00659549 eV
  | Sum of eigenvalues per atom                           :       -4458.30336230 eV
  | Total energy (T->0) per atom                          :       -7870.90451866 eV  <-- do not rely on this value for anything but (periodic) metals
  | Electronic free energy per atom                       :       -7870.90545866 eV

  Self-consistency convergence accuracy:
  | Change of charge density      :  0.1541E-02
  | Change of sum of eigenvalues  :  0.2292E+00 eV
  | Change of total energy        :  0.2434E-04 eV

  End self-consistency iteration #     5       :  max(cpu_time)    wall_clock(cpu1)
  | Time for this iteration                    :        0.474 s           0.474 s
  | Charge density update                      :        0.129 s           0.129 s
  | Density mixing & preconditioning           :        0.014 s           0.015 s
  | Hartree multipole update                   :        0.000 s           0.000 s
  | Hartree multipole summation                :        0.145 s           0.145 s
  | Integration                                :        0.077 s           0.077 s
  | Solution of K.-S. eqns.                    :        0.108 s           0.108 s
  | Total energy evaluation                    :        0.000 s           0.000 s

  Partial memory accounting:
  | Current value for overall tracked memory usage on task 0  :           2.630 MB
  | Peak value for overall tracked memory usage on task 0     :           3.584 MB after allocating wave
  | Largest tracked array allocation on task 0 so far         :           2.500 MB  when allocating +KS_eigenvector_complex
  Note:  These values currently only include a subset of arrays which are explicitly tracked.
  The "true" memory usage will be greater.
------------------------------------------------------------

------------------------------------------------------------
          Begin self-consistency iteration #    6

  Date     :  20190514, Time     :  123634.846
------------------------------------------------------------
  Evaluating new KS density using the density matrix
  Evaluating density matrix
  Time summed over all CPUs for getting density from density matrix: real work        0.130 s, elapsed        0.130 s
  Integration grid: deviation in total charge (<rho> - N_e) =  -3.979039E-13
  Pulay mixing of updated and previous charge densities.

  Evaluating partitioned Hartree potential by multipole expansion.
  | Analytical far-field extrapolation by fixed multipoles:
  | Hartree multipole sum: apparent total charge =  -0.617374E-03
  Summing up the Hartree potential.
  Time summed over all CPUs for potential: real work        0.144 s, elapsed        0.144 s
  | RMS charge density error from multipole expansion :   0.233662E-02
  | Average real-space part of the electrostatic potential :     -0.33065766 eV

  Integrating Hamiltonian matrix: batch-based integration.
  Time summed over all CPUs for integration: real work        0.077 s, elapsed        0.077 s

  Updating Kohn-Sham eigenvalues, eigenvectors, occupation numbers, and Fermi level.
  Solving generalized eigenproblem

  Obtaining occupation numbers and chemical potential using ELSI.
  | Chemical potential (Fermi level):    -4.74512770eV
  What follows are estimated values for band gap, HOMO, LUMO, etc.
  | They are estimated on a discrete k-point grid and not necessarily exact.
  | For converged numbers, create a DOS and/or band structure plot on a denser k-grid.

  Highest occupied state (VBM) at     -4.78124479 eV (relative to internal zero)
  | Occupation number:      1.69300399
  | K-point:     258 at    0.166667    0.666667    0.333333 (in units of recip. lattice)

  Lowest unoccupied state (CBM) at    -4.73085141 eV (relative to internal zero)
  | Occupation number:      0.68636401
  | K-point:     363 at    0.250000    0.666667    0.000000 (in units of recip. lattice)

  ESTIMATED overall HOMO-LUMO gap:      0.05039338 eV between HOMO at k-point 258 and LUMO at k-point 363
  | This appears to be an indirect band gap.
  | Smallest direct gap :      0.89631153 eV for k_point 376 at    0.250000    0.666667    0.000000 (in units of recip. lattice)
  However, this system has fractional occupation numbers. Since we use a finite k-point grid,
  this material is metallic within the approximate finite broadening function (occupation_type)
  applied to determine the occupation numbers.

  Total energy components:
  | Sum of eigenvalues            :        -163.82688715 Ha       -4457.95641757 eV
  | XC energy correction          :         -19.60922421 Ha        -533.59413967 eV
  | XC potential correction       :          25.90894360 Ha         705.01822634 eV
  | Free-atom electrostatic energy:        -132.19998068 Ha       -3597.34450520 eV
  | Hartree energy correction     :           0.47675849 Ha          12.97325851 eV
  | Entropy correction            :          -0.00003450 Ha          -0.00093871 eV
  | ---------------------------
  | Total energy                  :        -289.25038995 Ha       -7870.90357759 eV
  | Total energy, T -> 0          :        -289.25042444 Ha       -7870.90451630 eV  <-- do not rely on this value for anything but (periodic) metals
  | Electronic free energy        :        -289.25045894 Ha       -7870.90545500 eV

  Derived energy quantities:
  | Kinetic energy                :         289.31452246 Ha        7872.64871223 eV
  | Electrostatic energy          :        -558.95568820 Ha      -15209.95815015 eV
  | Energy correction for multipole
  | error in Hartree potential    :           0.00023891 Ha           0.00650114 eV
  | Sum of eigenvalues per atom                           :       -4457.95641757 eV
  | Total energy (T->0) per atom                          :       -7870.90451630 eV  <-- do not rely on this value for anything but (periodic) metals
  | Electronic free energy per atom                       :       -7870.90545500 eV

  Self-consistency convergence accuracy:
  | Change of charge density      :  0.9929E-03
  | Change of sum of eigenvalues  :  0.3469E+00 eV
  | Change of total energy        :  0.1067E-05 eV

  End self-consistency iteration #     6       :  max(cpu_time)    wall_clock(cpu1)
  | Time for this iteration                    :        0.482 s           0.482 s
  | Charge density update                      :        0.142 s           0.142 s
  | Density mixing & preconditioning           :        0.013 s           0.013 s
  | Hartree multipole update                   :        0.000 s           0.000 s
  | Hartree multipole summation                :        0.146 s           0.146 s
  | Integration                                :        0.077 s           0.077 s
  | Solution of K.-S. eqns.                    :        0.103 s           0.103 s
  | Total energy evaluation                    :        0.000 s           0.000 s

  Partial memory accounting:
  | Current value for overall tracked memory usage on task 0  :           2.631 MB
  | Peak value for overall tracked memory usage on task 0     :           3.584 MB after allocating wave
  | Largest tracked array allocation on task 0 so far         :           2.500 MB  when allocating +KS_eigenvector_complex
  Note:  These values currently only include a subset of arrays which are explicitly tracked.
  The "true" memory usage will be greater.
------------------------------------------------------------

------------------------------------------------------------
          Begin self-consistency iteration #    7

  Date     :  20190514, Time     :  123635.328
------------------------------------------------------------
  Evaluating new KS density using the density matrix
  Evaluating density matrix
  Time summed over all CPUs for getting density from density matrix: real work        0.117 s, elapsed        0.117 s
  Integration grid: deviation in total charge (<rho> - N_e) =  -2.806644E-13
  Pulay mixing of updated and previous charge densities.

  Evaluating partitioned Hartree potential by multipole expansion.
  | Analytical far-field extrapolation by fixed multipoles:
  | Hartree multipole sum: apparent total charge =   0.105322E-03
  Summing up the Hartree potential.
  Time summed over all CPUs for potential: real work        0.144 s, elapsed        0.144 s
  | RMS charge density error from multipole expansion :   0.232366E-02
  | Average real-space part of the electrostatic potential :     -0.33304044 eV

  Integrating Hamiltonian matrix: batch-based integration.
  Time summed over all CPUs for integration: real work        0.078 s, elapsed        0.078 s

  Updating Kohn-Sham eigenvalues, eigenvectors, occupation numbers, and Fermi level.
  Solving generalized eigenproblem

  Obtaining occupation numbers and chemical potential using ELSI.
  | Chemical potential (Fermi level):    -4.74400524eV
  What follows are estimated values for band gap, HOMO, LUMO, etc.
  | They are estimated on a discrete k-point grid and not necessarily exact.
  | For converged numbers, create a DOS and/or band structure plot on a denser k-grid.

  Highest occupied state (VBM) at     -4.78014658 eV (relative to internal zero)
  | Occupation number:      1.69332868
  | K-point:     655 at    0.500000    0.333333    0.666667 (in units of recip. lattice)

  Lowest unoccupied state (CBM) at    -4.72975665 eV (relative to internal zero)
  | Occupation number:      0.68694020
  | K-point:     698 at    0.583333    0.250000    0.250000 (in units of recip. lattice)

  ESTIMATED overall HOMO-LUMO gap:      0.05038993 eV between HOMO at k-point 655 and LUMO at k-point 698
  | This appears to be an indirect band gap.
  | Smallest direct gap :      0.89633813 eV for k_point 680 at    0.583333    0.250000    0.250000 (in units of recip. lattice)
  However, this system has fractional occupation numbers. Since we use a finite k-point grid,
  this material is metallic within the approximate finite broadening function (occupation_type)
  applied to determine the occupation numbers.

  Total energy components:
  | Sum of eigenvalues            :        -163.82510479 Ha       -4457.90791710 eV
  | XC energy correction          :         -19.60917130 Ha        -533.59270008 eV
  | XC potential correction       :          25.90887669 Ha         705.01640555 eV
  | Free-atom electrostatic energy:        -132.19998068 Ha       -3597.34450520 eV
  | Hartree energy correction     :           0.47499012 Ha          12.92513878 eV
  | Entropy correction            :          -0.00003449 Ha          -0.00093853 eV
  | ---------------------------
  | Total energy                  :        -289.25038996 Ha       -7870.90357806 eV
  | Total energy, T -> 0          :        -289.25042445 Ha       -7870.90451659 eV  <-- do not rely on this value for anything but (periodic) metals
  | Electronic free energy        :        -289.25045894 Ha       -7870.90545513 eV

  Derived energy quantities:
  | Kinetic energy                :         289.31511566 Ha        7872.66485397 eV
  | Electrostatic energy          :        -558.95633432 Ha      -15209.97573195 eV
  | Energy correction for multipole
  | error in Hartree potential    :           0.00023799 Ha           0.00647597 eV
  | Sum of eigenvalues per atom                           :       -4457.90791710 eV
  | Total energy (T->0) per atom                          :       -7870.90451659 eV  <-- do not rely on this value for anything but (periodic) metals
  | Electronic free energy per atom                       :       -7870.90545513 eV

  Self-consistency convergence accuracy:
  | Change of charge density      :  0.8940E-04
  | Change of sum of eigenvalues  :  0.4850E-01 eV
  | Change of total energy        : -0.4694E-06 eV

  End self-consistency iteration #     7       :  max(cpu_time)    wall_clock(cpu1)
  | Time for this iteration                    :        0.467 s           0.467 s
  | Charge density update                      :        0.128 s           0.128 s
  | Density mixing & preconditioning           :        0.013 s           0.013 s
  | Hartree multipole update                   :        0.000 s           0.000 s
  | Hartree multipole summation                :        0.146 s           0.146 s
  | Integration                                :        0.078 s           0.078 s
  | Solution of K.-S. eqns.                    :        0.102 s           0.102 s
  | Total energy evaluation                    :        0.000 s           0.000 s

  Partial memory accounting:
  | Current value for overall tracked memory usage on task 0  :           2.631 MB
  | Peak value for overall tracked memory usage on task 0     :           3.584 MB after allocating wave
  | Largest tracked array allocation on task 0 so far         :           2.500 MB  when allocating +KS_eigenvector_complex
  Note:  These values currently only include a subset of arrays which are explicitly tracked.
  The "true" memory usage will be greater.
------------------------------------------------------------

------------------------------------------------------------
          Begin self-consistency iteration #    8

  Date     :  20190514, Time     :  123635.795
------------------------------------------------------------
  Evaluating new KS density using the density matrix
  Evaluating density matrix
  Time summed over all CPUs for getting density from density matrix: real work        0.116 s, elapsed        0.116 s
  Integration grid: deviation in total charge (<rho> - N_e) =  -2.948752E-13
  Pulay mixing of updated and previous charge densities.

  Evaluating partitioned Hartree potential by multipole expansion.
  | Analytical far-field extrapolation by fixed multipoles:
  | Hartree multipole sum: apparent total charge =   0.609585E-04
  Summing up the Hartree potential.
  Time summed over all CPUs for potential: real work        0.142 s, elapsed        0.142 s
  | RMS charge density error from multipole expansion :   0.232575E-02
  | Average real-space part of the electrostatic potential :     -0.33310307 eV

  Integrating Hamiltonian matrix: batch-based integration.
  Time summed over all CPUs for integration: real work        0.079 s, elapsed        0.079 s

  Updating Kohn-Sham eigenvalues, eigenvectors, occupation numbers, and Fermi level.
  Solving generalized eigenproblem

  Obtaining occupation numbers and chemical potential using ELSI.
  | Chemical potential (Fermi level):    -4.74426794eV
  What follows are estimated values for band gap, HOMO, LUMO, etc.
  | They are estimated on a discrete k-point grid and not necessarily exact.
  | For converged numbers, create a DOS and/or band structure plot on a denser k-grid.

  Highest occupied state (VBM) at     -4.78040299 eV (relative to internal zero)
  | Occupation number:      1.69324451
  | K-point:     638 at    0.500000    0.166667    0.833333 (in units of recip. lattice)

  Lowest unoccupied state (CBM) at    -4.73001120 eV (relative to internal zero)
  | Occupation number:      0.68677063
  | K-point:     585 at    0.416667    0.666667    0.666667 (in units of recip. lattice)

  ESTIMATED overall HOMO-LUMO gap:      0.05039179 eV between HOMO at k-point 638 and LUMO at k-point 585
  | This appears to be an indirect band gap.
  | Smallest direct gap :      0.89632870 eV for k_point 680 at    0.416667    0.666667    0.666667 (in units of recip. lattice)
  However, this system has fractional occupation numbers. Since we use a finite k-point grid,
  this material is metallic within the approximate finite broadening function (occupation_type)
  applied to determine the occupation numbers.

  Total energy components:
  | Sum of eigenvalues            :        -163.82565224 Ha       -4457.92281411 eV
  | XC energy correction          :         -19.60913702 Ha        -533.59176711 eV
  | XC potential correction       :          25.90883125 Ha         705.01516918 eV
  | Free-atom electrostatic energy:        -132.19998068 Ha       -3597.34450520 eV
  | Hartree energy correction     :           0.47554878 Ha          12.94034064 eV
  | Entropy correction            :          -0.00003449 Ha          -0.00093858 eV
  | ---------------------------
  | Total energy                  :        -289.25038991 Ha       -7870.90357660 eV
  | Total energy, T -> 0          :        -289.25042440 Ha       -7870.90451519 eV  <-- do not rely on this value for anything but (periodic) metals
  | Electronic free energy        :        -289.25045889 Ha       -7870.90545377 eV

  Derived energy quantities:
  | Kinetic energy                :         289.31471332 Ha        7872.65390568 eV
  | Electrostatic energy          :        -558.95596621 Ha      -15209.96571518 eV
  | Energy correction for multipole
  | error in Hartree potential    :           0.00023818 Ha           0.00648131 eV
  | Sum of eigenvalues per atom                           :       -4457.92281411 eV
  | Total energy (T->0) per atom                          :       -7870.90451519 eV  <-- do not rely on this value for anything but (periodic) metals
  | Electronic free energy per atom                       :       -7870.90545377 eV

  Self-consistency convergence accuracy:
  | Change of charge density      :  0.4390E-04
  | Change of sum of eigenvalues  : -0.1490E-01 eV
  | Change of total energy        :  0.1459E-05 eV

  End self-consistency iteration #     8       :  max(cpu_time)    wall_clock(cpu1)
  | Time for this iteration                    :        0.468 s           0.468 s
  | Charge density update                      :        0.127 s           0.128 s
  | Density mixing & preconditioning           :        0.014 s           0.014 s
  | Hartree multipole update                   :        0.001 s           0.000 s
  | Hartree multipole summation                :        0.144 s           0.144 s
  | Integration                                :        0.079 s           0.079 s
  | Solution of K.-S. eqns.                    :        0.103 s           0.103 s
  | Total energy evaluation                    :        0.000 s           0.000 s

  Partial memory accounting:
  | Current value for overall tracked memory usage on task 0  :           2.631 MB
  | Peak value for overall tracked memory usage on task 0     :           3.584 MB after allocating wave
  | Largest tracked array allocation on task 0 so far         :           2.500 MB  when allocating +KS_eigenvector_complex
  Note:  These values currently only include a subset of arrays which are explicitly tracked.
  The "true" memory usage will be greater.
------------------------------------------------------------

------------------------------------------------------------
          Begin self-consistency iteration #    9

  Date     :  20190514, Time     :  123636.263
------------------------------------------------------------
  Evaluating new KS density using the density matrix
  Evaluating density matrix
  Time summed over all CPUs for getting density from density matrix: real work        0.117 s, elapsed        0.117 s
  Integration grid: deviation in total charge (<rho> - N_e) =  -2.966516E-13
  Pulay mixing of updated and previous charge densities.

  Evaluating partitioned Hartree potential by multipole expansion.
  | Analytical far-field extrapolation by fixed multipoles:
  | Hartree multipole sum: apparent total charge =   0.614082E-04
  Summing up the Hartree potential.
  Time summed over all CPUs for potential: real work        0.143 s, elapsed        0.143 s
  | RMS charge density error from multipole expansion :   0.232559E-02
  | Average real-space part of the electrostatic potential :     -0.33310438 eV

  Integrating Hamiltonian matrix: batch-based integration.
  Time summed over all CPUs for integration: real work        0.075 s, elapsed        0.075 s

  Updating Kohn-Sham eigenvalues, eigenvectors, occupation numbers, and Fermi level.
  Solving generalized eigenproblem

  Obtaining occupation numbers and chemical potential using ELSI.
  | Chemical potential (Fermi level):    -4.74427634eV
  What follows are estimated values for band gap, HOMO, LUMO, etc.
  | They are estimated on a discrete k-point grid and not necessarily exact.
  | For converged numbers, create a DOS and/or band structure plot on a denser k-grid.

  Highest occupied state (VBM) at     -4.78041106 eV (relative to internal zero)
  | Occupation number:      1.69324009
  | K-point:     472 at    0.333333    0.666667    0.166667 (in units of recip. lattice)

  Lowest unoccupied state (CBM) at    -4.73001910 eV (relative to internal zero)
  | Occupation number:      0.68676018
  | K-point:     698 at    0.583333    0.250000    0.250000 (in units of recip. lattice)

  ESTIMATED overall HOMO-LUMO gap:      0.05039197 eV between HOMO at k-point 472 and LUMO at k-point 698
  | This appears to be an indirect band gap.
  | Smallest direct gap :      0.89632833 eV for k_point 680 at    0.583333    0.250000    0.250000 (in units of recip. lattice)
  However, this system has fractional occupation numbers. Since we use a finite k-point grid,
  this material is metallic within the approximate finite broadening function (occupation_type)
  applied to determine the occupation numbers.

  Total energy components:
  | Sum of eigenvalues            :        -163.82573471 Ha       -4457.92505830 eV
  | XC energy correction          :         -19.60912713 Ha        -533.59149815 eV
  | XC potential correction       :          25.90881814 Ha         705.01481242 eV
  | Free-atom electrostatic energy:        -132.19998068 Ha       -3597.34450520 eV
  | Hartree energy correction     :           0.47563447 Ha          12.94267245 eV
  | Entropy correction            :          -0.00003449 Ha          -0.00093859 eV
  | ---------------------------
  | Total energy                  :        -289.25038992 Ha       -7870.90357678 eV
  | Total energy, T -> 0          :        -289.25042441 Ha       -7870.90451536 eV  <-- do not rely on this value for anything but (periodic) metals
  | Electronic free energy        :        -289.25045890 Ha       -7870.90545395 eV

  Derived energy quantities:
  | Kinetic energy                :         289.31457916 Ha        7872.65025504 eV
  | Electrostatic energy          :        -558.95584194 Ha      -15209.96233367 eV
  | Energy correction for multipole
  | error in Hartree potential    :           0.00023817 Ha           0.00648100 eV
  | Sum of eigenvalues per atom                           :       -4457.92505830 eV
[...]
  | Hartree multipole update                   :        0.000 s           0.001 s
  | Hartree multipole summation                :        0.144 s           0.144 s
  | Integration                                :        0.076 s           0.075 s
  | Solution of K.-S. eqns.                    :        0.100 s           0.100 s
  | Total energy evaluation                    :        0.000 s           0.000 s

  Partial memory accounting:
  | Current value for overall tracked memory usage on task 0  :           2.631 MB
  | Peak value for overall tracked memory usage on task 0     :           3.584 MB after allocating wave
  | Largest tracked array allocation on task 0 so far         :           2.500 MB  when allocating +KS_eigenvector_complex
  Note:  These values currently only include a subset of arrays which are explicitly tracked.
  The "true" memory usage will be greater.
------------------------------------------------------------

------------------------------------------------------------
          Begin self-consistency iteration #   10

  Date     :  20190514, Time     :  123636.727
------------------------------------------------------------
  Evaluating new KS density using the density matrix
  Evaluating density matrix
  Time summed over all CPUs for getting density from density matrix: real work        0.119 s, elapsed        0.119 s
  Integration grid: deviation in total charge (<rho> - N_e) =  -3.321787E-13
  Pulay mixing of updated and previous charge densities.

  Evaluating partitioned Hartree potential by multipole expansion.
  | Analytical far-field extrapolation by fixed multipoles:
  | Hartree multipole sum: apparent total charge =   0.622166E-04
  Summing up the Hartree potential.
  Time summed over all CPUs for potential: real work        0.144 s, elapsed        0.144 s
  | RMS charge density error from multipole expansion :   0.232558E-02
  | Average real-space part of the electrostatic potential :     -0.33310653 eV

  Integrating Hamiltonian matrix: batch-based integration.
  Time summed over all CPUs for integration: real work        0.077 s, elapsed        0.077 s

  Updating Kohn-Sham eigenvalues, eigenvectors, occupation numbers, and Fermi level.
  Solving generalized eigenproblem

  Obtaining occupation numbers and chemical potential using ELSI.
  | Chemical potential (Fermi level):    -4.74427389eV
  What follows are estimated values for band gap, HOMO, LUMO, etc.
  | They are estimated on a discrete k-point grid and not necessarily exact.
  | For converged numbers, create a DOS and/or band structure plot on a denser k-grid.

  Highest occupied state (VBM) at     -4.78040867 eV (relative to internal zero)
  | Occupation number:      1.69324091
  | K-point:     655 at    0.500000    0.333333    0.666667 (in units of recip. lattice)

  Lowest unoccupied state (CBM) at    -4.73001673 eV (relative to internal zero)
  | Occupation number:      0.68676182
  | K-point:      42 at    0.000000    0.333333    0.750000 (in units of recip. lattice)

  ESTIMATED overall HOMO-LUMO gap:      0.05039195 eV between HOMO at k-point 655 and LUMO at k-point 42
  | This appears to be an indirect band gap.
  | Smallest direct gap :      0.89632843 eV for k_point 680 at    0.000000    0.333333    0.750000 (in units of recip. lattice)
  However, this system has fractional occupation numbers. Since we use a finite k-point grid,
  this material is metallic within the approximate finite broadening function (occupation_type)
  applied to determine the occupation numbers.

  Total energy components:
  | Sum of eigenvalues            :        -163.82572726 Ha       -4457.92485552 eV
  | XC energy correction          :         -19.60912763 Ha        -533.59151168 eV
  | XC potential correction       :          25.90881881 Ha         705.01483045 eV
  | Free-atom electrostatic energy:        -132.19998068 Ha       -3597.34450520 eV
  | Hartree energy correction     :           0.47562685 Ha          12.94246518 eV
  | Entropy correction            :          -0.00003449 Ha          -0.00093859 eV
  | ---------------------------
  | Total energy                  :        -289.25038992 Ha       -7870.90357677 eV
  | Total energy, T -> 0          :        -289.25042441 Ha       -7870.90451536 eV  <-- do not rely on this value for anything but (periodic) metals
  | Electronic free energy        :        -289.25045890 Ha       -7870.90545395 eV

  Derived energy quantities:
  | Kinetic energy                :         289.31458743 Ha        7872.65048012 eV
  | Electrostatic energy          :        -558.95584972 Ha      -15209.96254521 eV
  | Energy correction for multipole
  | error in Hartree potential    :           0.00023817 Ha           0.00648099 eV
  | Sum of eigenvalues per atom                           :       -4457.92485552 eV
  | Total energy (T->0) per atom                          :       -7870.90451536 eV  <-- do not rely on this value for anything but (periodic) metals
  | Electronic free energy per atom                       :       -7870.90545395 eV

  Self-consistency convergence accuracy:
  | Change of charge density      :  0.1378E-05
  | Change of sum of eigenvalues  :  0.2028E-03 eV
  | Change of total energy        :  0.2342E-08 eV

  End self-consistency iteration #    10       :  max(cpu_time)    wall_clock(cpu1)
  | Time for this iteration                    :        0.470 s           0.470 s
  | Charge density update                      :        0.131 s           0.131 s
  | Density mixing & preconditioning           :        0.014 s           0.014 s
  | Hartree multipole update                   :        0.000 s           0.000 s
  | Hartree multipole summation                :        0.146 s           0.146 s
  | Integration                                :        0.076 s           0.077 s
  | Solution of K.-S. eqns.                    :        0.102 s           0.101 s
  | Total energy evaluation                    :        0.000 s           0.001 s

  Partial memory accounting:
  | Current value for overall tracked memory usage on task 0  :           2.631 MB
  | Peak value for overall tracked memory usage on task 0     :           3.584 MB after allocating wave
  | Largest tracked array allocation on task 0 so far         :           2.500 MB  when allocating +KS_eigenvector_complex
  Note:  These values currently only include a subset of arrays which are explicitly tracked.
  The "true" memory usage will be greater.
------------------------------------------------------------

------------------------------------------------------------
          Begin self-consistency iteration #   11

  Date     :  20190514, Time     :  123637.197
------------------------------------------------------------
  Evaluating new KS density using the density matrix
  Evaluating density matrix
  Time summed over all CPUs for getting density from density matrix: real work        0.117 s, elapsed        0.117 s
  Integration grid: deviation in total charge (<rho> - N_e) =  -2.806644E-13
  Pulay mixing of updated and previous charge densities.

  Evaluating partitioned Hartree potential by multipole expansion.
  | Analytical far-field extrapolation by fixed multipoles:
  | Hartree multipole sum: apparent total charge =   0.628168E-04
  Summing up the Hartree potential.
  Time summed over all CPUs for potential: real work        0.143 s, elapsed        0.143 s
  | RMS charge density error from multipole expansion :   0.232559E-02
  | Average real-space part of the electrostatic potential :     -0.33310610 eV

  Integrating Hamiltonian matrix: batch-based integration.
  Time summed over all CPUs for integration: real work        0.078 s, elapsed        0.078 s

  Updating Kohn-Sham eigenvalues, eigenvectors, occupation numbers, and Fermi level.
  Solving generalized eigenproblem

  Obtaining occupation numbers and chemical potential using ELSI.
  | Chemical potential (Fermi level):    -4.74426963eV
  What follows are estimated values for band gap, HOMO, LUMO, etc.
  | They are estimated on a discrete k-point grid and not necessarily exact.
  | For converged numbers, create a DOS and/or band structure plot on a denser k-grid.

  Highest occupied state (VBM) at     -4.78040452 eV (relative to internal zero)
  | Occupation number:      1.69324229
  | K-point:     655 at    0.500000    0.333333    0.666667 (in units of recip. lattice)

  Lowest unoccupied state (CBM) at    -4.73001262 eV (relative to internal zero)
  | Occupation number:      0.68676487
  | K-point:      32 at    0.000000    0.250000    0.666667 (in units of recip. lattice)

  ESTIMATED overall HOMO-LUMO gap:      0.05039190 eV between HOMO at k-point 655 and LUMO at k-point 32
  | This appears to be an indirect band gap.
  | Smallest direct gap :      0.89632862 eV for k_point 680 at    0.000000    0.250000    0.666667 (in units of recip. lattice)
  However, this system has fractional occupation numbers. Since we use a finite k-point grid,
  this material is metallic within the approximate finite broadening function (occupation_type)
  applied to determine the occupation numbers.

  Total energy components:
  | Sum of eigenvalues            :        -163.82571541 Ha       -4457.92453298 eV
  | XC energy correction          :         -19.60912856 Ha        -533.59153699 eV
  | XC potential correction       :          25.90882004 Ha         705.01486400 eV
  | Free-atom electrostatic energy:        -132.19998068 Ha       -3597.34450520 eV
  | Hartree energy correction     :           0.47561470 Ha          12.94213438 eV
  | Entropy correction            :          -0.00003449 Ha          -0.00093859 eV
  | ---------------------------
  | Total energy                  :        -289.25038992 Ha       -7870.90357680 eV
  | Total energy, T -> 0          :        -289.25042441 Ha       -7870.90451538 eV  <-- do not rely on this value for anything but (periodic) metals
  | Electronic free energy        :        -289.25045890 Ha       -7870.90545397 eV

  Derived energy quantities:
  | Kinetic energy                :         289.31459801 Ha        7872.65076793 eV
  | Electrostatic energy          :        -558.95585937 Ha      -15209.96280773 eV
  | Energy correction for multipole
  | error in Hartree potential    :           0.00023817 Ha           0.00648096 eV
  | Sum of eigenvalues per atom                           :       -4457.92453298 eV
  | Total energy (T->0) per atom                          :       -7870.90451538 eV  <-- do not rely on this value for anything but (periodic) metals
  | Electronic free energy per atom                       :       -7870.90545397 eV

  Self-consistency convergence accuracy:
  | Change of charge density      :  0.7925E-06
  | Change of sum of eigenvalues  :  0.3225E-03 eV
  | Change of total energy        : -0.2309E-07 eV

  Preliminary charge convergence reached. Turning off preconditioner.

  Writing Kohn-Sham eigenvalues.
  K-point:       1 at    0.000000    0.000000    0.000000 (in units of recip. lattice)

  State    Occupation    Eigenvalue [Ha]    Eigenvalue [eV]
      1       2.00000         -65.539968        -1783.43327
      2       2.00000          -5.127553         -139.52781
      3       2.00000          -3.542474          -96.39562
      4       2.00000          -3.542474          -96.39562
      5       2.00000          -3.542474          -96.39562
      6       2.00000          -0.455966          -12.40745
      7       0.00000          -0.084937           -2.31126
      8       0.00000          -0.084937           -2.31126
      9       0.00000          -0.084937           -2.31126
     10       0.00000           0.074903            2.03822

  What follows are estimated values for band gap, HOMO, LUMO, etc.
  | They are estimated on a discrete k-point grid and not necessarily exact.
  | For converged numbers, create a DOS and/or band structure plot on a denser k-grid.

  Highest occupied state (VBM) at     -4.78040452 eV (relative to internal zero)
  | Occupation number:      1.69324229
  | K-point:     655 at    0.500000    0.333333    0.666667 (in units of recip. lattice)

  Lowest unoccupied state (CBM) at    -4.73001262 eV (relative to internal zero)
  | Occupation number:      0.68676487
  | K-point:      32 at    0.000000    0.250000    0.666667 (in units of recip. lattice)

  ESTIMATED overall HOMO-LUMO gap:      0.05039190 eV between HOMO at k-point 655 and LUMO at k-point 32
  | This appears to be an indirect band gap.
  | Smallest direct gap :      0.89632862 eV for k_point 680 at    0.000000    0.250000    0.666667 (in units of recip. lattice)
  However, this system has fractional occupation numbers. Since we use a finite k-point grid,
  this material is metallic within the approximate finite broadening function (occupation_type)
  applied to determine the occupation numbers.

  Self-consistency cycle converged.

  End self-consistency iteration #    11       :  max(cpu_time)    wall_clock(cpu1)
  | Time for this iteration                    :        0.469 s           0.469 s
  | Charge density update                      :        0.128 s           0.128 s
  | Density mixing                             :        0.015 s           0.015 s
  | Hartree multipole update                   :        0.000 s           0.000 s
  | Hartree multipole summation                :        0.145 s           0.145 s
  | Integration                                :        0.077 s           0.078 s
  | Solution of K.-S. eqns.                    :        0.103 s           0.102 s
  | Total energy evaluation                    :        0.000 s           0.000 s

  Partial memory accounting:
  | Current value for overall tracked memory usage on task 0  :           2.631 MB
  | Peak value for overall tracked memory usage on task 0     :           3.584 MB after allocating wave
  | Largest tracked array allocation on task 0 so far         :           2.500 MB  when allocating +KS_eigenvector_complex
  Note:  These values currently only include a subset of arrays which are explicitly tracked.
  The "true" memory usage will be greater.
------------------------------------------------------------

  Energy and forces in a compact form:
  | Total energy uncorrected      :         -0.787090357679617E+04 eV
  | Total energy corrected        :         -0.787090451538191E+04 eV  <-- do not rely on this value for anything but (periodic) metals
  | Electronic free energy        :         -0.787090545396765E+04 eV

  ------------------------------------ 
  Start decomposition of the XC Energy 
  ------------------------------------ 
  X and C from original XC functional choice 
  Hartree-Fock Energy :          0.000000000 Ha              0.000000000 eV
  X Energy            :        -18.556137461 Ha           -504.938191276 eV
  C Energy            :         -1.052991101 Ha            -28.653345719 eV
  Total XC Energy     :        -19.609128561 Ha           -533.591536994 eV
  ------------------------------------ 
  LDA X and C from self-consistent density 
  X Energy LDA        :        -18.556137461 Ha           -504.938191276 eV
  C Energy LDA        :         -1.052991101 Ha            -28.653345719 eV
  ------------------------------------ 
  End decomposition of the XC Energy 
  ------------------------------------ 

------------------------------------------------------------

------------------------------------------------------------------------------
  Final output of selected total energy values:

  The following output summarizes some interesting total energy values
  at the end of a run (AFTER all relaxation, molecular dynamics, etc.).

  | Total energy of the DFT / Hartree-Fock s.c.f. calculation      :          -7870.903576796 eV
  | Final zero-broadening corrected energy (caution - metals only) :          -7870.904515382 eV
  | For reference only, the value of 1 Hartree used in FHI-aims is :             27.211384500 eV

  Before relying on these values, please be sure to understand exactly which
  total energy value is referred to by a given number. Different objects may
  all carry the same name 'total energy'. Definitions:

  Total energy of the DFT / Hartree-Fock s.c.f. calculation:
  | Note that this energy does not include ANY quantities calculated after the
  | s.c.f. cycle, in particular not ANY RPA, MP2, etc. many-body perturbation terms.

  Final zero-broadening corrected energy:
  | For metallic systems only, a broadening of the occupation numbers at the Fermi
  | level can be extrapolated back to zero broadening by an electron-gas inspired
  | formula. For all systems that are not real metals, this value can be
  | meaningless and should be avoided.

------------------------------------------------------------------------------
  Methods described in the following list of references were used in this FHI-aims run.
  If you publish the results, please make sure to cite these reference if they apply.
  FHI-aims is an academic code, and for our developers (often, Ph.D. students
  and postdocs), scientific credit in the community is essential.
  Thank you for helping us!

  For any use of FHI-aims, please cite:

    Volker Blum, Ralf Gehrke, Felix Hanke, Paula Havu, Ville Havu,
    Xinguo Ren, Karsten Reuter, and Matthias Scheffler
    'Ab initio molecular simulations with numeric atom-centered orbitals'
    Computer Physics Communications 180, 2175-2196 (2009)
    http://dx.doi.org/10.1016/j.cpc.2009.06.022


  For the real-space grid partitioning and parallelization used in this calculation, please cite:

    Ville Havu, Volker Blum, Paula Havu, and Matthias Scheffler,
    'Efficient O(N) integration for all-electron electronic structure calculation'
    'using numerically tabulated basis functions'
    Journal of Computational Physics 228, 8367-8379 (2009).
    http://dx.doi.org/10.1016/j.jcp.2009.08.008

  Of course, there are many other important community references, e.g., those cited in the
  above references. Our list is limited to references that describe implementations in the
  FHI-aims code. The reason is purely practical (length of this list) - please credit others as well.

------------------------------------------------------------
          Leaving FHI-aims.
          Date     :  20190514, Time     :  123637.670

          Computational steps:
          | Number of self-consistency cycles          :           11
          | Number of SCF (re)initializations          :            1

          Detailed time accounting                     :  max(cpu_time)    wall_clock(cpu1)
          | Total time                                 :        5.656 s           5.656 s
          | Preparation time                           :        0.099 s           0.099 s
          | Boundary condition initalization           :        0.028 s           0.028 s
          | Grid partitioning                          :        0.008 s           0.008 s
          | Preloading free-atom quantities on grid    :        0.001 s           0.001 s
          | Free-atom superposition energy             :        0.007 s           0.008 s
          | Total time for integrations                :        0.980 s           0.984 s
          | Total time for solution of K.-S. equations :        1.354 s           1.353 s
          | Total time for density update              :        1.432 s           1.432 s
          | Total time for mixing & preconditioning    :        0.155 s           0.155 s
          | Total time for Hartree multipole update    :        0.004 s           0.003 s
          | Total time for Hartree multipole sum       :        1.555 s           1.553 s
          | Total time for total energy evaluation     :        0.002 s           0.001 s
          | Total time for scaled ZORA corrections     :        0.000 s           0.000 s

 This is a stub MPI_ALLREDUCE call.
 You should not be here. Check your
 setting on the use_mpi variable, or
 link against true MPI-libraries.
