------------------------------------------------------------
          Invoking FHI-aims ...
          Version 171221_1
          Compiled on 2019/05/06 at 14:26:40 on host ffph0xx.

          When using FHI-aims, please cite the following reference:

          Volker Blum, Ralf Gehrke, Felix Hanke, Paula Havu,
          Ville Havu, Xinguo Ren, Karsten Reuter, and Matthias Scheffler,
          'Ab Initio Molecular Simulations with Numeric Atom-Centered Orbitals',
          Computer Physics Communications 180, 2175-2196 (2009)

          For any questions about FHI-aims, please visit the aimsclub website
          with its forums and wiki. Contributions to both the forums and the
          wiki are warmly encouraged - they are for you, and everyone is welcome there.

------------------------------------------------------------



  Date     :  20190513, Time     :  134433.854
  Time zero on CPU 1             :   0.757000000000000E-03  s.
  Internal wall clock time zero  :           326987073.854  s.

  FHI-aims created a unique identifier for this run for later identification
  aims_uuid : 7235D7A8-EA60-4E7A-A5C7-E09BBE78B533


  Performing system and environment tests:
  *** Environment variable OMP_NUM_THREADS is not set
  *** For performance reasons you might want to set it to 1
  | Stacksize not measured: no C compiler

  Obtaining array dimensions for all initial allocations:
  
  -----------------------------------------------------------------------
  Parsing control.in (first pass over file, find array dimensions only).
  The contents of control.in will be repeated verbatim below
  unless switched off by setting 'verbatim_writeout .false.' .
  in the first line of control.in .
  -----------------------------------------------------------------------
  
  #--- method ---
  xc pw-lda
  spin none
  relativistic atomic_zora scalar
  #---
  
  #--- k-grid settings ---
  k_grid 12 12 12
  #---
  
  
  
  
  
  
  
  
  
  
  
  #-------------------------------------------------------------------------------
  #--- Species defaults for Si
  #-------------------------------------------------------------------------------
  
  ################################################################################
  #
  #  FHI-aims code project
  #  VB, Fritz-Haber Institut, 2009
  #
  #  Suggested "light" defaults for Si atom (to be pasted into control.in file)
  #  Be sure to double-check any results obtained with these settings for post-processing,
  #  e.g., with the "tight" defaults and larger basis sets.
  #
  ################################################################################
    species        Si
  #     global species definitions
      nucleus             14
      mass                28.0855
  #
      l_hartree           4
  #
      cut_pot             3.5          1.5  1.0
      basis_dep_cutoff    1e-4
  #
      radial_base         42 5.0
      radial_multiplier   1
      angular_grids       specified
        division   0.5866   50
        division   0.9616  110
        division   1.2249  194
        division   1.3795  302
  #      division   1.4810  434
  #      division   1.5529  590
  #      division   1.6284  770
  #      division   1.7077  974
  #      division   2.4068 1202
  #      outer_grid   974
        outer_grid 302
  ################################################################################
  #
  #  Definition of "minimal" basis
  #
  ################################################################################
  #     valence basis states
      valence      3  s   2.
      valence      3  p   2.
  #     ion occupancy
      ion_occ      3  s   1.
      ion_occ      3  p   1.
  ################################################################################
  #
  #  Suggested additional basis functions. For production calculations,
  #  uncomment them one after another (the most important basis functions are
  #  listed first).
  #
  #  Constructed for dimers: 1.75 A, 2.0 A, 2.25 A, 2.75 A, 3.75 A
  #
  ################################################################################
  #  "First tier" - improvements: -571.96 meV to -37.03 meV
       hydro 3 d 4.2
       hydro 2 p 1.4
  #     hydro 4 f 6.2
       ionic 3 s auto
  #  "Second tier" - improvements: -16.76 meV to -3.03 meV
  #     hydro 3 d 9
  #     hydro 5 g 9.4
  #     hydro 4 p 4
  #     hydro 1 s 0.65
  #  "Third tier" - improvements: -3.89 meV to -0.60 meV
  #     ionic 3 d auto
  #     hydro 3 s 2.6
  #     hydro 4 f 8.4
  #     hydro 3 d 3.4
  #     hydro 3 p 7.8
  #  "Fourth tier" - improvements: -0.33 meV to -0.11 meV
  #     hydro 2 p 1.6
  #     hydro 5 g 10.8
  #     hydro 5 f 11.2
  #     hydro 3 d 1
  #     hydro 4 s 4.5
  #  Further basis functions that fell out of the optimization - noise
  #  level... < -0.08 meV
  #     hydro 4 d 6.6
  #     hydro 5 g 16.4
  #     hydro 4 d 9
  
  -----------------------------------------------------------------------
  Completed first pass over input file control.in .
  -----------------------------------------------------------------------
  
  
  -----------------------------------------------------------------------
  Parsing geometry.in (first pass over file, find array dimensions only).
  The contents of geometry.in will be repeated verbatim below
  unless switched off by setting 'verbatim_writeout .false.' .
  in the first line of geometry.in .
  -----------------------------------------------------------------------
  
  lattice_vector   0.000000   2.700000   2.700000
  lattice_vector   2.700000   0.000000   2.700000
  lattice_vector   2.700000   2.700000   0.000000
  atom_frac   0.000000   0.000000   0.000000 Si
  atom_frac   0.250000   0.250000   0.250000 Si
  
  -----------------------------------------------------------------------
  Completed first pass over input file geometry.in .
  -----------------------------------------------------------------------
  

  Basic array size parameters:
  | Number of species                 :        1
  | Number of atoms                   :        2
  | Number of lattice vectors         :        3
  | Max. basis fn. angular momentum   :        2
  | Max. atomic/ionic basis occupied n:        3
  | Max. number of basis fn. types    :        3
  | Max. radial fns per species/type  :        5
  | Max. logarithmic grid size        :     1346
  | Max. radial integration grid size :       42
  | Max. angular integration grid size:      302
  | Max. angular grid division number :        8
  | Radial grid for Hartree potential :     1346
  | Number of spin channels           :        1

------------------------------------------------------------
          Reading file control.in.
------------------------------------------------------------
  XC: Using Perdew-Wang parametrisation of Ceperley-Alder LDA.
  Spin treatment: No spin polarisation.
  Scalar relativistic treatment of kinetic energy: on-site free-atom approximation to ZORA.
  Found k-point grid:        12        12        12

  Reading configuration options for species Si                  .
  | Found nuclear charge :  14.0000
  | Found atomic mass :    28.085500000000000      amu
  | Found l_max for Hartree potential  :   4
  | Found cutoff potl. onset [A], width [A], scale factor :    3.50000    1.50000    1.00000
  | Threshold for basis-dependent cutoff potential is   0.100000E-03
  | Found data for basic radial integration grid :    42 points, outermost radius =    5.000 A
  | Found multiplier for basic radial grid :   1
  | Found angular grid specification: user-specified.
  | Specified grid contains     5 separate shells.
  | Check grid settings after all constraints further below.
  | Found free-atom valence shell :  3 s   2.000
  | Found free-atom valence shell :  3 p   2.000
  | Found free-ion valence shell :  3 s   1.000
  | Found free-ion valence shell :  3 p   1.000
  | Found hydrogenic basis function :  3 d   4.200
  | Found hydrogenic basis function :  2 p   1.400
  | Found ionic basis function :  3 s , default cutoff radius.
  Species Si                  : Missing cutoff potential type.
  Defaulting to exp(1/x)/(1-x)^2 type cutoff potential.
  Species Si: No 'logarithmic' tag. Using default grid for free atom:
  | Default logarithmic grid data [bohr] : 0.1000E-03 0.1000E+03 0.1012E+01
  | Will include ionic basis functions of  2.0-fold positive Si                   ion.
  Species Si: On-site basis accuracy parameter (for Gram-Schmidt orthonormalisation) not specified.
  Using default value basis_acc =  0.1000000E-03.
  Species Si                  : Using default innermost maximum threshold i_radial=  2 for radial functions.
  Species Si                  : Default cutoff onset for free atom density etc. : 0.35000000E+01 AA.
  Species Si                  : Basic radial grid will be enhanced according to radial_multiplier =   1, to contain    42 grid points.

  Finished reading input file 'control.in'. Consistency checks are next.

  MPI_IN_PLACE appears to work with this MPI implementation.
  | Keeping use_mpi_in_place .true. (see manual).
  Target number of points in a grid batch is not set. Defaulting to  100
  Method for grid partitioning is not set. Defaulting to 'maxmin' partitioning.
  Batch size limit is not set. Defaulting to    200
  By default, will store active basis functions for each batch.
  If in need of memory, prune_basis_once .false. can be used to disable this option.
  communication_type for Hartree potential was not specified.
  Defaulting to calc_hartree .
 * Attention: 
 * You may want to set distributed_spline_storage to .true. in order to save memory.
 * This doesn't harm performance and is perfectly ok unless:
 * - you get error messages in postprocessing (about missing atoms in get_rho_multipole_spl)
 * - you need full spline storage in hirshfeld_analysis
  Defaulting to Pulay charge density mixer.
  Pulay mixer: Number of relevant iterations not set.
  Defaulting to    8 iterations.
  Pulay mixer: Number of initial linear mixing iterations not set.
  Defaulting to    0 iterations.
  Work space size for distributed Hartree potential not set.
  Defaulting to   0.200000E+03 MB.
  Mixing parameter for charge density mixing has not been set.
  Using default: charge_mix_param =     0.0500.
  The mixing parameter will be adjusted in iteration number     2 of the first full s.c.f. cycle only.
  Algorithm-dependent basis array size parameters:
  | n_max_pulay                         :        8
 * Notice: The s.c.f. convergence criterion sc_accuracy_rho was not provided.
 * We used to stop in this case, and ask the user to provide reasonable
 * scf convergence criteria. However, this led some users to employ criteria
 * that led to extremely long run times, e.g., for simple relaxation.
 * We now preset a default value for sc_accuracy_rho if it is not set.
 * You may still wish to check if this setting is too tight or too loose for your needs.
 * Based on n_atoms, FHI-aims chose sc_accuracy_rho =  0.100000E-05 .
  Maximum number of self-consistency iterations not provided.
  Presetting  1000 iterations.
  Presetting      1001 iterations before the initial mixing cycle
  is restarted anyway using the sc_init_iter criterion / keyword.
  Presetting a factor      1.000 between actual scf density residual
  and density convergence criterion sc_accuracy_rho below which sc_init_iter
  takes no effect.
 * No s.c.f. convergence criteria (sc_accuracy_*) were provided in control.in.
 * The run will proceed with a reasonable default guess, but please check whether.
 * the s.c.f. cycles seem to take too much or too little time.
  Calculation of forces was not defined in control.in. No forces will be calculated.
  Geometry relaxation not requested: no relaxation will be performed.
  No accuracy limit for integral partition fn. given. Defaulting to  0.1000E-14.
  No threshold value for u(r) in integrations given. Defaulting to  0.1000E-05.
  No occupation type (smearing scheme) given. Defaulting to Gaussian broadening, width =  0.1000E-01 eV.
  The width will be adjusted in iteration number     2 of the first full s.c.f. cycle only.
  S.C.F. convergence parameters will be adjusted in iteration number     2 of the first full s.c.f. cycle only.
  No accuracy for occupation numbers given. Defaulting to  0.1000E-12.
  No threshold value for occupation numbers given. Defaulting to  0.0000E+00.
  No accuracy for fermi level given. Defaulting to  0.1000E-19.
  Maximum # of iterations to find E_F not set. Defaulting to  200.
  Preferred method for the eigenvalue solver ('KS_method') not specified in 'control.in'.
  Defaulting to serial version, 'lapack_fast'.
  Will not use alltoall communication since running on < 1024 CPUs.
  Threshold for basis singularities not set.
  Default threshold for basis singularities:  0.1000E-04
  partition_type (choice of integration weights) for integrals was not specified.
  | Using a version of the partition function of Stratmann and coworkers ('stratmann_smoother').
  | At each grid point, the set of atoms used to build the partition table is smoothly restricted to
  | only those atoms whose free-atom density would be non-zero at that grid point.
  Partitioning for Hartree potential was not defined. Using partition_type for integrals.
  | Adjusted default value of keyword multip_moments_threshold to:       0.10000000E-11
  | This value may affect high angular momentum components of the Hartree potential in periodic systems.
  Angular momentum expansion for Kerker preconditioner not set explicitly.
  | Using default value of   0
  No explicit requirement for turning off preconditioner.
  | By default, it will be turned off when the charge convergence reaches
  | sc_accuracy_rho  =   0.100000E-05
  No special mixing parameter while Kerker preconditioner is on.
  Using default: charge_mix_param =     0.0500.
  No q(lm)/r^(l+1) cutoff set for long-range Hartree potential.
  | Using default value of  0.100000E-09 .
  | Verify using the multipole_threshold keyword.
  Defaulting to new monopole extrapolation.
  Density update method: automatic selection selected.
  Using density matrix based charge density update.
  Using density matrix based charge density update.
  Using packed matrix style: index .
  Defaulting to use time-reversal symmetry for k-point grid.
------------------------------------------------------------


------------------------------------------------------------
          Reading geometry description geometry.in.
------------------------------------------------------------
  Input structure read successfully.
  The structure contains        2 atoms,  and a total of         28.000 electrons.

  Input geometry:
  | Unit cell:
  |        0.00000000        2.70000000        2.70000000
  |        2.70000000        0.00000000        2.70000000
  |        2.70000000        2.70000000        0.00000000
  | Atomic structure:
  |       Atom                x [A]            y [A]            z [A]
  |    1: Species Si            0.00000000        0.00000000        0.00000000
  |    2: Species Si            1.35000000        1.35000000        1.35000000

  Lattice parameters for 3D lattice (in Angstroms) :     3.818377    3.818377    3.818377
  Angle(s) between unit vectors (in degrees)      :    60.000000   60.000000   60.000000

  |

  | The smallest distance between any two atoms is         2.33826859 AA.
  |
  | The first atom of this pair is atom number                      1 .
  | The second atom of this pair is atom number                     2 .
  | Wigner-Seitz cell of the first atom image           0     0     0 .
  | (The Wigner-Seitz cell of the second atom is 0 0 0  by definition.)

  Quantities derived from the lattice vectors:
  | Reciprocal lattice vector 1: -1.163553  1.163553  1.163553
  | Reciprocal lattice vector 2:  1.163553 -1.163553  1.163553
  | Reciprocal lattice vector 3:  1.163553  1.163553 -1.163553
  | Unit cell volume                               :   0.393660E+02  A^3

  Range separation radius for Ewald summation (hartree_convergence_parameter):      3.86449263 bohr.

  Fractional coordinates:
                         L1                L2                L3
       atom_frac         0.00000000        0.00000000        0.00000000  Si
       atom_frac         0.25000000        0.25000000        0.25000000  Si

  Number of empty states per atom not set in control.in - providing a guess from actual geometry.
  | Total number of empty states used during s.c.f. cycle:        6
  If you use a very high smearing, use empty_states (per atom!) in control.in to increase this value.

  Structure-dependent array size parameters: 
  | Maximum number of distinct radial functions  :        8
  | Maximum number of basis functions            :       36
  | Number of Kohn-Sham states (occupied + empty):       20
------------------------------------------------------------

------------------------------------------------------------
          Preparing all fixed parts of the calculation.
------------------------------------------------------------
  Determining machine precision:
     2.2250738585072014E-308
  Setting up grids for atomic and cluster calculations.

  Creating wave function, potential, and density for free atoms.

  Species: Si

  List of occupied orbitals and eigenvalues:
    n    l              occ      energy [Ha]    energy [eV]
    1    0           2.0000       -65.491668     -1782.1190
    2    0           2.0000        -5.087967      -138.4506
    3    0           2.0000        -0.391471       -10.6525
    2    1           6.0000        -3.502246       -95.3010
    3    1           2.0000        -0.143943        -3.9169

  Creating fixed part of basis set: Ionic, confined, hydrogenic.

  Si                   ion:

  List of free ionic orbitals and eigenvalues:
    n    l      energy [Ha]    energy [eV]
    1    0       -66.364436     -1805.8682
    2    0        -5.935799      -161.5213
    3    0        -1.078166       -29.3384
    2    1        -4.351123      -118.4001
    3    1        -0.781733       -21.2720


  List of ionic basis orbitals and eigenvalues:
    n    l      energy [Ha]    energy [eV]    outer radius [A]
    3    0        -1.078146       -29.3378       4.214062


  Si                   hydrogenic:

  List of hydrogenic basis orbitals: 
    n    l      effective z      eigenvalue [eV]  inner max. [A]     outer max. [A]     outer radius [A]   
    3    2         4.200000       -26.6624           1.139231           1.139231           4.534782
    2    1         1.400000        -6.4613           1.472672           1.472672           4.590560


  Adding cutoff potential to free-atom effective potential.
  Creating atomic-like basis functions for current effective potential.

  Species Si                  :

  List of atomic basis orbitals and eigenvalues:
    n    l      energy [Ha]    energy [eV]    outer radius [A]
    1    0       -65.491668     -1782.1190       0.789468
    2    0        -5.087967      -138.4506       2.815114
    3    0        -0.391471       -10.6525       4.534782
    2    1        -3.502246       -95.3010       3.259919
    3    1        -0.143943        -3.9169       4.590560

  Assembling full basis from fixed parts.
  | Species Si :   atomic orbital   1 s accepted.
  | Species Si :   atomic orbital   2 s accepted.
  | Species Si :    ionic orbital   3 s accepted.
  | Species Si :   atomic orbital   3 s accepted.
  | Species Si :   atomic orbital   2 p accepted.
  | Species Si :   atomic orbital   3 p accepted.
  | Species Si :    hydro orbital   2 p accepted.
  | Species Si :    hydro orbital   3 d accepted.

  Basis size parameters after reduction:
  | Total number of radial functions:        8
  | Total number of basis functions :       36

  Per-task memory consumption for arrays in subroutine allocate_ext:
  |           2.757868MB.
  Testing on-site integration grid accuracy.
  |  Species  Function  <phi|h_atom|phi> (log., in eV)  <phi|h_atom|phi> (rad., in eV)
           1        1              -1782.1189727076              -1782.1182429251
           1        2               -138.4506350693               -138.4506310079
           1        3                -10.3030408815                -10.3029120678
           1        4                  5.0238999146                  4.9457540310 ***
           1        5                -95.3009689499                -95.3009689315
           1        6                 -3.9266496564                 -3.9420918374
           1        7                  6.3453628447                  6.1632372158 ***
           1        8                  6.2883050744                  6.2861881409
 * Note: Onsite integrals marked "***" above are less accurate than
 * onsite_accuracy_threshold =    0.03000 eV. Usually, this is harmless.
 * When in doubt, tighten the "radial" and/or "radial_multiplier" flags to check.

  Preparing densities etc. for the partition functions (integrals / Hartree potential).

  Preparations completed.
  max(cpu_time)          :      0.093 s.
  Wall clock time (cpu1) :      0.094 s.
------------------------------------------------------------

------------------------------------------------------------
          Begin self-consistency loop: Initialization.

          Date     :  20190513, Time     :  134433.949
------------------------------------------------------------

  Initializing index lists of integration centers etc. from given atomic structure:
  Mapping all atomic coordinates to central unit cell.

  Initializing the k-points
          Using symmetry for reducing the k-points
  | k-points reduced from:     1728 to      868
  | Number of k-points                             :       868
  The eigenvectors in the calculations are COMPLEX.
  | K-points in task   0:       868
  | Number of basis functions in the Hamiltonian integrals :      1472
  | Number of basis functions in a single unit cell        :        36
  | Number of centers in hartree potential         :       732
  | Number of centers in hartree multipole         :       324
  | Number of centers in electron density summation:       198
  | Number of centers in basis integrals           :       228
  | Number of centers in integrals                 :       101
  | Number of centers in hamiltonian               :       198
  | Consuming       1519 KiB for k_phase.
  | Number of super-cells (origin) [n_cells]                     :        2197
  | Number of super-cells (after PM_index) [n_cells]             :         112
  | Number of super-cells in hamiltonian [n_cells_in_hamiltonian]:         112
  | Size of matrix packed + index [n_hamiltonian_matrix_size] :       43503
  Partitioning the integration grid into batches with maxmin method.
  | Maximal weight for a single point:     1.000
  | Minimal weight for a single point:     0.666
  | Number of batches:      128
  | Maximal batch size:      90
  | Minimal batch size:      85
  | Average batch size:      87.562
  | Standard deviation of batch sizes:       1.499
  Initializing partition tables, free-atom densities, potentials, etc. across the integration grid (initialize_grid_storage).
  | initialize_grid_storage: Actual outermost partition radius vs. multipole_radius_free
  | (-- VB: in principle, multipole_radius_free should be larger, hence this output)
  | Species        1: Confinement radius =              4.999999999999999 AA, multipole_radius_free =              5.000694715736543 AA.
  | Species        1: outer_partition_radius set to              5.000694715736543 AA .
  | Original list of interatomic distances with         228 x        228 entries is created.
  | Net number of integration points:    11208
  | of which are non-zero points    :     9724
  | Numerical average free-atom electrostatic potential    :    -13.36792917 eV
  Renormalizing the initial density to the exact electron count on the 3D integration grid.
  | Initial density: Formal number of electrons (from input files) :      28.0000000000
  | Integrated number of electrons on 3D grid     :      28.0052500917
  | Charge integration error                      :       0.0052500917
  | Normalization factor for density and gradient :       0.9998125319
  Obtaining max. number of non-zero basis functions in each batch (get_n_compute_maxes).
  | Maximal number of non-zero basis functions:      479 in task     0
  Allocating        9.999 MB for KS_eigenvector_complex
  Integrating Hamiltonian matrix: batch-based integration.
  Time summed over all CPUs for integration: real work        0.618 s, elapsed        0.618 s
  Integrating overlap matrix.
  Time summed over all CPUs for integration: real work        0.515 s, elapsed        0.515 s
  Decreasing sparse matrix size:
   Tolerance:   9.9999998245167004E-014
   Hamiltonian matrix
  | Array has    37505 nonzero elements out of    43503 elements
  | Sparsity factor is 0.138
   Overlap matrix
  | Array has    36204 nonzero elements out of    43503 elements
  | Sparsity factor is 0.168
  New size of hamiltonian matrix:       37763

  Updating Kohn-Sham eigenvalues, eigenvectors, occupation numbers, and Fermi level.
  Solving generalized eigenproblem
  Transforming overlap matrix and checking for singularities.
  Overlap matrix is nonsingular at first k-point:
  | Lowest eigenvalue:  0.402189E-02

  Obtaining occupation numbers and chemical potential using ELSI.
  | Chemical potential (Fermi level):    -5.58642288eV
  Writing Kohn-Sham eigenvalues.
  K-point:       1 at    0.000000    0.000000    0.000000 (in units of recip. lattice)

  State    Occupation    Eigenvalue [Ha]    Eigenvalue [eV]
      1       2.00000         -65.514335        -1782.73576
      2       2.00000         -65.514335        -1782.73576
      3       2.00000          -5.115910         -139.21100
      4       2.00000          -5.115582         -139.20208
      5       2.00000          -3.530195          -96.06150
      6       2.00000          -3.530195          -96.06150
      7       2.00000          -3.530195          -96.06150
      8       2.00000          -3.529511          -96.04287
      9       2.00000          -3.529511          -96.04287
     10       2.00000          -3.529511          -96.04287
     11       2.00000          -0.673055          -18.31476
     12       2.00000          -0.234820           -6.38978
     13       2.00000          -0.234820           -6.38978
     14       2.00000          -0.234820           -6.38978
     15       0.00000          -0.130456           -3.54988
     16       0.00000          -0.130456           -3.54988
     17       0.00000          -0.130456           -3.54988
     18       0.00000          -0.104940           -2.85557
     19       0.00000           0.064436            1.75338
     20       0.00000           0.064436            1.75338

  What follows are estimated values for band gap, HOMO, LUMO, etc.
  | They are estimated on a discrete k-point grid and not necessarily exact.
  | For converged numbers, create a DOS and/or band structure plot on a denser k-grid.

  Highest occupied state (VBM) at     -6.38977738 eV (relative to internal zero)
  | Occupation number:      2.00000000
  | K-point:       1 at    0.000000    0.000000    0.000000 (in units of recip. lattice)

  Lowest unoccupied state (CBM) at    -5.54423357 eV (relative to internal zero)
  | Occupation number:      0.00000000
  | K-point:      48 at    0.000000    0.416667    0.416667 (in units of recip. lattice)

  ESTIMATED overall HOMO-LUMO gap:      0.84554381 eV between HOMO at k-point 1 and LUMO at k-point 48
  | This appears to be an indirect band gap.
  | Smallest direct gap :      2.83989703 eV for k_point 1 at    0.000000    0.416667    0.416667 (in units of recip. lattice)
  The gap value is above 0.2 eV. Unless you are using a very sparse k-point grid,
  this system is most likely an insulator or a semiconductor.
  Calculating total energy contributions from superposition of free atom densities.

  Total energy components:
  | Sum of eigenvalues            :        -328.22794084 Ha       -8931.53670190 eV
  | XC energy correction          :         -39.66939101 Ha       -1079.45905167 eV
  | XC potential correction       :          52.40960995 Ha        1426.13804784 eV
  | Free-atom electrostatic energy:        -263.25570304 Ha       -7163.55215730 eV
  | Hartree energy correction     :          -0.00000000 Ha          -0.00000000 eV
  | Entropy correction            :          -0.00000000 Ha          -0.00000000 eV
  | ---------------------------
  | Total energy                  :        -578.74342495 Ha      -15748.40986303 eV
  | Total energy, T -> 0          :        -578.74342495 Ha      -15748.40986303 eV  <-- do not rely on this value for anything but (periodic) metals
  | Electronic free energy        :        -578.74342495 Ha      -15748.40986303 eV

  Derived energy quantities:
  | Kinetic energy                :         579.73018031 Ha       15775.26084270 eV
  | Electrostatic energy          :       -1118.80421425 Ha      -30444.21165405 eV
  | Energy correction for multipole
  | error in Hartree potential    :           0.00000000 Ha           0.00000000 eV
  | Sum of eigenvalues per atom                           :       -4465.76835095 eV
  | Total energy (T->0) per atom                          :       -7874.20493151 eV  <-- do not rely on this value for anything but (periodic) metals
  | Electronic free energy per atom                       :       -7874.20493151 eV
  Initialize hartree_potential_storage
  Max. number of atoms included in rho_multipole:            2

  End scf initialization - timings             :  max(cpu_time)    wall_clock(cpu1)
  | Time for scf. initialization               :        2.464 s           2.464 s
  | Boundary condition initialization          :        0.040 s           0.040 s
  | Integration                                :        1.133 s           1.133 s
  | Solution of K.-S. eqns.                    :        1.073 s           1.073 s
  | Grid partitioning                          :        0.031 s           0.031 s
  | Preloading free-atom quantities on grid    :        0.001 s           0.001 s
  | Free-atom superposition energy             :        0.030 s           0.030 s
  | Total energy evaluation                    :        0.000 s           0.000 s

  Partial memory accounting:
  | Current value for overall tracked memory usage on task 0  :          10.755 MB
  | Peak value for overall tracked memory usage on task 0     :          13.740 MB after allocating wave
  | Largest tracked array allocation on task 0 so far         :           9.999 MB  when allocating +KS_eigenvector_complex
  Note:  These values currently only include a subset of arrays which are explicitly tracked.
  The "true" memory usage will be greater.
------------------------------------------------------------

------------------------------------------------------------
          Begin self-consistency iteration #    1

  Date     :  20190513, Time     :  134436.413
------------------------------------------------------------
  Evaluating new KS density using the density matrix
  Evaluating density matrix
  Time summed over all CPUs for getting density from density matrix: real work        1.002 s, elapsed        1.002 s
  Integration grid: deviation in total charge (<rho> - N_e) =   8.583356E-12
  Pulay mixing of updated and previous charge densities.

  Evaluating partitioned Hartree potential by multipole expansion.
  | Analytical far-field extrapolation by fixed multipoles:
  | Hartree multipole sum: apparent total charge =   0.546510E-02
  Summing up the Hartree potential.
  | Estimated reciprocal-space cutoff momentum G_max:         2.41638048 bohr^-1 .
  | Reciprocal lattice points for long-range Hartree potential:      58
  Time summed over all CPUs for potential: real work        0.359 s, elapsed        0.359 s
  | RMS charge density error from multipole expansion :   0.547817E-03
  | Average real-space part of the electrostatic potential :     -0.00449817 eV

  Integrating Hamiltonian matrix: batch-based integration.
  Time summed over all CPUs for integration: real work        0.593 s, elapsed        0.593 s

  Updating Kohn-Sham eigenvalues, eigenvectors, occupation numbers, and Fermi level.
  Solving generalized eigenproblem

  Obtaining occupation numbers and chemical potential using ELSI.
  | Chemical potential (Fermi level):    -5.57980433eV
  Writing Kohn-Sham eigenvalues.
  K-point:       1 at    0.000000    0.000000    0.000000 (in units of recip. lattice)

  State    Occupation    Eigenvalue [Ha]    Eigenvalue [eV]
      1       2.00000         -65.517697        -1782.82726
      2       2.00000         -65.517697        -1782.82726
      3       2.00000          -5.116511         -139.22736
      4       2.00000          -5.116184         -139.21845
      5       2.00000          -3.530891          -96.08044
      6       2.00000          -3.530891          -96.08044
      7       2.00000          -3.530891          -96.08044
      8       2.00000          -3.530208          -96.06185
      9       2.00000          -3.530208          -96.06185
     10       2.00000          -3.530208          -96.06185
     11       2.00000          -0.672506          -18.29981
     12       2.00000          -0.234033           -6.36838
     13       2.00000          -0.234033           -6.36838
     14       2.00000          -0.234033           -6.36838
     15       0.00000          -0.130063           -3.53920
     16       0.00000          -0.130063           -3.53920
     17       0.00000          -0.130063           -3.53920
     18       0.00000          -0.104270           -2.83734
     19       0.00000           0.064913            1.76637
     20       0.00000           0.064913            1.76637

  What follows are estimated values for band gap, HOMO, LUMO, etc.
  | They are estimated on a discrete k-point grid and not necessarily exact.
  | For converged numbers, create a DOS and/or band structure plot on a denser k-grid.

  Highest occupied state (VBM) at     -6.36837501 eV (relative to internal zero)
  | Occupation number:      2.00000000
  | K-point:       1 at    0.000000    0.000000    0.000000 (in units of recip. lattice)

  Lowest unoccupied state (CBM) at    -5.53760049 eV (relative to internal zero)
  | Occupation number:      0.00000000
  | K-point:     552 at    0.416667    0.416667    0.000000 (in units of recip. lattice)

  ESTIMATED overall HOMO-LUMO gap:      0.83077451 eV between HOMO at k-point 1 and LUMO at k-point 552
  | This appears to be an indirect band gap.
  | Smallest direct gap :      2.82917280 eV for k_point 1 at    0.416667    0.416667    0.000000 (in units of recip. lattice)
  The gap value is above 0.2 eV. Unless you are using a very sparse k-point grid,
  this system is most likely an insulator or a semiconductor.

  Total energy components:
  | Sum of eigenvalues            :        -328.24735302 Ha       -8932.06493411 eV
  | XC energy correction          :         -39.67232374 Ha       -1079.53885523 eV
  | XC potential correction       :          52.41347853 Ha        1426.24331733 eV
  | Free-atom electrostatic energy:        -263.25570304 Ha       -7163.55215730 eV
  | Hartree energy correction     :           0.01907253 Ha           0.51899003 eV
  | Entropy correction            :          -0.00000000 Ha          -0.00000000 eV
  | ---------------------------
  | Total energy                  :        -578.74282873 Ha      -15748.39363929 eV
  | Total energy, T -> 0          :        -578.74282873 Ha      -15748.39363929 eV  <-- do not rely on this value for anything but (periodic) metals
  | Electronic free energy        :        -578.74282873 Ha      -15748.39363929 eV

  Derived energy quantities:
  | Kinetic energy                :         579.58553568 Ha       15771.32486209 eV
  | Electrostatic energy          :       -1118.65604068 Ha      -30440.17964615 eV
  | Energy correction for multipole
  | error in Hartree potential    :           0.00072513 Ha           0.01973175 eV
  | Sum of eigenvalues per atom                           :       -4466.03246706 eV
  | Total energy (T->0) per atom                          :       -7874.19681964 eV  <-- do not rely on this value for anything but (periodic) metals
  | Electronic free energy per atom                       :       -7874.19681964 eV

  Self-consistency convergence accuracy:
  | Change of charge density      :  0.1066E+00
  | Change of sum of eigenvalues  : -0.5282E+00 eV
  | Change of total energy        :  0.1622E-01 eV

  End self-consistency iteration #     1       :  max(cpu_time)    wall_clock(cpu1)
  | Time for this iteration                    :        2.579 s           2.579 s
  | Charge density update                      :        1.065 s           1.065 s
  | Density mixing & preconditioning           :        0.048 s           0.048 s
  | Hartree multipole update                   :        0.001 s           0.001 s
  | Hartree multipole summation                :        0.362 s           0.362 s
  | Integration                                :        0.593 s           0.593 s
  | Solution of K.-S. eqns.                    :        0.509 s           0.509 s
  | Total energy evaluation                    :        0.000 s           0.000 s

  Partial memory accounting:
  | Current value for overall tracked memory usage on task 0  :          10.755 MB
  | Peak value for overall tracked memory usage on task 0     :          13.740 MB after allocating wave
  | Largest tracked array allocation on task 0 so far         :           9.999 MB  when allocating +KS_eigenvector_complex
  Note:  These values currently only include a subset of arrays which are explicitly tracked.
  The "true" memory usage will be greater.
------------------------------------------------------------

------------------------------------------------------------
          Begin self-consistency iteration #    2

  Date     :  20190513, Time     :  134438.992
------------------------------------------------------------
  Evaluating new KS density using the density matrix
  Evaluating density matrix
  Time summed over all CPUs for getting density from density matrix: real work        1.028 s, elapsed        1.028 s
  Integration grid: deviation in total charge (<rho> - N_e) =   8.299139E-12
  Pulay mixing of updated and previous charge densities.

  Evaluating partitioned Hartree potential by multipole expansion.
  | Analytical far-field extrapolation by fixed multipoles:
  | Hartree multipole sum: apparent total charge =   0.938793E-02
  Summing up the Hartree potential.
  Time summed over all CPUs for potential: real work        0.484 s, elapsed        0.484 s
  | RMS charge density error from multipole expansion :   0.107273E-01
  | Average real-space part of the electrostatic potential :      0.34505929 eV

  Integrating Hamiltonian matrix: batch-based integration.
  Time summed over all CPUs for integration: real work        0.686 s, elapsed        0.686 s

  Updating Kohn-Sham eigenvalues, eigenvectors, occupation numbers, and Fermi level.
  Solving generalized eigenproblem

  Obtaining occupation numbers and chemical potential using ELSI.
  | Chemical potential (Fermi level):    -5.41446071eV
  What follows are estimated values for band gap, HOMO, LUMO, etc.
  | They are estimated on a discrete k-point grid and not necessarily exact.
  | For converged numbers, create a DOS and/or band structure plot on a denser k-grid.

  Highest occupied state (VBM) at     -5.79525096 eV (relative to internal zero)
  | Occupation number:      2.00000000
  | K-point:       1 at    0.000000    0.000000    0.000000 (in units of recip. lattice)

  Lowest unoccupied state (CBM) at    -5.37225649 eV (relative to internal zero)
  | Occupation number:      0.00000000
  | K-point:      48 at    0.000000    0.416667    0.416667 (in units of recip. lattice)

  ESTIMATED overall HOMO-LUMO gap:      0.42299448 eV between HOMO at k-point 1 and LUMO at k-point 48
  | This appears to be an indirect band gap.
  | Smallest direct gap :      2.54803915 eV for k_point 1 at    0.000000    0.416667    0.416667 (in units of recip. lattice)
  The gap value is above 0.2 eV. Unless you are using a very sparse k-point grid,
  this system is most likely an insulator or a semiconductor.

  Checking to see if s.c.f. parameters should be adjusted.
  The system likely has a gap. Increased the default Pulay mixing parameter (charge_mix_param). Value:   0.200000 .
  Kept the default occupation width. Value:   0.010000 eV.

  Total energy components:
  | Sum of eigenvalues            :        -327.38937601 Ha       -8908.71819194 eV
  | XC energy correction          :         -39.73842293 Ha       -1081.33750568 eV
  | XC potential correction       :          52.50064295 Ha        1428.61518193 eV
  | Free-atom electrostatic energy:        -263.25570304 Ha       -7163.55215730 eV
  | Hartree energy correction     :          -0.85425849 Ha         -23.24555624 eV
  | Entropy correction            :          -0.00000000 Ha          -0.00000000 eV
  | ---------------------------
  | Total energy                  :        -578.73711752 Ha      -15748.23822923 eV
  | Total energy, T -> 0          :        -578.73711752 Ha      -15748.23822923 eV  <-- do not rely on this value for anything but (periodic) metals
  | Electronic free energy        :        -578.73711752 Ha      -15748.23822923 eV

  Derived energy quantities:
  | Kinetic energy                :         579.87448845 Ha       15779.18766693 eV
  | Electrostatic energy          :       -1118.87318304 Ha      -30446.08839048 eV
  | Energy correction for multipole
  | error in Hartree potential    :           0.01417382 Ha           0.38568926 eV
  | Sum of eigenvalues per atom                           :       -4454.35909597 eV
  | Total energy (T->0) per atom                          :       -7874.11911462 eV  <-- do not rely on this value for anything but (periodic) metals
  | Electronic free energy per atom                       :       -7874.11911462 eV

  Self-consistency convergence accuracy:
  | Change of charge density      :  0.1012E+00
  | Change of sum of eigenvalues  :  0.2335E+02 eV
  | Change of total energy        :  0.1554E+00 eV

  End self-consistency iteration #     2       :  max(cpu_time)    wall_clock(cpu1)
  | Time for this iteration                    :        2.877 s           2.877 s
  | Charge density update                      :        1.090 s           1.090 s
  | Density mixing & preconditioning           :        0.052 s           0.052 s
  | Hartree multipole update                   :        0.001 s           0.001 s
  | Hartree multipole summation                :        0.488 s           0.488 s
  | Integration                                :        0.686 s           0.686 s
  | Solution of K.-S. eqns.                    :        0.559 s           0.559 s
  | Total energy evaluation                    :        0.000 s           0.000 s

  Partial memory accounting:
  | Current value for overall tracked memory usage on task 0  :          10.756 MB
  | Peak value for overall tracked memory usage on task 0     :          13.740 MB after allocating wave
  | Largest tracked array allocation on task 0 so far         :           9.999 MB  when allocating +KS_eigenvector_complex
  Note:  These values currently only include a subset of arrays which are explicitly tracked.
  The "true" memory usage will be greater.
------------------------------------------------------------

------------------------------------------------------------
          Begin self-consistency iteration #    3

  Date     :  20190513, Time     :  134441.869
------------------------------------------------------------
  Evaluating new KS density using the density matrix
  Evaluating density matrix
  Time summed over all CPUs for getting density from density matrix: real work        1.007 s, elapsed        1.007 s
  Integration grid: deviation in total charge (<rho> - N_e) =   8.185452E-12
  Pulay mixing of updated and previous charge densities.

  Evaluating partitioned Hartree potential by multipole expansion.
  | Analytical far-field extrapolation by fixed multipoles:
  | Hartree multipole sum: apparent total charge =   0.884954E-02
  Summing up the Hartree potential.
  Time summed over all CPUs for potential: real work        0.495 s, elapsed        0.495 s
  | RMS charge density error from multipole expansion :   0.106003E-01
  | Average real-space part of the electrostatic potential :      0.33393641 eV

  Integrating Hamiltonian matrix: batch-based integration.
  Time summed over all CPUs for integration: real work        0.693 s, elapsed        0.693 s

  Updating Kohn-Sham eigenvalues, eigenvectors, occupation numbers, and Fermi level.
  Solving generalized eigenproblem

  Obtaining occupation numbers and chemical potential using ELSI.
  | Chemical potential (Fermi level):    -5.42006277eV
  What follows are estimated values for band gap, HOMO, LUMO, etc.
  | They are estimated on a discrete k-point grid and not necessarily exact.
  | For converged numbers, create a DOS and/or band structure plot on a denser k-grid.

  Highest occupied state (VBM) at     -5.81563652 eV (relative to internal zero)
  | Occupation number:      2.00000000
  | K-point:       1 at    0.000000    0.000000    0.000000 (in units of recip. lattice)

  Lowest unoccupied state (CBM) at    -5.37786412 eV (relative to internal zero)
  | Occupation number:      0.00000000
  | K-point:      48 at    0.000000    0.416667    0.416667 (in units of recip. lattice)

  ESTIMATED overall HOMO-LUMO gap:      0.43777241 eV between HOMO at k-point 1 and LUMO at k-point 48
  | This appears to be an indirect band gap.
  | Smallest direct gap :      2.55713913 eV for k_point 1 at    0.000000    0.416667    0.416667 (in units of recip. lattice)
  The gap value is above 0.2 eV. Unless you are using a very sparse k-point grid,
  this system is most likely an insulator or a semiconductor.

  Total energy components:
  | Sum of eigenvalues            :        -327.42968332 Ha       -8909.81500966 eV
  | XC energy correction          :         -39.73588163 Ha       -1081.26835343 eV
  | XC potential correction       :          52.49729064 Ha        1428.52396070 eV
  | Free-atom electrostatic energy:        -263.25570304 Ha       -7163.55215730 eV
  | Hartree energy correction     :          -0.81301997 Ha         -22.12339914 eV
  | Entropy correction            :          -0.00000000 Ha          -0.00000000 eV
  | ---------------------------
  | Total energy                  :        -578.73699733 Ha      -15748.23495883 eV
  | Total energy, T -> 0          :        -578.73699733 Ha      -15748.23495883 eV  <-- do not rely on this value for anything but (periodic) metals
  | Electronic free energy        :        -578.73699733 Ha      -15748.23495883 eV

  Derived energy quantities:
  | Kinetic energy                :         579.85881409 Ha       15778.76114584 eV
  | Electrostatic energy          :       -1118.85992979 Ha      -30445.72775124 eV
  | Energy correction for multipole
  | error in Hartree potential    :           0.01403195 Ha           0.38182871 eV
  | Sum of eigenvalues per atom                           :       -4454.90750483 eV
  | Total energy (T->0) per atom                          :       -7874.11747942 eV  <-- do not rely on this value for anything but (periodic) metals
  | Electronic free energy per atom                       :       -7874.11747942 eV

  Self-consistency convergence accuracy:
  | Change of charge density      :  0.1692E-01
  | Change of sum of eigenvalues  : -0.1097E+01 eV
  | Change of total energy        :  0.3270E-02 eV

  End self-consistency iteration #     3       :  max(cpu_time)    wall_clock(cpu1)
  | Time for this iteration                    :        2.853 s           2.853 s
  | Charge density update                      :        1.080 s           1.080 s
  | Density mixing & preconditioning           :        0.055 s           0.054 s
  | Hartree multipole update                   :        0.002 s           0.002 s
  | Hartree multipole summation                :        0.499 s           0.499 s
  | Integration                                :        0.694 s           0.694 s
  | Solution of K.-S. eqns.                    :        0.524 s           0.524 s
  | Total energy evaluation                    :        0.000 s           0.000 s

  Partial memory accounting:
  | Current value for overall tracked memory usage on task 0  :          10.756 MB
  | Peak value for overall tracked memory usage on task 0     :          13.740 MB after allocating wave
  | Largest tracked array allocation on task 0 so far         :           9.999 MB  when allocating +KS_eigenvector_complex
  Note:  These values currently only include a subset of arrays which are explicitly tracked.
  The "true" memory usage will be greater.
------------------------------------------------------------

------------------------------------------------------------
          Begin self-consistency iteration #    4

  Date     :  20190513, Time     :  134444.723
------------------------------------------------------------
  Evaluating new KS density using the density matrix
  Evaluating density matrix
  Time summed over all CPUs for getting density from density matrix: real work        1.134 s, elapsed        1.134 s
  Integration grid: deviation in total charge (<rho> - N_e) =   8.380852E-12
  Pulay mixing of updated and previous charge densities.

  Evaluating partitioned Hartree potential by multipole expansion.
  | Analytical far-field extrapolation by fixed multipoles:
  | Hartree multipole sum: apparent total charge =   0.615503E-02
  Summing up the Hartree potential.
  Time summed over all CPUs for potential: real work        0.503 s, elapsed        0.503 s
  | RMS charge density error from multipole expansion :   0.112337E-01
  | Average real-space part of the electrostatic potential :      0.31716132 eV

  Integrating Hamiltonian matrix: batch-based integration.
  Time summed over all CPUs for integration: real work        0.814 s, elapsed        0.814 s

  Updating Kohn-Sham eigenvalues, eigenvectors, occupation numbers, and Fermi level.
  Solving generalized eigenproblem

  Obtaining occupation numbers and chemical potential using ELSI.
  | Chemical potential (Fermi level):    -5.42650613eV
  What follows are estimated values for band gap, HOMO, LUMO, etc.
  | They are estimated on a discrete k-point grid and not necessarily exact.
  | For converged numbers, create a DOS and/or band structure plot on a denser k-grid.

  Highest occupied state (VBM) at     -5.85256197 eV (relative to internal zero)
  | Occupation number:      2.00000000
  | K-point:       1 at    0.000000    0.000000    0.000000 (in units of recip. lattice)

  Lowest unoccupied state (CBM) at    -5.38430147 eV (relative to internal zero)
  | Occupation number:      0.00000000
  | K-point:      48 at    0.000000    0.416667    0.416667 (in units of recip. lattice)

  ESTIMATED overall HOMO-LUMO gap:      0.46826049 eV between HOMO at k-point 1 and LUMO at k-point 48
  | This appears to be an indirect band gap.
  | Smallest direct gap :      2.57043393 eV for k_point 1 at    0.000000    0.416667    0.416667 (in units of recip. lattice)
  The gap value is above 0.2 eV. Unless you are using a very sparse k-point grid,
  this system is most likely an insulator or a semiconductor.

  Total energy components:
  | Sum of eigenvalues            :        -327.54811262 Ha       -8913.03763479 eV
  | XC energy correction          :         -39.73126166 Ha       -1081.14263761 eV
  | XC potential correction       :          52.49118453 Ha        1428.35780509 eV
  | Free-atom electrostatic energy:        -263.25570304 Ha       -7163.55215730 eV
  | Hartree energy correction     :          -0.69281899 Ha         -18.85256392 eV
  | Entropy correction            :          -0.00000000 Ha          -0.00000000 eV
  | ---------------------------
  | Total energy                  :        -578.73671178 Ha      -15748.22718853 eV
  | Total energy, T -> 0          :        -578.73671178 Ha      -15748.22718853 eV  <-- do not rely on this value for anything but (periodic) metals
  | Electronic free energy        :        -578.73671178 Ha      -15748.22718853 eV

  Derived energy quantities:
  | Kinetic energy                :         579.80252425 Ha       15777.22942136 eV
  | Electrostatic energy          :       -1118.80797437 Ha      -30444.31397228 eV
  | Energy correction for multipole
  | error in Hartree potential    :           0.01500029 Ha           0.40817877 eV
  | Sum of eigenvalues per atom                           :       -4456.51881739 eV
  | Total energy (T->0) per atom                          :       -7874.11359427 eV  <-- do not rely on this value for anything but (periodic) metals
  | Electronic free energy per atom                       :       -7874.11359427 eV

  Self-consistency convergence accuracy:
  | Change of charge density      :  0.1457E-01
  | Change of sum of eigenvalues  : -0.3223E+01 eV
  | Change of total energy        :  0.7770E-02 eV

  End self-consistency iteration #     4       :  max(cpu_time)    wall_clock(cpu1)
  | Time for this iteration                    :        3.114 s           3.113 s
  | Charge density update                      :        1.205 s           1.205 s
  | Density mixing & preconditioning           :        0.048 s           0.048 s
  | Hartree multipole update                   :        0.001 s           0.001 s
  | Hartree multipole summation                :        0.506 s           0.506 s
  | Integration                                :        0.814 s           0.814 s
  | Solution of K.-S. eqns.                    :        0.539 s           0.539 s
  | Total energy evaluation                    :        0.000 s           0.000 s

  Partial memory accounting:
  | Current value for overall tracked memory usage on task 0  :          10.757 MB
  | Peak value for overall tracked memory usage on task 0     :          13.740 MB after allocating wave
  | Largest tracked array allocation on task 0 so far         :           9.999 MB  when allocating +KS_eigenvector_complex
  Note:  These values currently only include a subset of arrays which are explicitly tracked.
  The "true" memory usage will be greater.
------------------------------------------------------------

------------------------------------------------------------
          Begin self-consistency iteration #    5

  Date     :  20190513, Time     :  134447.836
------------------------------------------------------------
  Evaluating new KS density using the density matrix
  Evaluating density matrix
  Time summed over all CPUs for getting density from density matrix: real work        1.132 s, elapsed        1.132 s
  Integration grid: deviation in total charge (<rho> - N_e) =   8.366641E-12
  Pulay mixing of updated and previous charge densities.

  Evaluating partitioned Hartree potential by multipole expansion.
  | Analytical far-field extrapolation by fixed multipoles:
  | Hartree multipole sum: apparent total charge =   0.513598E-02
  Summing up the Hartree potential.
  Time summed over all CPUs for potential: real work        0.442 s, elapsed        0.442 s
  | RMS charge density error from multipole expansion :   0.111921E-01
  | Average real-space part of the electrostatic potential :      0.31296405 eV

  Integrating Hamiltonian matrix: batch-based integration.
  Time summed over all CPUs for integration: real work        0.710 s, elapsed        0.710 s

  Updating Kohn-Sham eigenvalues, eigenvectors, occupation numbers, and Fermi level.
  Solving generalized eigenproblem

  Obtaining occupation numbers and chemical potential using ELSI.
  | Chemical potential (Fermi level):    -5.42970697eV
  What follows are estimated values for band gap, HOMO, LUMO, etc.
  | They are estimated on a discrete k-point grid and not necessarily exact.
  | For converged numbers, create a DOS and/or band structure plot on a denser k-grid.

  Highest occupied state (VBM) at     -5.86166300 eV (relative to internal zero)
  | Occupation number:      2.00000000
  | K-point:       1 at    0.000000    0.000000    0.000000 (in units of recip. lattice)

  Lowest unoccupied state (CBM) at    -5.38750121 eV (relative to internal zero)
  | Occupation number:      0.00000000
  | K-point:      48 at    0.000000    0.416667    0.416667 (in units of recip. lattice)

  ESTIMATED overall HOMO-LUMO gap:      0.47416178 eV between HOMO at k-point 1 and LUMO at k-point 48
  | This appears to be an indirect band gap.
  | Smallest direct gap :      2.57391670 eV for k_point 1 at    0.000000    0.416667    0.416667 (in units of recip. lattice)
  The gap value is above 0.2 eV. Unless you are using a very sparse k-point grid,
  this system is most likely an insulator or a semiconductor.

  Total energy components:
  | Sum of eigenvalues            :        -327.58634930 Ha       -8914.07810775 eV
  | XC energy correction          :         -39.72823880 Ha       -1081.06038139 eV
  | XC potential correction       :          52.48717821 Ha        1428.24878772 eV
  | Free-atom electrostatic energy:        -263.25570304 Ha       -7163.55215730 eV
  | Hartree energy correction     :          -0.65356114 Ha         -17.78430360 eV
  | Entropy correction            :          -0.00000000 Ha          -0.00000000 eV
  | ---------------------------
  | Total energy                  :        -578.73667407 Ha      -15748.22616232 eV
  | Total energy, T -> 0          :        -578.73667407 Ha      -15748.22616232 eV  <-- do not rely on this value for anything but (periodic) metals
  | Electronic free energy        :        -578.73667407 Ha      -15748.22616232 eV

  Derived energy quantities:
  | Kinetic energy                :         579.77487076 Ha       15776.47693160 eV
  | Electrostatic energy          :       -1118.78330603 Ha      -30443.64271253 eV
  | Energy correction for multipole
  | error in Hartree potential    :           0.01490726 Ha           0.40564710 eV
  | Sum of eigenvalues per atom                           :       -4457.03905388 eV
  | Total energy (T->0) per atom                          :       -7874.11308116 eV  <-- do not rely on this value for anything but (periodic) metals
  | Electronic free energy per atom                       :       -7874.11308116 eV

  Self-consistency convergence accuracy:
  | Change of charge density      :  0.8639E-02
  | Change of sum of eigenvalues  : -0.1040E+01 eV
  | Change of total energy        :  0.1026E-02 eV

  End self-consistency iteration #     5       :  max(cpu_time)    wall_clock(cpu1)
  | Time for this iteration                    :        2.983 s           2.983 s
  | Charge density update                      :        1.194 s           1.194 s
  | Density mixing & preconditioning           :        0.046 s           0.046 s
  | Hartree multipole update                   :        0.001 s           0.001 s
  | Hartree multipole summation                :        0.446 s           0.445 s
  | Integration                                :        0.711 s           0.711 s
  | Solution of K.-S. eqns.                    :        0.585 s           0.586 s
  | Total energy evaluation                    :        0.000 s           0.000 s

  Partial memory accounting:
  | Current value for overall tracked memory usage on task 0  :          10.757 MB
  | Peak value for overall tracked memory usage on task 0     :          13.740 MB after allocating wave
  | Largest tracked array allocation on task 0 so far         :           9.999 MB  when allocating +KS_eigenvector_complex
  Note:  These values currently only include a subset of arrays which are explicitly tracked.
  The "true" memory usage will be greater.
------------------------------------------------------------

------------------------------------------------------------
          Begin self-consistency iteration #    6

  Date     :  20190513, Time     :  134450.819
------------------------------------------------------------
  Evaluating new KS density using the density matrix
  Evaluating density matrix
  Time summed over all CPUs for getting density from density matrix: real work        1.079 s, elapsed        1.079 s
  Integration grid: deviation in total charge (<rho> - N_e) =   8.228085E-12
  Pulay mixing of updated and previous charge densities.

  Evaluating partitioned Hartree potential by multipole expansion.
  | Analytical far-field extrapolation by fixed multipoles:
  | Hartree multipole sum: apparent total charge =   0.510284E-02
  Summing up the Hartree potential.
  Time summed over all CPUs for potential: real work        0.451 s, elapsed        0.451 s
  | RMS charge density error from multipole expansion :   0.112176E-01
  | Average real-space part of the electrostatic potential :      0.31272360 eV

  Integrating Hamiltonian matrix: batch-based integration.
  Time summed over all CPUs for integration: real work        0.620 s, elapsed        0.620 s

  Updating Kohn-Sham eigenvalues, eigenvectors, occupation numbers, and Fermi level.
  Solving generalized eigenproblem

  Obtaining occupation numbers and chemical potential using ELSI.
  | Chemical potential (Fermi level):    -5.42964764eV
  What follows are estimated values for band gap, HOMO, LUMO, etc.
  | They are estimated on a discrete k-point grid and not necessarily exact.
  | For converged numbers, create a DOS and/or band structure plot on a denser k-grid.

  Highest occupied state (VBM) at     -5.86159314 eV (relative to internal zero)
  | Occupation number:      2.00000000
  | K-point:       1 at    0.000000    0.000000    0.000000 (in units of recip. lattice)

  Lowest unoccupied state (CBM) at    -5.38745989 eV (relative to internal zero)
  | Occupation number:      0.00000000
  | K-point:      48 at    0.000000    0.416667    0.416667 (in units of recip. lattice)

  ESTIMATED overall HOMO-LUMO gap:      0.47413325 eV between HOMO at k-point 1 and LUMO at k-point 48
  | This appears to be an indirect band gap.
  | Smallest direct gap :      2.57374304 eV for k_point 1 at    0.000000    0.416667    0.416667 (in units of recip. lattice)
  The gap value is above 0.2 eV. Unless you are using a very sparse k-point grid,
  this system is most likely an insulator or a semiconductor.

  Total energy components:
  | Sum of eigenvalues            :        -327.59157360 Ha       -8914.22026817 eV
  | XC energy correction          :         -39.72772737 Ha       -1081.04646479 eV
  | XC potential correction       :          52.48649931 Ha        1428.23031365 eV
  | Free-atom electrostatic energy:        -263.25570304 Ha       -7163.55215730 eV
  | Hartree energy correction     :          -0.64816523 Ha         -17.63747326 eV
  | Entropy correction            :          -0.00000000 Ha          -0.00000000 eV
  | ---------------------------
  | Total energy                  :        -578.73666994 Ha      -15748.22604987 eV
  | Total energy, T -> 0          :        -578.73666994 Ha      -15748.22604987 eV  <-- do not rely on this value for anything but (periodic) metals
  | Electronic free energy        :        -578.73666994 Ha      -15748.22604987 eV

  Derived energy quantities:
  | Kinetic energy                :         579.76699507 Ha       15776.26262340 eV
  | Electrostatic energy          :       -1118.77593764 Ha      -30443.44220848 eV
  | Energy correction for multipole
  | error in Hartree potential    :           0.01493119 Ha           0.40629830 eV
  | Sum of eigenvalues per atom                           :       -4457.11013408 eV
  | Total energy (T->0) per atom                          :       -7874.11302494 eV  <-- do not rely on this value for anything but (periodic) metals
  | Electronic free energy per atom                       :       -7874.11302494 eV

  Self-consistency convergence accuracy:
  | Change of charge density      :  0.6924E-02
  | Change of sum of eigenvalues  : -0.1422E+00 eV
  | Change of total energy        :  0.1124E-03 eV

  End self-consistency iteration #     6       :  max(cpu_time)    wall_clock(cpu1)
  | Time for this iteration                    :        2.780 s           2.781 s
  | Charge density update                      :        1.147 s           1.148 s
  | Density mixing & preconditioning           :        0.044 s           0.044 s
  | Hartree multipole update                   :        0.001 s           0.001 s
  | Hartree multipole summation                :        0.455 s           0.454 s
  | Integration                                :        0.619 s           0.620 s
  | Solution of K.-S. eqns.                    :        0.513 s           0.513 s
  | Total energy evaluation                    :        0.000 s           0.000 s

  Partial memory accounting:
  | Current value for overall tracked memory usage on task 0  :          10.757 MB
  | Peak value for overall tracked memory usage on task 0     :          13.740 MB after allocating wave
  | Largest tracked array allocation on task 0 so far         :           9.999 MB  when allocating +KS_eigenvector_complex
  Note:  These values currently only include a subset of arrays which are explicitly tracked.
  The "true" memory usage will be greater.
------------------------------------------------------------

------------------------------------------------------------
          Begin self-consistency iteration #    7

  Date     :  20190513, Time     :  134453.600
------------------------------------------------------------
  Evaluating new KS density using the density matrix
  Evaluating density matrix
  Time summed over all CPUs for getting density from density matrix: real work        1.004 s, elapsed        1.004 s
  Integration grid: deviation in total charge (<rho> - N_e) =   8.277823E-12
  Pulay mixing of updated and previous charge densities.

  Evaluating partitioned Hartree potential by multipole expansion.
  | Analytical far-field extrapolation by fixed multipoles:
  | Hartree multipole sum: apparent total charge =   0.512994E-02
  Summing up the Hartree potential.
  Time summed over all CPUs for potential: real work        0.432 s, elapsed        0.432 s
  | RMS charge density error from multipole expansion :   0.111803E-01
  | Average real-space part of the electrostatic potential :      0.30807709 eV

  Integrating Hamiltonian matrix: batch-based integration.
  Time summed over all CPUs for integration: real work        0.598 s, elapsed        0.598 s

  Updating Kohn-Sham eigenvalues, eigenvectors, occupation numbers, and Fermi level.
  Solving generalized eigenproblem

  Obtaining occupation numbers and chemical potential using ELSI.
  | Chemical potential (Fermi level):    -5.43142851eV
  What follows are estimated values for band gap, HOMO, LUMO, etc.
  | They are estimated on a discrete k-point grid and not necessarily exact.
  | For converged numbers, create a DOS and/or band structure plot on a denser k-grid.

  Highest occupied state (VBM) at     -5.86725124 eV (relative to internal zero)
  | Occupation number:      2.00000000
  | K-point:       1 at    0.000000    0.000000    0.000000 (in units of recip. lattice)

  Lowest unoccupied state (CBM) at    -5.38923740 eV (relative to internal zero)
  | Occupation number:      0.00000000
  | K-point:      48 at    0.000000    0.416667    0.416667 (in units of recip. lattice)

  ESTIMATED overall HOMO-LUMO gap:      0.47801384 eV between HOMO at k-point 1 and LUMO at k-point 48
  | This appears to be an indirect band gap.
  | Smallest direct gap :      2.57618437 eV for k_point 1 at    0.000000    0.416667    0.416667 (in units of recip. lattice)
  The gap value is above 0.2 eV. Unless you are using a very sparse k-point grid,
  this system is most likely an insulator or a semiconductor.

  Total energy components:
  | Sum of eigenvalues            :        -327.61483530 Ha       -8914.85325139 eV
  | XC energy correction          :         -39.72537588 Ha       -1080.98247756 eV
  | XC potential correction       :          52.48338555 Ha        1428.14558408 eV
  | Free-atom electrostatic energy:        -263.25570304 Ha       -7163.55215730 eV
  | Hartree energy correction     :          -0.62412435 Ha         -16.98328756 eV
  | Entropy correction            :          -0.00000000 Ha          -0.00000000 eV
  | ---------------------------
  | Total energy                  :        -578.73665303 Ha      -15748.22558973 eV
  | Total energy, T -> 0          :        -578.73665303 Ha      -15748.22558973 eV  <-- do not rely on this value for anything but (periodic) metals
  | Electronic free energy        :        -578.73665303 Ha      -15748.22558973 eV

  Derived energy quantities:
  | Kinetic energy                :         579.73930996 Ha       15775.50927306 eV
  | Electrostatic energy          :       -1118.75058710 Ha      -30442.75238523 eV
  | Energy correction for multipole
  | error in Hartree potential    :           0.01484953 Ha           0.40407633 eV
  | Sum of eigenvalues per atom                           :       -4457.42662569 eV
  | Total energy (T->0) per atom                          :       -7874.11279486 eV  <-- do not rely on this value for anything but (periodic) metals
  | Electronic free energy per atom                       :       -7874.11279486 eV

  Self-consistency convergence accuracy:
  | Change of charge density      :  0.6629E-02
  | Change of sum of eigenvalues  : -0.6330E+00 eV
  | Change of total energy        :  0.4601E-03 eV

  End self-consistency iteration #     7       :  max(cpu_time)    wall_clock(cpu1)
  | Time for this iteration                    :        2.653 s           2.653 s
  | Charge density update                      :        1.068 s           1.068 s
  | Density mixing & preconditioning           :        0.043 s           0.043 s
  | Hartree multipole update                   :        0.001 s           0.001 s
  | Hartree multipole summation                :        0.436 s           0.436 s
  | Integration                                :        0.598 s           0.598 s
  | Solution of K.-S. eqns.                    :        0.507 s           0.506 s
  | Total energy evaluation                    :        0.000 s           0.001 s

  Partial memory accounting:
  | Current value for overall tracked memory usage on task 0  :          10.757 MB
  | Peak value for overall tracked memory usage on task 0     :          13.740 MB after allocating wave
  | Largest tracked array allocation on task 0 so far         :           9.999 MB  when allocating +KS_eigenvector_complex
  Note:  These values currently only include a subset of arrays which are explicitly tracked.
  The "true" memory usage will be greater.
------------------------------------------------------------

------------------------------------------------------------
          Begin self-consistency iteration #    8

  Date     :  20190513, Time     :  134456.253
------------------------------------------------------------
  Evaluating new KS density using the density matrix
  Evaluating density matrix
  Time summed over all CPUs for getting density from density matrix: real work        1.001 s, elapsed        1.001 s
  Integration grid: deviation in total charge (<rho> - N_e) =   8.501644E-12
  Pulay mixing of updated and previous charge densities.

  Evaluating partitioned Hartree potential by multipole expansion.
  | Analytical far-field extrapolation by fixed multipoles:
  | Hartree multipole sum: apparent total charge =   0.533368E-02
  Summing up the Hartree potential.
  Time summed over all CPUs for potential: real work        0.442 s, elapsed        0.442 s
  | RMS charge density error from multipole expansion :   0.111367E-01
  | Average real-space part of the electrostatic potential :      0.29999203 eV

  Integrating Hamiltonian matrix: batch-based integration.
  Time summed over all CPUs for integration: real work        0.617 s, elapsed        0.617 s

  Updating Kohn-Sham eigenvalues, eigenvectors, occupation numbers, and Fermi level.
  Solving generalized eigenproblem

  Obtaining occupation numbers and chemical potential using ELSI.
  | Chemical potential (Fermi level):    -5.43408257eV
  What follows are estimated values for band gap, HOMO, LUMO, etc.
  | They are estimated on a discrete k-point grid and not necessarily exact.
  | For converged numbers, create a DOS and/or band structure plot on a denser k-grid.

  Highest occupied state (VBM) at     -5.87602834 eV (relative to internal zero)
  | Occupation number:      2.00000000
  | K-point:       1 at    0.000000    0.000000    0.000000 (in units of recip. lattice)

  Lowest unoccupied state (CBM) at    -5.39189315 eV (relative to internal zero)
  | Occupation number:      0.00000000
  | K-point:      48 at    0.000000    0.416667    0.416667 (in units of recip. lattice)

  ESTIMATED overall HOMO-LUMO gap:      0.48413519 eV between HOMO at k-point 1 and LUMO at k-point 48
  | This appears to be an indirect band gap.
  | Smallest direct gap :      2.57994188 eV for k_point 1 at    0.000000    0.416667    0.416667 (in units of recip. lattice)
  The gap value is above 0.2 eV. Unless you are using a very sparse k-point grid,
  this system is most likely an insulator or a semiconductor.

  Total energy components:
  | Sum of eigenvalues            :        -327.65339162 Ha       -8915.90242200 eV
  | XC energy correction          :         -39.72143529 Ha       -1080.87524861 eV
  | XC potential correction       :          52.47816772 Ha        1428.00359967 eV
  | Free-atom electrostatic energy:        -263.25570304 Ha       -7163.55215730 eV
  | Hartree energy correction     :          -0.58426809 Ha         -15.89874370 eV
  | Entropy correction            :          -0.00000000 Ha          -0.00000000 eV
  | ---------------------------
  | Total energy                  :        -578.73663032 Ha      -15748.22497194 eV
  | Total energy, T -> 0          :        -578.73663032 Ha      -15748.22497194 eV  <-- do not rely on this value for anything but (periodic) metals
  | Electronic free energy        :        -578.73663032 Ha      -15748.22497194 eV

  Derived energy quantities:
  | Kinetic energy                :         579.69196826 Ha       15774.22103986 eV
  | Electrostatic energy          :       -1118.70716329 Ha      -30441.57076319 eV
  | Energy correction for multipole
  | error in Hartree potential    :           0.01473704 Ha           0.40101526 eV
  | Sum of eigenvalues per atom                           :       -4457.95121100 eV
  | Total energy (T->0) per atom                          :       -7874.11248597 eV  <-- do not rely on this value for anything but (periodic) metals
  | Electronic free energy per atom                       :       -7874.11248597 eV

  Self-consistency convergence accuracy:
  | Change of charge density      :  0.5207E-02
  | Change of sum of eigenvalues  : -0.1049E+01 eV
  | Change of total energy        :  0.6178E-03 eV

  End self-consistency iteration #     8       :  max(cpu_time)    wall_clock(cpu1)
  | Time for this iteration                    :        2.706 s           2.706 s
  | Charge density update                      :        1.069 s           1.069 s
  | Density mixing & preconditioning           :        0.046 s           0.046 s
  | Hartree multipole update                   :        0.001 s           0.001 s
  | Hartree multipole summation                :        0.446 s           0.445 s
  | Integration                                :        0.617 s           0.617 s
  | Solution of K.-S. eqns.                    :        0.527 s           0.527 s
  | Total energy evaluation                    :        0.000 s           0.001 s

  Partial memory accounting:
  | Current value for overall tracked memory usage on task 0  :          10.758 MB
  | Peak value for overall tracked memory usage on task 0     :          13.740 MB after allocating wave
  | Largest tracked array allocation on task 0 so far         :           9.999 MB  when allocating +KS_eigenvector_complex
  Note:  These values currently only include a subset of arrays which are explicitly tracked.
  The "true" memory usage will be greater.
------------------------------------------------------------

------------------------------------------------------------
          Begin self-consistency iteration #    9

  Date     :  20190513, Time     :  134458.959
------------------------------------------------------------
  Evaluating new KS density using the density matrix
  Evaluating density matrix
  Time summed over all CPUs for getting density from density matrix: real work        0.994 s, elapsed        0.994 s
  Integration grid: deviation in total charge (<rho> - N_e) =   8.480328E-12
  Pulay mixing of updated and previous charge densities.

  Evaluating partitioned Hartree potential by multipole expansion.
  | Analytical far-field extrapolation by fixed multipoles:
  | Hartree multipole sum: apparent total charge =   0.535359E-02
  Summing up the Hartree potential.
  Time summed over all CPUs for potential: real work        0.435 s, elapsed        0.435 s
  | RMS charge density error from multipole expansion :   0.111239E-01
  | Average real-space part of the electrostatic potential :      0.29822123 eV

  Integrating Hamiltonian matrix: batch-based integration.
  Time summed over all CPUs for integration: real work        0.596 s, elapsed        0.596 s

  Updating Kohn-Sham eigenvalues, eigenvectors, occupation numbers, and Fermi level.
  Solving generalized eigenproblem

  Obtaining occupation numbers and chemical potential using ELSI.
  | Chemical potential (Fermi level):    -5.43472846eV
  What follows are estimated values for band gap, HOMO, LUMO, etc.
  | They are estimated on a discrete k-point grid and not necessarily exact.
  | For converged numbers, create a DOS and/or band structure plot on a denser k-grid.

  Highest occupied state (VBM) at     -5.87810821 eV (relative to internal zero)
  | Occupation number:      2.00000000
  | K-point:       1 at    0.000000    0.000000    0.000000 (in units of recip. lattice)

  Lowest unoccupied state (CBM) at    -5.39253806 eV (relative to internal zero)
  | Occupation number:      0.00000000
  | K-point:      48 at    0.000000    0.416667    0.416667 (in units of recip. lattice)

  ESTIMATED overall HOMO-LUMO gap:      0.48557016 eV between HOMO at k-point 1 and LUMO at k-point 48
  | This appears to be an indirect band gap.
  | Smallest direct gap :      2.58083908 eV for k_point 1 at    0.000000    0.416667    0.416667 (in units of recip. lattice)
  The gap value is above 0.2 eV. Unless you are using a very sparse k-point grid,
  this system is most likely an insulator or a semiconductor.

  Total energy components:
  | Sum of eigenvalues            :        -327.66203763 Ha       -8916.13769193 eV
  | XC energy correction          :         -39.72055883 Ha       -1080.85139886 eV
  | XC potential correction       :          52.47700712 Ha        1427.97201813 eV
  | Free-atom electrostatic energy:        -263.25570304 Ha       -7163.55215730 eV
  | Hartree energy correction     :          -0.57533388 Ha         -15.65563138 eV
  | Entropy correction            :          -0.00000000 Ha          -0.00000000 eV
  | ---------------------------
  | Total energy                  :        -578.73662626 Ha      -15748.22486134 eV
  | Total energy, T -> 0          :        -578.73662626 Ha      -15748.22486134 eV  <-- do not rely on this value for anything but (periodic) metals
  | Electronic free energy        :        -578.73662626 Ha      -15748.22486134 eV

  Derived energy quantities:
[...]
  | Total energy evaluation                    :        0.000 s           0.000 s

  Partial memory accounting:
  | Current value for overall tracked memory usage on task 0  :          10.758 MB
  | Peak value for overall tracked memory usage on task 0     :          13.740 MB after allocating wave
  | Largest tracked array allocation on task 0 so far         :           9.999 MB  when allocating +KS_eigenvector_complex
  Note:  These values currently only include a subset of arrays which are explicitly tracked.
  The "true" memory usage will be greater.
------------------------------------------------------------

------------------------------------------------------------
          Begin self-consistency iteration #   11

  Date     :  20190513, Time     :  134504.275
------------------------------------------------------------
  Evaluating new KS density using the density matrix
  Evaluating density matrix
  Time summed over all CPUs for getting density from density matrix: real work        0.979 s, elapsed        0.979 s
  Integration grid: deviation in total charge (<rho> - N_e) =   8.384404E-12
  Pulay mixing of updated and previous charge densities.

  Evaluating partitioned Hartree potential by multipole expansion.
  | Analytical far-field extrapolation by fixed multipoles:
  | Hartree multipole sum: apparent total charge =   0.533544E-02
  Summing up the Hartree potential.
  Time summed over all CPUs for potential: real work        0.438 s, elapsed        0.438 s
  | RMS charge density error from multipole expansion :   0.110816E-01
  | Average real-space part of the electrostatic potential :      0.29129659 eV

  Integrating Hamiltonian matrix: batch-based integration.
  Time summed over all CPUs for integration: real work        0.593 s, elapsed        0.593 s

  Updating Kohn-Sham eigenvalues, eigenvectors, occupation numbers, and Fermi level.
  Solving generalized eigenproblem

  Obtaining occupation numbers and chemical potential using ELSI.
  | Chemical potential (Fermi level):    -5.43734143eV
  What follows are estimated values for band gap, HOMO, LUMO, etc.
  | They are estimated on a discrete k-point grid and not necessarily exact.
  | For converged numbers, create a DOS and/or band structure plot on a denser k-grid.

  Highest occupied state (VBM) at     -5.88645894 eV (relative to internal zero)
  | Occupation number:      2.00000000
  | K-point:       1 at    0.000000    0.000000    0.000000 (in units of recip. lattice)

  Lowest unoccupied state (CBM) at    -5.39514494 eV (relative to internal zero)
  | Occupation number:      0.00000000
  | K-point:      48 at    0.000000    0.416667    0.416667 (in units of recip. lattice)

  ESTIMATED overall HOMO-LUMO gap:      0.49131399 eV between HOMO at k-point 1 and LUMO at k-point 48
  | This appears to be an indirect band gap.
  | Smallest direct gap :      2.58437354 eV for k_point 1 at    0.000000    0.416667    0.416667 (in units of recip. lattice)
  The gap value is above 0.2 eV. Unless you are using a very sparse k-point grid,
  this system is most likely an insulator or a semiconductor.

  Total energy components:
  | Sum of eigenvalues            :        -327.69846435 Ha       -8917.12891351 eV
  | XC energy correction          :         -39.71691470 Ha       -1080.75223709 eV
  | XC potential correction       :          52.47218045 Ha        1427.84067783 eV
  | Free-atom electrostatic energy:        -263.25570304 Ha       -7163.55215730 eV
  | Hartree energy correction     :          -0.53771100 Ha         -14.63186070 eV
  | Entropy correction            :          -0.00000000 Ha          -0.00000000 eV
  | ---------------------------
  | Total energy                  :        -578.73661264 Ha      -15748.22449077 eV
  | Total energy, T -> 0          :        -578.73661264 Ha      -15748.22449077 eV  <-- do not rely on this value for anything but (periodic) metals
  | Electronic free energy        :        -578.73661264 Ha      -15748.22449077 eV

  Derived energy quantities:
  | Kinetic energy                :         579.63689443 Ha       15772.72240467 eV
  | Electrostatic energy          :       -1118.65659237 Ha      -30440.19465835 eV
  | Energy correction for multipole
  | error in Hartree potential    :           0.01459886 Ha           0.39725512 eV
  | Sum of eigenvalues per atom                           :       -4458.56445675 eV
  | Total energy (T->0) per atom                          :       -7874.11224538 eV  <-- do not rely on this value for anything but (periodic) metals
  | Electronic free energy per atom                       :       -7874.11224538 eV

  Self-consistency convergence accuracy:
  | Change of charge density      :  0.1623E-05
  | Change of sum of eigenvalues  : -0.4213E-03 eV
  | Change of total energy        :  0.1242E-06 eV

  End self-consistency iteration #    11       :  max(cpu_time)    wall_clock(cpu1)
  | Time for this iteration                    :        2.629 s           2.628 s
  | Charge density update                      :        1.042 s           1.041 s
  | Density mixing & preconditioning           :        0.045 s           0.045 s
  | Hartree multipole update                   :        0.001 s           0.000 s
  | Hartree multipole summation                :        0.442 s           0.442 s
  | Integration                                :        0.592 s           0.593 s
  | Solution of K.-S. eqns.                    :        0.507 s           0.507 s
  | Total energy evaluation                    :        0.000 s           0.000 s

  Partial memory accounting:
  | Current value for overall tracked memory usage on task 0  :          10.758 MB
  | Peak value for overall tracked memory usage on task 0     :          13.740 MB after allocating wave
  | Largest tracked array allocation on task 0 so far         :           9.999 MB  when allocating +KS_eigenvector_complex
  Note:  These values currently only include a subset of arrays which are explicitly tracked.
  The "true" memory usage will be greater.
------------------------------------------------------------

------------------------------------------------------------
          Begin self-consistency iteration #   12

  Date     :  20190513, Time     :  134506.903
------------------------------------------------------------
  Evaluating new KS density using the density matrix
  Evaluating density matrix
  Time summed over all CPUs for getting density from density matrix: real work        1.015 s, elapsed        1.015 s
  Integration grid: deviation in total charge (<rho> - N_e) =   8.302692E-12
  Pulay mixing of updated and previous charge densities.

  Evaluating partitioned Hartree potential by multipole expansion.
  | Analytical far-field extrapolation by fixed multipoles:
  | Hartree multipole sum: apparent total charge =   0.533561E-02
  Summing up the Hartree potential.
  Time summed over all CPUs for potential: real work        0.448 s, elapsed        0.448 s
  | RMS charge density error from multipole expansion :   0.110816E-01
  | Average real-space part of the electrostatic potential :      0.29129500 eV

  Integrating Hamiltonian matrix: batch-based integration.
  Time summed over all CPUs for integration: real work        0.630 s, elapsed        0.630 s

  Updating Kohn-Sham eigenvalues, eigenvectors, occupation numbers, and Fermi level.
  Solving generalized eigenproblem

  Obtaining occupation numbers and chemical potential using ELSI.
  | Chemical potential (Fermi level):    -5.43734302eV
  What follows are estimated values for band gap, HOMO, LUMO, etc.
  | They are estimated on a discrete k-point grid and not necessarily exact.
  | For converged numbers, create a DOS and/or band structure plot on a denser k-grid.

  Highest occupied state (VBM) at     -5.88645993 eV (relative to internal zero)
  | Occupation number:      2.00000000
  | K-point:       1 at    0.000000    0.000000    0.000000 (in units of recip. lattice)

  Lowest unoccupied state (CBM) at    -5.39514542 eV (relative to internal zero)
  | Occupation number:      0.00000000
  | K-point:      48 at    0.000000    0.416667    0.416667 (in units of recip. lattice)

  ESTIMATED overall HOMO-LUMO gap:      0.49131451 eV between HOMO at k-point 1 and LUMO at k-point 48
  | This appears to be an indirect band gap.
  | Smallest direct gap :      2.58437404 eV for k_point 1 at    0.000000    0.416667    0.416667 (in units of recip. lattice)
  The gap value is above 0.2 eV. Unless you are using a very sparse k-point grid,
  this system is most likely an insulator or a semiconductor.

  Total energy components:
  | Sum of eigenvalues            :        -327.69847072 Ha       -8917.12908692 eV
  | XC energy correction          :         -39.71691378 Ha       -1080.75221200 eV
  | XC potential correction       :          52.47217923 Ha        1427.84064460 eV
  | Free-atom electrostatic energy:        -263.25570304 Ha       -7163.55215730 eV
  | Hartree energy correction     :          -0.53770433 Ha         -14.63167921 eV
  | Entropy correction            :          -0.00000000 Ha          -0.00000000 eV
  | ---------------------------
  | Total energy                  :        -578.73661264 Ha      -15748.22449082 eV
  | Total energy, T -> 0          :        -578.73661264 Ha      -15748.22449082 eV  <-- do not rely on this value for anything but (periodic) metals
  | Electronic free energy        :        -578.73661264 Ha      -15748.22449082 eV

  Derived energy quantities:
  | Kinetic energy                :         579.63688420 Ha       15772.72212638 eV
  | Electrostatic energy          :       -1118.65658306 Ha      -30440.19440520 eV
  | Energy correction for multipole
  | error in Hartree potential    :           0.01459879 Ha           0.39725336 eV
  | Sum of eigenvalues per atom                           :       -4458.56454346 eV
  | Total energy (T->0) per atom                          :       -7874.11224541 eV  <-- do not rely on this value for anything but (periodic) metals
  | Electronic free energy per atom                       :       -7874.11224541 eV

  Self-consistency convergence accuracy:
  | Change of charge density      :  0.6097E-06
  | Change of sum of eigenvalues  : -0.1734E-03 eV
  | Change of total energy        : -0.5462E-07 eV

  Preliminary charge convergence reached. Turning off preconditioner.

  Writing Kohn-Sham eigenvalues.
  K-point:       1 at    0.000000    0.000000    0.000000 (in units of recip. lattice)

  State    Occupation    Eigenvalue [Ha]    Eigenvalue [eV]
      1       2.00000         -65.488905        -1782.04378
      2       2.00000         -65.488905        -1782.04378
      3       2.00000          -5.096854         -138.69246
      4       2.00000          -5.096529         -138.68361
      5       2.00000          -3.510263          -95.51911
      6       2.00000          -3.510263          -95.51911
      7       2.00000          -3.510263          -95.51911
      8       2.00000          -3.509585          -95.50068
      9       2.00000          -3.509585          -95.50068
     10       2.00000          -3.509585          -95.50068
     11       2.00000          -0.660261          -17.96663
     12       2.00000          -0.216323           -5.88646
     13       2.00000          -0.216323           -5.88646
     14       2.00000          -0.216323           -5.88646
     15       0.00000          -0.121349           -3.30209
     16       0.00000          -0.121349           -3.30209
     17       0.00000          -0.121349           -3.30209
     18       0.00000          -0.086755           -2.36072
     19       0.00000           0.073917            2.01139
     20       0.00000           0.073917            2.01139

  What follows are estimated values for band gap, HOMO, LUMO, etc.
  | They are estimated on a discrete k-point grid and not necessarily exact.
  | For converged numbers, create a DOS and/or band structure plot on a denser k-grid.

  Highest occupied state (VBM) at     -5.88645993 eV (relative to internal zero)
  | Occupation number:      2.00000000
  | K-point:       1 at    0.000000    0.000000    0.000000 (in units of recip. lattice)

  Lowest unoccupied state (CBM) at    -5.39514542 eV (relative to internal zero)
  | Occupation number:      0.00000000
  | K-point:      48 at    0.000000    0.416667    0.416667 (in units of recip. lattice)

  ESTIMATED overall HOMO-LUMO gap:      0.49131451 eV between HOMO at k-point 1 and LUMO at k-point 48
  | This appears to be an indirect band gap.
  | Smallest direct gap :      2.58437404 eV for k_point 1 at    0.000000    0.416667    0.416667 (in units of recip. lattice)
  The gap value is above 0.2 eV. Unless you are using a very sparse k-point grid,
  this system is most likely an insulator or a semiconductor.

  Self-consistency cycle converged.

  End self-consistency iteration #    12       :  max(cpu_time)    wall_clock(cpu1)
  | Time for this iteration                    :        2.726 s           2.726 s
  | Charge density update                      :        1.077 s           1.078 s
  | Density mixing                             :        0.045 s           0.045 s
  | Hartree multipole update                   :        0.001 s           0.000 s
  | Hartree multipole summation                :        0.452 s           0.452 s
  | Integration                                :        0.630 s           0.630 s
  | Solution of K.-S. eqns.                    :        0.521 s           0.521 s
  | Total energy evaluation                    :        0.000 s           0.000 s

  Partial memory accounting:
  | Current value for overall tracked memory usage on task 0  :          10.758 MB
  | Peak value for overall tracked memory usage on task 0     :          13.740 MB after allocating wave
  | Largest tracked array allocation on task 0 so far         :           9.999 MB  when allocating +KS_eigenvector_complex
  Note:  These values currently only include a subset of arrays which are explicitly tracked.
  The "true" memory usage will be greater.
------------------------------------------------------------

  Energy and forces in a compact form:
  | Total energy uncorrected      :         -0.157482244908210E+05 eV
  | Total energy corrected        :         -0.157482244908210E+05 eV  <-- do not rely on this value for anything but (periodic) metals
  | Electronic free energy        :         -0.157482244908210E+05 eV

  ------------------------------------ 
  Start decomposition of the XC Energy 
  ------------------------------------ 
  X and C from original XC functional choice 
  Hartree-Fock Energy :          0.000000000 Ha              0.000000000 eV
  X Energy            :        -37.570797544 Ha          -1022.353417945 eV
  C Energy            :         -2.146116235 Ha            -58.398794052 eV
  Total XC Energy     :        -39.716913779 Ha          -1080.752211997 eV
  ------------------------------------ 
  LDA X and C from self-consistent density 
  X Energy LDA        :        -37.570797544 Ha          -1022.353417945 eV
  C Energy LDA        :         -2.146116235 Ha            -58.398794052 eV
  ------------------------------------ 
  End decomposition of the XC Energy 
  ------------------------------------ 

------------------------------------------------------------

------------------------------------------------------------------------------
  Final output of selected total energy values:

  The following output summarizes some interesting total energy values
  at the end of a run (AFTER all relaxation, molecular dynamics, etc.).

  | Total energy of the DFT / Hartree-Fock s.c.f. calculation      :         -15748.224490821 eV
  | Final zero-broadening corrected energy (caution - metals only) :         -15748.224490821 eV
  | For reference only, the value of 1 Hartree used in FHI-aims is :             27.211384500 eV

  Before relying on these values, please be sure to understand exactly which
  total energy value is referred to by a given number. Different objects may
  all carry the same name 'total energy'. Definitions:

  Total energy of the DFT / Hartree-Fock s.c.f. calculation:
  | Note that this energy does not include ANY quantities calculated after the
  | s.c.f. cycle, in particular not ANY RPA, MP2, etc. many-body perturbation terms.

  Final zero-broadening corrected energy:
  | For metallic systems only, a broadening of the occupation numbers at the Fermi
  | level can be extrapolated back to zero broadening by an electron-gas inspired
  | formula. For all systems that are not real metals, this value can be
  | meaningless and should be avoided.

------------------------------------------------------------------------------
  Methods described in the following list of references were used in this FHI-aims run.
  If you publish the results, please make sure to cite these reference if they apply.
  FHI-aims is an academic code, and for our developers (often, Ph.D. students
  and postdocs), scientific credit in the community is essential.
  Thank you for helping us!

  For any use of FHI-aims, please cite:

    Volker Blum, Ralf Gehrke, Felix Hanke, Paula Havu, Ville Havu,
    Xinguo Ren, Karsten Reuter, and Matthias Scheffler
    'Ab initio molecular simulations with numeric atom-centered orbitals'
    Computer Physics Communications 180, 2175-2196 (2009)
    http://dx.doi.org/10.1016/j.cpc.2009.06.022


  For the real-space grid partitioning and parallelization used in this calculation, please cite:

    Ville Havu, Volker Blum, Paula Havu, and Matthias Scheffler,
    'Efficient O(N) integration for all-electron electronic structure calculation'
    'using numerically tabulated basis functions'
    Journal of Computational Physics 228, 8367-8379 (2009).
    http://dx.doi.org/10.1016/j.jcp.2009.08.008

  Of course, there are many other important community references, e.g., those cited in the
  above references. Our list is limited to references that describe implementations in the
  FHI-aims code. The reason is purely practical (length of this list) - please credit others as well.

------------------------------------------------------------
          Leaving FHI-aims.
          Date     :  20190513, Time     :  134509.637

          Computational steps:
          | Number of self-consistency cycles          :           12
          | Number of SCF (re)initializations          :            1

          Detailed time accounting                     :  max(cpu_time)    wall_clock(cpu1)
          | Total time                                 :       35.783 s          35.783 s
          | Preparation time                           :        0.093 s           0.094 s
          | Boundary condition initalization           :        0.040 s           0.040 s
          | Grid partitioning                          :        0.031 s           0.031 s
          | Preloading free-atom quantities on grid    :        0.001 s           0.001 s
          | Free-atom superposition energy             :        0.030 s           0.030 s
          | Total time for integrations                :        8.891 s           8.894 s
          | Total time for solution of K.-S. equations :        7.380 s           7.378 s
          | Total time for density update              :       13.166 s          13.166 s
          | Total time for mixing & preconditioning    :        0.559 s           0.559 s
          | Total time for Hartree multipole update    :        0.010 s           0.010 s
          | Total time for Hartree multipole sum       :        5.409 s           5.407 s
          | Total time for total energy evaluation     :        0.003 s           0.002 s
          | Total time for scaled ZORA corrections     :        0.000 s           0.000 s

 This is a stub MPI_ALLREDUCE call.
 You should not be here. Check your
 setting on the use_mpi variable, or
 link against true MPI-libraries.
