------------------------------------------------------------
          Invoking FHI-aims ...
          Version 171221_1
          Compiled on 2019/05/06 at 14:26:40 on host ffph0xx.

          When using FHI-aims, please cite the following reference:

          Volker Blum, Ralf Gehrke, Felix Hanke, Paula Havu,
          Ville Havu, Xinguo Ren, Karsten Reuter, and Matthias Scheffler,
          'Ab Initio Molecular Simulations with Numeric Atom-Centered Orbitals',
          Computer Physics Communications 180, 2175-2196 (2009)

          For any questions about FHI-aims, please visit the aimsclub website
          with its forums and wiki. Contributions to both the forums and the
          wiki are warmly encouraged - they are for you, and everyone is welcome there.

------------------------------------------------------------



  Date     :  20190514, Time     :  124214.846
  Time zero on CPU 1             :   0.699000000000000E-03  s.
  Internal wall clock time zero  :           327069734.846  s.

  FHI-aims created a unique identifier for this run for later identification
  aims_uuid : A4BC4395-3CE2-4F74-A272-3DCAFAF018DE


  Performing system and environment tests:
  *** Environment variable OMP_NUM_THREADS is not set
  *** For performance reasons you might want to set it to 1
  | Stacksize not measured: no C compiler

  Obtaining array dimensions for all initial allocations:
  
  -----------------------------------------------------------------------
  Parsing control.in (first pass over file, find array dimensions only).
  The contents of control.in will be repeated verbatim below
  unless switched off by setting 'verbatim_writeout .false.' .
  in the first line of control.in .
  -----------------------------------------------------------------------
  
  #--- method ---
  xc pw-lda
  spin none
  relativistic atomic_zora scalar
  #---
  
  #--- k-grid settings ---
  k_grid 12 12 12
  #---
  
  
  
  
  
  
  
  
  
  
  
  #-------------------------------------------------------------------------------
  #--- Species defaults for Si
  #-------------------------------------------------------------------------------
  
  ################################################################################
  #
  #  FHI-aims code project
  #  VB, Fritz-Haber Institut, 2009
  #
  #  Suggested "light" defaults for Si atom (to be pasted into control.in file)
  #  Be sure to double-check any results obtained with these settings for post-processing,
  #  e.g., with the "tight" defaults and larger basis sets.
  #
  ################################################################################
    species        Si
  #     global species definitions
      nucleus             14
      mass                28.0855
  #
      l_hartree           4
  #
      cut_pot             3.5          1.5  1.0
      basis_dep_cutoff    1e-4
  #
      radial_base         42 5.0
      radial_multiplier   1
      angular_grids       specified
        division   0.5866   50
        division   0.9616  110
        division   1.2249  194
        division   1.3795  302
  #      division   1.4810  434
  #      division   1.5529  590
  #      division   1.6284  770
  #      division   1.7077  974
  #      division   2.4068 1202
  #      outer_grid   974
        outer_grid 302
  ################################################################################
  #
  #  Definition of "minimal" basis
  #
  ################################################################################
  #     valence basis states
      valence      3  s   2.
      valence      3  p   2.
  #     ion occupancy
      ion_occ      3  s   1.
      ion_occ      3  p   1.
  ################################################################################
  #
  #  Suggested additional basis functions. For production calculations,
  #  uncomment them one after another (the most important basis functions are
  #  listed first).
  #
  #  Constructed for dimers: 1.75 A, 2.0 A, 2.25 A, 2.75 A, 3.75 A
  #
  ################################################################################
  #  "First tier" - improvements: -571.96 meV to -37.03 meV
       hydro 3 d 4.2
       hydro 2 p 1.4
  #     hydro 4 f 6.2
       ionic 3 s auto
  #  "Second tier" - improvements: -16.76 meV to -3.03 meV
  #     hydro 3 d 9
  #     hydro 5 g 9.4
  #     hydro 4 p 4
  #     hydro 1 s 0.65
  #  "Third tier" - improvements: -3.89 meV to -0.60 meV
  #     ionic 3 d auto
  #     hydro 3 s 2.6
  #     hydro 4 f 8.4
  #     hydro 3 d 3.4
  #     hydro 3 p 7.8
  #  "Fourth tier" - improvements: -0.33 meV to -0.11 meV
  #     hydro 2 p 1.6
  #     hydro 5 g 10.8
  #     hydro 5 f 11.2
  #     hydro 3 d 1
  #     hydro 4 s 4.5
  #  Further basis functions that fell out of the optimization - noise
  #  level... < -0.08 meV
  #     hydro 4 d 6.6
  #     hydro 5 g 16.4
  #     hydro 4 d 9
  
  -----------------------------------------------------------------------
  Completed first pass over input file control.in .
  -----------------------------------------------------------------------
  
  
  -----------------------------------------------------------------------
  Parsing geometry.in (first pass over file, find array dimensions only).
  The contents of geometry.in will be repeated verbatim below
  unless switched off by setting 'verbatim_writeout .false.' .
  in the first line of geometry.in .
  -----------------------------------------------------------------------
  
  lattice_vector   0.000000   3.200000   3.200000
  lattice_vector   3.200000   0.000000   3.200000
  lattice_vector   3.200000   3.200000   0.000000
  atom_frac   0.000000   0.000000   0.000000 Si
  atom_frac   0.250000   0.250000   0.250000 Si
  
  -----------------------------------------------------------------------
  Completed first pass over input file geometry.in .
  -----------------------------------------------------------------------
  

  Basic array size parameters:
  | Number of species                 :        1
  | Number of atoms                   :        2
  | Number of lattice vectors         :        3
  | Max. basis fn. angular momentum   :        2
  | Max. atomic/ionic basis occupied n:        3
  | Max. number of basis fn. types    :        3
  | Max. radial fns per species/type  :        5
  | Max. logarithmic grid size        :     1346
  | Max. radial integration grid size :       42
  | Max. angular integration grid size:      302
  | Max. angular grid division number :        8
  | Radial grid for Hartree potential :     1346
  | Number of spin channels           :        1

------------------------------------------------------------
          Reading file control.in.
------------------------------------------------------------
  XC: Using Perdew-Wang parametrisation of Ceperley-Alder LDA.
  Spin treatment: No spin polarisation.
  Scalar relativistic treatment of kinetic energy: on-site free-atom approximation to ZORA.
  Found k-point grid:        12        12        12

  Reading configuration options for species Si                  .
  | Found nuclear charge :  14.0000
  | Found atomic mass :    28.085500000000000      amu
  | Found l_max for Hartree potential  :   4
  | Found cutoff potl. onset [A], width [A], scale factor :    3.50000    1.50000    1.00000
  | Threshold for basis-dependent cutoff potential is   0.100000E-03
  | Found data for basic radial integration grid :    42 points, outermost radius =    5.000 A
  | Found multiplier for basic radial grid :   1
  | Found angular grid specification: user-specified.
  | Specified grid contains     5 separate shells.
  | Check grid settings after all constraints further below.
  | Found free-atom valence shell :  3 s   2.000
  | Found free-atom valence shell :  3 p   2.000
  | Found free-ion valence shell :  3 s   1.000
  | Found free-ion valence shell :  3 p   1.000
  | Found hydrogenic basis function :  3 d   4.200
  | Found hydrogenic basis function :  2 p   1.400
  | Found ionic basis function :  3 s , default cutoff radius.
  Species Si                  : Missing cutoff potential type.
  Defaulting to exp(1/x)/(1-x)^2 type cutoff potential.
  Species Si: No 'logarithmic' tag. Using default grid for free atom:
  | Default logarithmic grid data [bohr] : 0.1000E-03 0.1000E+03 0.1012E+01
  | Will include ionic basis functions of  2.0-fold positive Si                   ion.
  Species Si: On-site basis accuracy parameter (for Gram-Schmidt orthonormalisation) not specified.
  Using default value basis_acc =  0.1000000E-03.
  Species Si                  : Using default innermost maximum threshold i_radial=  2 for radial functions.
  Species Si                  : Default cutoff onset for free atom density etc. : 0.35000000E+01 AA.
  Species Si                  : Basic radial grid will be enhanced according to radial_multiplier =   1, to contain    42 grid points.

  Finished reading input file 'control.in'. Consistency checks are next.

  MPI_IN_PLACE appears to work with this MPI implementation.
  | Keeping use_mpi_in_place .true. (see manual).
  Target number of points in a grid batch is not set. Defaulting to  100
  Method for grid partitioning is not set. Defaulting to 'maxmin' partitioning.
  Batch size limit is not set. Defaulting to    200
  By default, will store active basis functions for each batch.
  If in need of memory, prune_basis_once .false. can be used to disable this option.
  communication_type for Hartree potential was not specified.
  Defaulting to calc_hartree .
 * Attention: 
 * You may want to set distributed_spline_storage to .true. in order to save memory.
 * This doesn't harm performance and is perfectly ok unless:
 * - you get error messages in postprocessing (about missing atoms in get_rho_multipole_spl)
 * - you need full spline storage in hirshfeld_analysis
  Defaulting to Pulay charge density mixer.
  Pulay mixer: Number of relevant iterations not set.
  Defaulting to    8 iterations.
  Pulay mixer: Number of initial linear mixing iterations not set.
  Defaulting to    0 iterations.
  Work space size for distributed Hartree potential not set.
  Defaulting to   0.200000E+03 MB.
  Mixing parameter for charge density mixing has not been set.
  Using default: charge_mix_param =     0.0500.
  The mixing parameter will be adjusted in iteration number     2 of the first full s.c.f. cycle only.
  Algorithm-dependent basis array size parameters:
  | n_max_pulay                         :        8
 * Notice: The s.c.f. convergence criterion sc_accuracy_rho was not provided.
 * We used to stop in this case, and ask the user to provide reasonable
 * scf convergence criteria. However, this led some users to employ criteria
 * that led to extremely long run times, e.g., for simple relaxation.
 * We now preset a default value for sc_accuracy_rho if it is not set.
 * You may still wish to check if this setting is too tight or too loose for your needs.
 * Based on n_atoms, FHI-aims chose sc_accuracy_rho =  0.100000E-05 .
  Maximum number of self-consistency iterations not provided.
  Presetting  1000 iterations.
  Presetting      1001 iterations before the initial mixing cycle
  is restarted anyway using the sc_init_iter criterion / keyword.
  Presetting a factor      1.000 between actual scf density residual
  and density convergence criterion sc_accuracy_rho below which sc_init_iter
  takes no effect.
 * No s.c.f. convergence criteria (sc_accuracy_*) were provided in control.in.
 * The run will proceed with a reasonable default guess, but please check whether.
 * the s.c.f. cycles seem to take too much or too little time.
  Calculation of forces was not defined in control.in. No forces will be calculated.
  Geometry relaxation not requested: no relaxation will be performed.
  No accuracy limit for integral partition fn. given. Defaulting to  0.1000E-14.
  No threshold value for u(r) in integrations given. Defaulting to  0.1000E-05.
  No occupation type (smearing scheme) given. Defaulting to Gaussian broadening, width =  0.1000E-01 eV.
  The width will be adjusted in iteration number     2 of the first full s.c.f. cycle only.
  S.C.F. convergence parameters will be adjusted in iteration number     2 of the first full s.c.f. cycle only.
  No accuracy for occupation numbers given. Defaulting to  0.1000E-12.
  No threshold value for occupation numbers given. Defaulting to  0.0000E+00.
  No accuracy for fermi level given. Defaulting to  0.1000E-19.
  Maximum # of iterations to find E_F not set. Defaulting to  200.
  Preferred method for the eigenvalue solver ('KS_method') not specified in 'control.in'.
  Defaulting to serial version, 'lapack_fast'.
  Will not use alltoall communication since running on < 1024 CPUs.
  Threshold for basis singularities not set.
  Default threshold for basis singularities:  0.1000E-04
  partition_type (choice of integration weights) for integrals was not specified.
  | Using a version of the partition function of Stratmann and coworkers ('stratmann_smoother').
  | At each grid point, the set of atoms used to build the partition table is smoothly restricted to
  | only those atoms whose free-atom density would be non-zero at that grid point.
  Partitioning for Hartree potential was not defined. Using partition_type for integrals.
  | Adjusted default value of keyword multip_moments_threshold to:       0.10000000E-11
  | This value may affect high angular momentum components of the Hartree potential in periodic systems.
  Angular momentum expansion for Kerker preconditioner not set explicitly.
  | Using default value of   0
  No explicit requirement for turning off preconditioner.
  | By default, it will be turned off when the charge convergence reaches
  | sc_accuracy_rho  =   0.100000E-05
  No special mixing parameter while Kerker preconditioner is on.
  Using default: charge_mix_param =     0.0500.
  No q(lm)/r^(l+1) cutoff set for long-range Hartree potential.
  | Using default value of  0.100000E-09 .
  | Verify using the multipole_threshold keyword.
  Defaulting to new monopole extrapolation.
  Density update method: automatic selection selected.
  Using density matrix based charge density update.
  Using density matrix based charge density update.
  Using packed matrix style: index .
  Defaulting to use time-reversal symmetry for k-point grid.
------------------------------------------------------------


------------------------------------------------------------
          Reading geometry description geometry.in.
------------------------------------------------------------
  Input structure read successfully.
  The structure contains        2 atoms,  and a total of         28.000 electrons.

  Input geometry:
  | Unit cell:
  |        0.00000000        3.20000000        3.20000000
  |        3.20000000        0.00000000        3.20000000
  |        3.20000000        3.20000000        0.00000000
  | Atomic structure:
  |       Atom                x [A]            y [A]            z [A]
  |    1: Species Si            0.00000000        0.00000000        0.00000000
  |    2: Species Si            1.60000000        1.60000000        1.60000000

  Lattice parameters for 3D lattice (in Angstroms) :     4.525483    4.525483    4.525483
  Angle(s) between unit vectors (in degrees)      :    60.000000   60.000000   60.000000

  |

  | The smallest distance between any two atoms is         2.77128129 AA.
  |
  | The first atom of this pair is atom number                      1 .
  | The second atom of this pair is atom number                     2 .
  | Wigner-Seitz cell of the first atom image           0     0     0 .
  | (The Wigner-Seitz cell of the second atom is 0 0 0  by definition.)

  Quantities derived from the lattice vectors:
  | Reciprocal lattice vector 1: -0.981748  0.981748  0.981748
  | Reciprocal lattice vector 2:  0.981748 -0.981748  0.981748
  | Reciprocal lattice vector 3:  0.981748  0.981748 -0.981748
  | Unit cell volume                               :   0.655360E+02  A^3

  Range separation radius for Ewald summation (hartree_convergence_parameter):      4.64285173 bohr.

  Fractional coordinates:
                         L1                L2                L3
       atom_frac         0.00000000        0.00000000        0.00000000  Si
       atom_frac         0.25000000        0.25000000        0.25000000  Si

  Number of empty states per atom not set in control.in - providing a guess from actual geometry.
  | Total number of empty states used during s.c.f. cycle:        6
  If you use a very high smearing, use empty_states (per atom!) in control.in to increase this value.

  Structure-dependent array size parameters: 
  | Maximum number of distinct radial functions  :        8
  | Maximum number of basis functions            :       36
  | Number of Kohn-Sham states (occupied + empty):       20
------------------------------------------------------------

------------------------------------------------------------
          Preparing all fixed parts of the calculation.
------------------------------------------------------------
  Determining machine precision:
     2.2250738585072014E-308
  Setting up grids for atomic and cluster calculations.

  Creating wave function, potential, and density for free atoms.

  Species: Si

  List of occupied orbitals and eigenvalues:
    n    l              occ      energy [Ha]    energy [eV]
    1    0           2.0000       -65.491668     -1782.1190
    2    0           2.0000        -5.087967      -138.4506
    3    0           2.0000        -0.391471       -10.6525
    2    1           6.0000        -3.502246       -95.3010
    3    1           2.0000        -0.143943        -3.9169

  Creating fixed part of basis set: Ionic, confined, hydrogenic.

  Si                   ion:

  List of free ionic orbitals and eigenvalues:
    n    l      energy [Ha]    energy [eV]
    1    0       -66.364436     -1805.8682
    2    0        -5.935799      -161.5213
    3    0        -1.078166       -29.3384
    2    1        -4.351123      -118.4001
    3    1        -0.781733       -21.2720


  List of ionic basis orbitals and eigenvalues:
    n    l      energy [Ha]    energy [eV]    outer radius [A]
    3    0        -1.078146       -29.3378       4.214062


  Si                   hydrogenic:

  List of hydrogenic basis orbitals: 
    n    l      effective z      eigenvalue [eV]  inner max. [A]     outer max. [A]     outer radius [A]   
    3    2         4.200000       -26.6624           1.139231           1.139231           4.534782
    2    1         1.400000        -6.4613           1.472672           1.472672           4.590560


  Adding cutoff potential to free-atom effective potential.
  Creating atomic-like basis functions for current effective potential.

  Species Si                  :

  List of atomic basis orbitals and eigenvalues:
    n    l      energy [Ha]    energy [eV]    outer radius [A]
    1    0       -65.491668     -1782.1190       0.789468
    2    0        -5.087967      -138.4506       2.815114
    3    0        -0.391471       -10.6525       4.534782
    2    1        -3.502246       -95.3010       3.259919
    3    1        -0.143943        -3.9169       4.590560

  Assembling full basis from fixed parts.
  | Species Si :   atomic orbital   1 s accepted.
  | Species Si :   atomic orbital   2 s accepted.
  | Species Si :    ionic orbital   3 s accepted.
  | Species Si :   atomic orbital   3 s accepted.
  | Species Si :   atomic orbital   2 p accepted.
  | Species Si :   atomic orbital   3 p accepted.
  | Species Si :    hydro orbital   2 p accepted.
  | Species Si :    hydro orbital   3 d accepted.

  Basis size parameters after reduction:
  | Total number of radial functions:        8
  | Total number of basis functions :       36

  Per-task memory consumption for arrays in subroutine allocate_ext:
  |           2.757868MB.
  Testing on-site integration grid accuracy.
  |  Species  Function  <phi|h_atom|phi> (log., in eV)  <phi|h_atom|phi> (rad., in eV)
           1        1              -1782.1189727076              -1782.1182429251
           1        2               -138.4506350693               -138.4506310079
           1        3                -10.3030408815                -10.3029120678
           1        4                  5.0238999146                  4.9457540310 ***
           1        5                -95.3009689499                -95.3009689315
           1        6                 -3.9266496564                 -3.9420918374
           1        7                  6.3453628447                  6.1632372158 ***
           1        8                  6.2883050744                  6.2861881409
 * Note: Onsite integrals marked "***" above are less accurate than
 * onsite_accuracy_threshold =    0.03000 eV. Usually, this is harmless.
 * When in doubt, tighten the "radial" and/or "radial_multiplier" flags to check.

  Preparing densities etc. for the partition functions (integrals / Hartree potential).

  Preparations completed.
  max(cpu_time)          :      0.090 s.
  Wall clock time (cpu1) :      0.090 s.
------------------------------------------------------------

------------------------------------------------------------
          Begin self-consistency loop: Initialization.

          Date     :  20190514, Time     :  124214.937
------------------------------------------------------------

  Initializing index lists of integration centers etc. from given atomic structure:
  Mapping all atomic coordinates to central unit cell.

  Initializing the k-points
          Using symmetry for reducing the k-points
  | k-points reduced from:     1728 to      868
  | Number of k-points                             :       868
  The eigenvectors in the calculations are COMPLEX.
  | K-points in task   0:       868
  | Number of basis functions in the Hamiltonian integrals :       866
  | Number of basis functions in a single unit cell        :        36
  | Number of centers in hartree potential         :       594
  | Number of centers in hartree multipole         :       190
  | Number of centers in electron density summation:       148
  | Number of centers in basis integrals           :       148
  | Number of centers in integrals                 :        57
  | Number of centers in hamiltonian               :       148
  | Consuming       1274 KiB for k_phase.
  | Number of super-cells (origin) [n_cells]                     :        1331
  | Number of super-cells (after PM_index) [n_cells]             :          94
  | Number of super-cells in hamiltonian [n_cells_in_hamiltonian]:          94
  | Size of matrix packed + index [n_hamiltonian_matrix_size] :       27631
  Partitioning the integration grid into batches with maxmin method.
  | Maximal weight for a single point:     1.000
  | Minimal weight for a single point:     0.662
  | Number of batches:      128
  | Maximal batch size:      90
  | Minimal batch size:      85
  | Average batch size:      87.562
  | Standard deviation of batch sizes:       1.493
  Initializing partition tables, free-atom densities, potentials, etc. across the integration grid (initialize_grid_storage).
  | initialize_grid_storage: Actual outermost partition radius vs. multipole_radius_free
  | (-- VB: in principle, multipole_radius_free should be larger, hence this output)
  | Species        1: Confinement radius =              4.999999999999999 AA, multipole_radius_free =              5.000694715736543 AA.
  | Species        1: outer_partition_radius set to              5.000694715736543 AA .
  | Original list of interatomic distances with         148 x        148 entries is created.
  | Net number of integration points:    11208
  | of which are non-zero points    :    10232
  | Numerical average free-atom electrostatic potential    :     -8.02846536 eV
  Renormalizing the initial density to the exact electron count on the 3D integration grid.
  | Initial density: Formal number of electrons (from input files) :      28.0000000000
  | Integrated number of electrons on 3D grid     :      28.0015157765
  | Charge integration error                      :       0.0015157765
  | Normalization factor for density and gradient :       0.9999458681
  Obtaining max. number of non-zero basis functions in each batch (get_n_compute_maxes).
  | Maximal number of non-zero basis functions:      310 in task     0
  Allocating        9.999 MB for KS_eigenvector_complex
  Integrating Hamiltonian matrix: batch-based integration.
  Time summed over all CPUs for integration: real work        0.252 s, elapsed        0.252 s
  Integrating overlap matrix.
  Time summed over all CPUs for integration: real work        0.181 s, elapsed        0.181 s
  Decreasing sparse matrix size:
   Tolerance:   9.9999998245167004E-014
   Hamiltonian matrix
  | Array has    22404 nonzero elements out of    27631 elements
  | Sparsity factor is 0.189
   Overlap matrix
  | Array has    20272 nonzero elements out of    27631 elements
  | Sparsity factor is 0.266
  New size of hamiltonian matrix:       22663

  Updating Kohn-Sham eigenvalues, eigenvectors, occupation numbers, and Fermi level.
  Solving generalized eigenproblem
  Transforming overlap matrix and checking for singularities.
  Overlap matrix is nonsingular at first k-point:
  | Lowest eigenvalue:  0.247717E-01

  Obtaining occupation numbers and chemical potential using ELSI.
  | Chemical potential (Fermi level):    -5.48769841eV
  Writing Kohn-Sham eigenvalues.
  K-point:       1 at    0.000000    0.000000    0.000000 (in units of recip. lattice)

  State    Occupation    Eigenvalue [Ha]    Eigenvalue [eV]
      1       2.00000         -65.496212        -1782.24261
      2       2.00000         -65.496212        -1782.24261
      3       2.00000          -5.093947         -138.61336
      4       2.00000          -5.093925         -138.61276
      5       2.00000          -3.508206          -95.46314
      6       2.00000          -3.508206          -95.46314
      7       2.00000          -3.508206          -95.46314
      8       2.00000          -3.508132          -95.46114
      9       2.00000          -3.508132          -95.46114
     10       2.00000          -3.508132          -95.46114
     11       2.00000          -0.540953          -14.72008
     12       2.00000          -0.249860           -6.79905
     13       1.24963          -0.201752           -5.48995
     14       1.24963          -0.201752           -5.48995
     15       1.24963          -0.201752           -5.48995
     16       0.00000          -0.118253           -3.21783
     17       0.00000          -0.118253           -3.21783
     18       0.00000          -0.118253           -3.21783
     19       0.00000           0.091201            2.48170
     20       0.00000           0.091201            2.48170

  What follows are estimated values for band gap, HOMO, LUMO, etc.
  | They are estimated on a discrete k-point grid and not necessarily exact.
  | For converged numbers, create a DOS and/or band structure plot on a denser k-grid.

  Highest occupied state (VBM) at     -5.48994804 eV (relative to internal zero)
  | Occupation number:      1.24962548
  | K-point:       1 at    0.000000    0.000000    0.000000 (in units of recip. lattice)

  Lowest unoccupied state (CBM) at    -5.47454099 eV (relative to internal zero)
  | Occupation number:      0.06278089
  | K-point:       6 at    0.000000    0.000000    0.500000 (in units of recip. lattice)

  ESTIMATED overall HOMO-LUMO gap:      0.01540705 eV between HOMO at k-point 1 and LUMO at k-point 6
  | This appears to be an indirect band gap.
  | Smallest direct gap :      0.36304993 eV for k_point 8 at    0.000000    0.000000    0.500000 (in units of recip. lattice)
  However, this system has fractional occupation numbers. Since we use a finite k-point grid,
  this material is metallic within the approximate finite broadening function (occupation_type)
  applied to determine the occupation numbers.
  Calculating total energy contributions from superposition of free atom densities.

  Total energy components:
  | Sum of eigenvalues            :        -327.24216300 Ha       -8904.71232209 eV
  | XC energy correction          :         -39.45155822 Ha       -1073.53151998 eV
  | XC potential correction       :          52.12375922 Ha        1418.35965379 eV
  | Free-atom electrostatic energy:        -264.09676210 Ha       -7186.43853860 eV
  | Hartree energy correction     :          -0.00000000 Ha          -0.00000000 eV
  | Entropy correction            :          -0.00000021 Ha          -0.00000581 eV
  | ---------------------------
  | Total energy                  :        -578.66672410 Ha      -15746.32272687 eV
  | Total energy, T -> 0          :        -578.66672431 Ha      -15746.32273269 eV  <-- do not rely on this value for anything but (periodic) metals
  | Electronic free energy        :        -578.66672453 Ha      -15746.32273850 eV

  Derived energy quantities:
  | Kinetic energy                :         579.25721207 Ha       15762.39072192 eV
  | Electrostatic energy          :       -1118.47237794 Ha      -30435.18192882 eV
  | Energy correction for multipole
  | error in Hartree potential    :           0.00000000 Ha           0.00000000 eV
  | Sum of eigenvalues per atom                           :       -4452.35616105 eV
  | Total energy (T->0) per atom                          :       -7873.16136634 eV  <-- do not rely on this value for anything but (periodic) metals
  | Electronic free energy per atom                       :       -7873.16136925 eV
  Initialize hartree_potential_storage
  Max. number of atoms included in rho_multipole:            2

  End scf initialization - timings             :  max(cpu_time)    wall_clock(cpu1)
  | Time for scf. initialization               :        1.535 s           1.536 s
  | Boundary condition initialization          :        0.034 s           0.034 s
  | Integration                                :        0.434 s           0.434 s
  | Solution of K.-S. eqns.                    :        0.945 s           0.945 s
  | Grid partitioning                          :        0.022 s           0.022 s
  | Preloading free-atom quantities on grid    :        0.001 s           0.001 s
  | Free-atom superposition energy             :        0.021 s           0.021 s
  | Total energy evaluation                    :        0.000 s           0.001 s

  Partial memory accounting:
  | Current value for overall tracked memory usage on task 0  :          10.453 MB
  | Peak value for overall tracked memory usage on task 0     :          11.991 MB after allocating wave
  | Largest tracked array allocation on task 0 so far         :           9.999 MB  when allocating +KS_eigenvector_complex
  Note:  These values currently only include a subset of arrays which are explicitly tracked.
  The "true" memory usage will be greater.
------------------------------------------------------------

------------------------------------------------------------
          Begin self-consistency iteration #    1

  Date     :  20190514, Time     :  124216.473
------------------------------------------------------------
  Evaluating new KS density using the density matrix
  Evaluating density matrix
  Time summed over all CPUs for getting density from density matrix: real work        0.411 s, elapsed        0.411 s
  Integration grid: deviation in total charge (<rho> - N_e) =   8.284928E-12
  Pulay mixing of updated and previous charge densities.

  Evaluating partitioned Hartree potential by multipole expansion.
  | Analytical far-field extrapolation by fixed multipoles:
  | Hartree multipole sum: apparent total charge =   0.175633E-02
  Summing up the Hartree potential.
  | Estimated reciprocal-space cutoff momentum G_max:         1.99345179 bohr^-1 .
  | Reciprocal lattice points for long-range Hartree potential:      58
  Time summed over all CPUs for potential: real work        0.326 s, elapsed        0.326 s
  | RMS charge density error from multipole expansion :   0.186347E-03
  | Average real-space part of the electrostatic potential :     -0.00472291 eV

  Integrating Hamiltonian matrix: batch-based integration.
  Time summed over all CPUs for integration: real work        0.249 s, elapsed        0.249 s

  Updating Kohn-Sham eigenvalues, eigenvectors, occupation numbers, and Fermi level.
  Solving generalized eigenproblem

  Obtaining occupation numbers and chemical potential using ELSI.
  | Chemical potential (Fermi level):    -5.48215212eV
  Writing Kohn-Sham eigenvalues.
  K-point:       1 at    0.000000    0.000000    0.000000 (in units of recip. lattice)

  State    Occupation    Eigenvalue [Ha]    Eigenvalue [eV]
      1       2.00000         -65.498470        -1782.30406
      2       2.00000         -65.498470        -1782.30406
      3       2.00000          -5.094934         -138.64022
      4       2.00000          -5.094912         -138.63962
      5       2.00000          -3.509250          -95.49155
      6       2.00000          -3.509250          -95.49155
      7       2.00000          -3.509250          -95.49155
      8       2.00000          -3.509177          -95.48955
      9       2.00000          -3.509177          -95.48955
     10       2.00000          -3.509177          -95.48955
     11       2.00000          -0.540777          -14.71528
     12       2.00000          -0.249734           -6.79560
     13       1.15145          -0.201515           -5.48350
     14       1.15145          -0.201515           -5.48350
     15       1.15145          -0.201515           -5.48350
     16       0.00000          -0.118127           -3.21441
     17       0.00000          -0.118127           -3.21441
     18       0.00000          -0.118127           -3.21441
     19       0.00000           0.091380            2.48658
     20       0.00000           0.091380            2.48658

  What follows are estimated values for band gap, HOMO, LUMO, etc.
  | They are estimated on a discrete k-point grid and not necessarily exact.
  | For converged numbers, create a DOS and/or band structure plot on a denser k-grid.

  Highest occupied state (VBM) at     -5.48350249 eV (relative to internal zero)
  | Occupation number:      1.15145171
  | K-point:       1 at    0.000000    0.000000    0.000000 (in units of recip. lattice)

  Lowest unoccupied state (CBM) at    -5.47162125 eV (relative to internal zero)
  | Occupation number:      0.13641121
  | K-point:     615 at    0.500000    0.000000    0.000000 (in units of recip. lattice)

  ESTIMATED overall HOMO-LUMO gap:      0.01188123 eV between HOMO at k-point 1 and LUMO at k-point 615
  | This appears to be an indirect band gap.
  | Smallest direct gap :      0.36195209 eV for k_point 2 at    0.500000    0.000000    0.000000 (in units of recip. lattice)
  However, this system has fractional occupation numbers. Since we use a finite k-point grid,
  this material is metallic within the approximate finite broadening function (occupation_type)
  applied to determine the occupation numbers.

  Total energy components:
  | Sum of eigenvalues            :        -327.26618056 Ha       -8905.36587313 eV
  | XC energy correction          :         -39.45085402 Ha       -1073.51235759 eV
  | XC potential correction       :          52.12281951 Ha        1418.33408286 eV
  | Free-atom electrostatic energy:        -264.09676210 Ha       -7186.43853860 eV
  | Hartree energy correction     :           0.02440652 Ha           0.66413513 eV
  | Entropy correction            :          -0.00000026 Ha          -0.00000696 eV
  | ---------------------------
  | Total energy                  :        -578.66657065 Ha      -15746.31855133 eV
  | Total energy, T -> 0          :        -578.66657091 Ha      -15746.31855829 eV  <-- do not rely on this value for anything but (periodic) metals
  | Electronic free energy        :        -578.66657116 Ha      -15746.31856526 eV

  Derived energy quantities:
  | Kinetic energy                :         579.18997590 Ha       15760.56113275 eV
  | Electrostatic energy          :       -1118.40569253 Ha      -30433.36732649 eV
  | Energy correction for multipole
  | error in Hartree potential    :           0.00016023 Ha           0.00435998 eV
  | Sum of eigenvalues per atom                           :       -4452.68293657 eV
  | Total energy (T->0) per atom                          :       -7873.15927915 eV  <-- do not rely on this value for anything but (periodic) metals
  | Electronic free energy per atom                       :       -7873.15928263 eV

  Self-consistency convergence accuracy:
  | Change of charge density      :  0.6509E-01
  | Change of sum of eigenvalues  : -0.6536E+00 eV
  | Change of total energy        :  0.4176E-02 eV

  End self-consistency iteration #     1       :  max(cpu_time)    wall_clock(cpu1)
  | Time for this iteration                    :        1.525 s           1.525 s
  | Charge density update                      :        0.455 s           0.454 s
  | Density mixing & preconditioning           :        0.039 s           0.039 s
  | Hartree multipole update                   :        0.001 s           0.001 s
  | Hartree multipole summation                :        0.329 s           0.329 s
  | Integration                                :        0.249 s           0.249 s
  | Solution of K.-S. eqns.                    :        0.453 s           0.453 s
  | Total energy evaluation                    :        0.000 s           0.000 s

  Partial memory accounting:
  | Current value for overall tracked memory usage on task 0  :          10.453 MB
  | Peak value for overall tracked memory usage on task 0     :          11.991 MB after allocating wave
  | Largest tracked array allocation on task 0 so far         :           9.999 MB  when allocating +KS_eigenvector_complex
  Note:  These values currently only include a subset of arrays which are explicitly tracked.
  The "true" memory usage will be greater.
------------------------------------------------------------

------------------------------------------------------------
          Begin self-consistency iteration #    2

  Date     :  20190514, Time     :  124217.998
------------------------------------------------------------
  Evaluating new KS density using the density matrix
  Evaluating density matrix
  Time summed over all CPUs for getting density from density matrix: real work        0.406 s, elapsed        0.406 s
  Integration grid: deviation in total charge (<rho> - N_e) =   8.483880E-12
  Pulay mixing of updated and previous charge densities.

  Evaluating partitioned Hartree potential by multipole expansion.
  | Analytical far-field extrapolation by fixed multipoles:
  | Hartree multipole sum: apparent total charge =   0.607248E-02
  Summing up the Hartree potential.
  Time summed over all CPUs for potential: real work        0.404 s, elapsed        0.404 s
  | RMS charge density error from multipole expansion :   0.370230E-02
  | Average real-space part of the electrostatic potential :      0.01780911 eV

  Integrating Hamiltonian matrix: batch-based integration.
  Time summed over all CPUs for integration: real work        0.250 s, elapsed        0.250 s

  Updating Kohn-Sham eigenvalues, eigenvectors, occupation numbers, and Fermi level.
  Solving generalized eigenproblem

  Obtaining occupation numbers and chemical potential using ELSI.
  | Chemical potential (Fermi level):    -5.36848195eV
  What follows are estimated values for band gap, HOMO, LUMO, etc.
  | They are estimated on a discrete k-point grid and not necessarily exact.
  | For converged numbers, create a DOS and/or band structure plot on a denser k-grid.

  Highest occupied state (VBM) at     -5.36923655 eV (relative to internal zero)
  | Occupation number:      1.08498650
  | K-point:     671 at    0.500000    0.500000    0.500000 (in units of recip. lattice)

  Lowest unoccupied state (CBM) at    -5.32409289 eV (relative to internal zero)
  | Occupation number:      0.00000000
  | K-point:      44 at    0.000000    0.416667    0.000000 (in units of recip. lattice)

  ESTIMATED overall HOMO-LUMO gap:      0.04514366 eV between HOMO at k-point 671 and LUMO at k-point 44
  | This appears to be an indirect band gap.
  | Smallest direct gap :      0.34481704 eV for k_point 75 at    0.000000    0.416667    0.000000 (in units of recip. lattice)
  However, this system has fractional occupation numbers. Since we use a finite k-point grid,
  this material is metallic within the approximate finite broadening function (occupation_type)
  applied to determine the occupation numbers.

  Checking to see if s.c.f. parameters should be adjusted.
  Adjusted the Pulay mixing parameter (charge_mix_param) for an expected low-gap system. New value:   0.020000 .
  Adjusted the occupation broadening width for an expected low-gap system. New value:      0.05000000 eV.

  Total energy components:
  | Sum of eigenvalues            :        -327.34047918 Ha       -8907.38764137 eV
  | XC energy correction          :         -39.44318010 Ha       -1073.30353952 eV
  | XC potential correction       :          52.11247433 Ha        1418.05257621 eV
  | Free-atom electrostatic energy:        -264.09676210 Ha       -7186.43853860 eV
  | Hartree energy correction     :           0.10270467 Ha           2.79473637 eV
  | Entropy correction            :          -0.00000956 Ha          -0.00026010 eV
  | ---------------------------
  | Total energy                  :        -578.66524237 Ha      -15746.28240690 eV
  | Total energy, T -> 0          :        -578.66525193 Ha      -15746.28266701 eV  <-- do not rely on this value for anything but (periodic) metals
  | Electronic free energy        :        -578.66526149 Ha      -15746.28292711 eV

  Derived energy quantities:
  | Kinetic energy                :         578.79628842 Ha       15749.84835130 eV
  | Electrostatic energy          :       -1118.01835069 Ha      -30422.82721868 eV
  | Energy correction for multipole
  | error in Hartree potential    :           0.00319115 Ha           0.08683565 eV
  | Sum of eigenvalues per atom                           :       -4453.69382068 eV
  | Total energy (T->0) per atom                          :       -7873.14133350 eV  <-- do not rely on this value for anything but (periodic) metals
  | Electronic free energy per atom                       :       -7873.14146356 eV

  Self-consistency convergence accuracy:
  | Change of charge density      :  0.6188E-01
  | Change of sum of eigenvalues  : -0.2022E+01 eV
  | Change of total energy        :  0.3614E-01 eV

  End self-consistency iteration #     2       :  max(cpu_time)    wall_clock(cpu1)
  | Time for this iteration                    :        1.598 s           1.598 s
  | Charge density update                      :        0.450 s           0.450 s
  | Density mixing & preconditioning           :        0.037 s           0.037 s
  | Hartree multipole update                   :        0.001 s           0.000 s
  | Hartree multipole summation                :        0.407 s           0.408 s
  | Integration                                :        0.250 s           0.250 s
  | Solution of K.-S. eqns.                    :        0.453 s           0.453 s
  | Total energy evaluation                    :        0.000 s           0.000 s

  Partial memory accounting:
  | Current value for overall tracked memory usage on task 0  :          10.454 MB
  | Peak value for overall tracked memory usage on task 0     :          11.991 MB after allocating wave
  | Largest tracked array allocation on task 0 so far         :           9.999 MB  when allocating +KS_eigenvector_complex
  Note:  These values currently only include a subset of arrays which are explicitly tracked.
  The "true" memory usage will be greater.
------------------------------------------------------------

------------------------------------------------------------
          Begin self-consistency iteration #    3

  Date     :  20190514, Time     :  124219.596
------------------------------------------------------------
  Evaluating new KS density using the density matrix
  Evaluating density matrix
  Time summed over all CPUs for getting density from density matrix: real work        0.405 s, elapsed        0.405 s
  Integration grid: deviation in total charge (<rho> - N_e) =   8.206769E-12
  Pulay mixing of updated and previous charge densities.

  Evaluating partitioned Hartree potential by multipole expansion.
  | Analytical far-field extrapolation by fixed multipoles:
  | Hartree multipole sum: apparent total charge =   0.603813E-02
  Summing up the Hartree potential.
  Time summed over all CPUs for potential: real work        0.403 s, elapsed        0.403 s
  | RMS charge density error from multipole expansion :   0.374856E-02
  | Average real-space part of the electrostatic potential :      0.01802614 eV

  Integrating Hamiltonian matrix: batch-based integration.
  Time summed over all CPUs for integration: real work        0.249 s, elapsed        0.249 s

  Updating Kohn-Sham eigenvalues, eigenvectors, occupation numbers, and Fermi level.
  Solving generalized eigenproblem

  Obtaining occupation numbers and chemical potential using ELSI.
  | Chemical potential (Fermi level):    -5.34491063eV
  What follows are estimated values for band gap, HOMO, LUMO, etc.
  | They are estimated on a discrete k-point grid and not necessarily exact.
  | For converged numbers, create a DOS and/or band structure plot on a denser k-grid.

  Highest occupied state (VBM) at     -5.36819852 eV (relative to internal zero)
  | Occupation number:      1.48989950
  | K-point:      53 at    0.000000    0.500000    0.000000 (in units of recip. lattice)

  Lowest unoccupied state (CBM) at    -5.32304587 eV (relative to internal zero)
  | Occupation number:      0.53629286
  | K-point:     711 at    0.583333    0.583333    0.583333 (in units of recip. lattice)

  ESTIMATED overall HOMO-LUMO gap:      0.04515265 eV between HOMO at k-point 53 and LUMO at k-point 711
  | This appears to be an indirect band gap.
  | Smallest direct gap :      0.34452553 eV for k_point 8 at    0.583333    0.583333    0.583333 (in units of recip. lattice)
  However, this system has fractional occupation numbers. Since we use a finite k-point grid,
  this material is metallic within the approximate finite broadening function (occupation_type)
  applied to determine the occupation numbers.

  Total energy components:
  | Sum of eigenvalues            :        -327.34321058 Ha       -8907.46196669 eV
  | XC energy correction          :         -39.44302299 Ha       -1073.29926433 eV
  | XC potential correction       :          52.11226308 Ha        1418.04682773 eV
  | Free-atom electrostatic energy:        -264.09676210 Ha       -7186.43853860 eV
  | Hartree energy correction     :           0.10549770 Ha           2.87073847 eV
  | Entropy correction            :          -0.00000756 Ha          -0.00020571 eV
  | ---------------------------
  | Total energy                  :        -578.66523489 Ha      -15746.28220342 eV
  | Total energy, T -> 0          :        -578.66524245 Ha      -15746.28240913 eV  <-- do not rely on this value for anything but (periodic) metals
  | Electronic free energy        :        -578.66525001 Ha      -15746.28261484 eV

  Derived energy quantities:
  | Kinetic energy                :         578.78956782 Ha       15749.66547448 eV
  | Electrostatic energy          :       -1118.01177972 Ha      -30422.64841357 eV
  | Energy correction for multipole
  | error in Hartree potential    :           0.00322890 Ha           0.08786271 eV
  | Sum of eigenvalues per atom                           :       -4453.73098334 eV
  | Total energy (T->0) per atom                          :       -7873.14120456 eV  <-- do not rely on this value for anything but (periodic) metals
  | Electronic free energy per atom                       :       -7873.14130742 eV

  Self-consistency convergence accuracy:
  | Change of charge density      :  0.8918E-02
  | Change of sum of eigenvalues  : -0.7433E-01 eV
  | Change of total energy        :  0.2035E-03 eV

  End self-consistency iteration #     3       :  max(cpu_time)    wall_clock(cpu1)
  | Time for this iteration                    :        1.594 s           1.595 s
  | Charge density update                      :        0.449 s           0.449 s
  | Density mixing & preconditioning           :        0.037 s           0.037 s
  | Hartree multipole update                   :        0.001 s           0.001 s
  | Hartree multipole summation                :        0.406 s           0.406 s
  | Integration                                :        0.249 s           0.249 s
  | Solution of K.-S. eqns.                    :        0.452 s           0.452 s
  | Total energy evaluation                    :        0.000 s           0.001 s

  Partial memory accounting:
  | Current value for overall tracked memory usage on task 0  :          10.454 MB
  | Peak value for overall tracked memory usage on task 0     :          11.991 MB after allocating wave
  | Largest tracked array allocation on task 0 so far         :           9.999 MB  when allocating +KS_eigenvector_complex
  Note:  These values currently only include a subset of arrays which are explicitly tracked.
  The "true" memory usage will be greater.
------------------------------------------------------------

------------------------------------------------------------
          Begin self-consistency iteration #    4

  Date     :  20190514, Time     :  124221.191
------------------------------------------------------------
  Evaluating new KS density using the density matrix
  Evaluating density matrix
  Time summed over all CPUs for getting density from density matrix: real work        0.406 s, elapsed        0.406 s
  Integration grid: deviation in total charge (<rho> - N_e) =   8.235190E-12
  Pulay mixing of updated and previous charge densities.

  Evaluating partitioned Hartree potential by multipole expansion.
  | Analytical far-field extrapolation by fixed multipoles:
  | Hartree multipole sum: apparent total charge =  -0.440812E-02
  Summing up the Hartree potential.
  Time summed over all CPUs for potential: real work        0.392 s, elapsed        0.392 s
  | RMS charge density error from multipole expansion :   0.281098E-02
  | Average real-space part of the electrostatic potential :      0.00314349 eV

  Integrating Hamiltonian matrix: batch-based integration.
  Time summed over all CPUs for integration: real work        0.249 s, elapsed        0.249 s

  Updating Kohn-Sham eigenvalues, eigenvectors, occupation numbers, and Fermi level.
  Solving generalized eigenproblem

  Obtaining occupation numbers and chemical potential using ELSI.
  | Chemical potential (Fermi level):    -5.43608504eV
  What follows are estimated values for band gap, HOMO, LUMO, etc.
  | They are estimated on a discrete k-point grid and not necessarily exact.
  | For converged numbers, create a DOS and/or band structure plot on a denser k-grid.

  Highest occupied state (VBM) at     -5.44171192 eV (relative to internal zero)
  | Occupation number:      1.12645102
  | K-point:       6 at    0.000000    0.000000    0.500000 (in units of recip. lattice)

  Lowest unoccupied state (CBM) at    -5.40319561 eV (relative to internal zero)
  | Occupation number:      0.35223977
  | K-point:       1 at    0.000000    0.000000    0.000000 (in units of recip. lattice)

  ESTIMATED overall HOMO-LUMO gap:      0.03851631 eV between HOMO at k-point 6 and LUMO at k-point 1
  | This appears to be an indirect band gap.
  | Smallest direct gap :      0.34632514 eV for k_point 868 at    0.000000    0.000000    0.000000 (in units of recip. lattice)
  However, this system has fractional occupation numbers. Since we use a finite k-point grid,
  this material is metallic within the approximate finite broadening function (occupation_type)
  applied to determine the occupation numbers.

  Total energy components:
  | Sum of eigenvalues            :        -327.50671338 Ha       -8911.91110411 eV
  | XC energy correction          :         -39.43189730 Ha       -1072.99651895 eV
  | XC potential correction       :          52.09757327 Ha        1417.64709764 eV
  | Free-atom electrostatic energy:        -264.09676210 Ha       -7186.43853860 eV
  | Hartree energy correction     :           0.27258267 Ha           7.41735196 eV
  | Entropy correction            :          -0.00000577 Ha          -0.00015700 eV
  | ---------------------------
  | Total energy                  :        -578.66521683 Ha      -15746.28171206 eV
  | Total energy, T -> 0          :        -578.66522260 Ha      -15746.28186906 eV  <-- do not rely on this value for anything but (periodic) metals
  | Electronic free energy        :        -578.66522837 Ha      -15746.28202605 eV

  Derived energy quantities:
  | Kinetic energy                :         578.75198007 Ha       15748.64265973 eV
  | Electrostatic energy          :       -1117.98529960 Ha      -30421.92785284 eV
  | Energy correction for multipole
  | error in Hartree potential    :           0.00217447 Ha           0.05917046 eV
  | Sum of eigenvalues per atom                           :       -4455.95555205 eV
  | Total energy (T->0) per atom                          :       -7873.14093453 eV  <-- do not rely on this value for anything but (periodic) metals
  | Electronic free energy per atom                       :       -7873.14101303 eV

  Self-consistency convergence accuracy:
  | Change of charge density      :  0.8816E-02
  | Change of sum of eigenvalues  : -0.4449E+01 eV
  | Change of total energy        :  0.4914E-03 eV

  End self-consistency iteration #     4       :  max(cpu_time)    wall_clock(cpu1)
  | Time for this iteration                    :        1.585 s           1.585 s
  | Charge density update                      :        0.450 s           0.449 s
  | Density mixing & preconditioning           :        0.037 s           0.037 s
  | Hartree multipole update                   :        0.001 s           0.001 s
  | Hartree multipole summation                :        0.395 s           0.395 s
  | Integration                                :        0.249 s           0.249 s
  | Solution of K.-S. eqns.                    :        0.454 s           0.453 s
  | Total energy evaluation                    :        0.000 s           0.001 s

  Partial memory accounting:
  | Current value for overall tracked memory usage on task 0  :          10.455 MB
  | Peak value for overall tracked memory usage on task 0     :          11.991 MB after allocating wave
  | Largest tracked array allocation on task 0 so far         :           9.999 MB  when allocating +KS_eigenvector_complex
  Note:  These values currently only include a subset of arrays which are explicitly tracked.
  The "true" memory usage will be greater.
------------------------------------------------------------

------------------------------------------------------------
          Begin self-consistency iteration #    5

  Date     :  20190514, Time     :  124222.776
------------------------------------------------------------
  Evaluating new KS density using the density matrix
  Evaluating density matrix
  Time summed over all CPUs for getting density from density matrix: real work        0.403 s, elapsed        0.403 s
  Integration grid: deviation in total charge (<rho> - N_e) =   8.384404E-12
  Pulay mixing of updated and previous charge densities.

  Evaluating partitioned Hartree potential by multipole expansion.
  | Analytical far-field extrapolation by fixed multipoles:
  | Hartree multipole sum: apparent total charge =  -0.157508E-01
  Summing up the Hartree potential.
  Time summed over all CPUs for potential: real work        0.411 s, elapsed        0.411 s
  | RMS charge density error from multipole expansion :   0.395817E-02
  | Average real-space part of the electrostatic potential :     -0.00336180 eV

  Integrating Hamiltonian matrix: batch-based integration.
  Time summed over all CPUs for integration: real work        0.248 s, elapsed        0.248 s

  Updating Kohn-Sham eigenvalues, eigenvectors, occupation numbers, and Fermi level.
  Solving generalized eigenproblem

  Obtaining occupation numbers and chemical potential using ELSI.
  | Chemical potential (Fermi level):    -5.45666553eV
  What follows are estimated values for band gap, HOMO, LUMO, etc.
  | They are estimated on a discrete k-point grid and not necessarily exact.
  | For converged numbers, create a DOS and/or band structure plot on a denser k-grid.

  Highest occupied state (VBM) at     -5.47062023 eV (relative to internal zero)
  | Occupation number:      1.30693470
  | K-point:       6 at    0.000000    0.000000    0.500000 (in units of recip. lattice)

  Lowest unoccupied state (CBM) at    -5.42612503 eV (relative to internal zero)
  | Occupation number:      0.38768920
  | K-point:      44 at    0.000000    0.416667    0.000000 (in units of recip. lattice)

  ESTIMATED overall HOMO-LUMO gap:      0.04449520 eV between HOMO at k-point 6 and LUMO at k-point 44
  | This appears to be an indirect band gap.
  | Smallest direct gap :      0.33588914 eV for k_point 75 at    0.000000    0.416667    0.000000 (in units of recip. lattice)
  However, this system has fractional occupation numbers. Since we use a finite k-point grid,
  this material is metallic within the approximate finite broadening function (occupation_type)
  applied to determine the occupation numbers.

  Total energy components:
  | Sum of eigenvalues            :        -327.77961897 Ha       -8919.33724316 eV
  | XC energy correction          :         -39.41489470 Ha       -1072.53385482 eV
  | XC potential correction       :          52.07497774 Ha        1417.03224210 eV
  | Free-atom electrostatic energy:        -264.09676210 Ha       -7186.43853860 eV
  | Hartree energy correction     :           0.55110990 Ha          14.99646348 eV
  | Entropy correction            :          -0.00000669 Ha          -0.00018197 eV
  | ---------------------------
  | Total energy                  :        -578.66518813 Ha      -15746.28093099 eV
  | Total energy, T -> 0          :        -578.66519482 Ha      -15746.28111296 eV  <-- do not rely on this value for anything but (periodic) metals
  | Electronic free energy        :        -578.66520151 Ha      -15746.28129493 eV

  Derived energy quantities:
  | Kinetic energy                :         578.45151291 Ha       15740.46653233 eV
  | Electrostatic energy          :       -1117.70180633 Ha      -30414.21360850 eV
  | Energy correction for multipole
  | error in Hartree potential    :           0.00285177 Ha           0.07760053 eV
  | Sum of eigenvalues per atom                           :       -4459.66862158 eV
  | Total energy (T->0) per atom                          :       -7873.14055648 eV  <-- do not rely on this value for anything but (periodic) metals
  | Electronic free energy per atom                       :       -7873.14064746 eV

  Self-consistency convergence accuracy:
  | Change of charge density      :  0.1762E-01
  | Change of sum of eigenvalues  : -0.7426E+01 eV
  | Change of total energy        :  0.7811E-03 eV

  End self-consistency iteration #     5       :  max(cpu_time)    wall_clock(cpu1)
  | Time for this iteration                    :        1.599 s           1.599 s
  | Charge density update                      :        0.446 s           0.446 s
  | Density mixing & preconditioning           :        0.036 s           0.036 s
  | Hartree multipole update                   :        0.001 s           0.001 s
  | Hartree multipole summation                :        0.414 s           0.415 s
  | Integration                                :        0.249 s           0.248 s
  | Solution of K.-S. eqns.                    :        0.452 s           0.453 s
  | Total energy evaluation                    :        0.000 s           0.000 s

  Partial memory accounting:
  | Current value for overall tracked memory usage on task 0  :          10.455 MB
  | Peak value for overall tracked memory usage on task 0     :          11.991 MB after allocating wave
  | Largest tracked array allocation on task 0 so far         :           9.999 MB  when allocating +KS_eigenvector_complex
  Note:  These values currently only include a subset of arrays which are explicitly tracked.
  The "true" memory usage will be greater.
------------------------------------------------------------

------------------------------------------------------------
          Begin self-consistency iteration #    6

  Date     :  20190514, Time     :  124224.375
------------------------------------------------------------
  Evaluating new KS density using the density matrix
  Evaluating density matrix
  Time summed over all CPUs for getting density from density matrix: real work        0.408 s, elapsed        0.408 s
  Integration grid: deviation in total charge (<rho> - N_e) =   8.309797E-12
  Pulay mixing of updated and previous charge densities.

  Evaluating partitioned Hartree potential by multipole expansion.
  | Analytical far-field extrapolation by fixed multipoles:
  | Hartree multipole sum: apparent total charge =   0.356623E-02
  Summing up the Hartree potential.
  Time summed over all CPUs for potential: real work        0.408 s, elapsed        0.408 s
  | RMS charge density error from multipole expansion :   0.398891E-02
  | Average real-space part of the electrostatic potential :      0.00476516 eV

  Integrating Hamiltonian matrix: batch-based integration.
  Time summed over all CPUs for integration: real work        0.251 s, elapsed        0.251 s

  Updating Kohn-Sham eigenvalues, eigenvectors, occupation numbers, and Fermi level.
  Solving generalized eigenproblem

  Obtaining occupation numbers and chemical potential using ELSI.
  | Chemical potential (Fermi level):    -5.37629509eV
  What follows are estimated values for band gap, HOMO, LUMO, etc.
  | They are estimated on a discrete k-point grid and not necessarily exact.
  | For converged numbers, create a DOS and/or band structure plot on a denser k-grid.

  Highest occupied state (VBM) at     -5.39512504 eV (relative to internal zero)
  | Occupation number:      1.40568356
  | K-point:      53 at    0.000000    0.500000    0.000000 (in units of recip. lattice)

  Lowest unoccupied state (CBM) at    -5.35025665 eV (relative to internal zero)
  | Occupation number:      0.46143970
  | K-point:       5 at    0.000000    0.000000    0.416667 (in units of recip. lattice)

  ESTIMATED overall HOMO-LUMO gap:      0.04486839 eV between HOMO at k-point 53 and LUMO at k-point 5
  | This appears to be an indirect band gap.
  | Smallest direct gap :      0.34217421 eV for k_point 75 at    0.000000    0.000000    0.416667 (in units of recip. lattice)
  However, this system has fractional occupation numbers. Since we use a finite k-point grid,
  this material is metallic within the approximate finite broadening function (occupation_type)
  applied to determine the occupation numbers.

  Total energy components:
  | Sum of eigenvalues            :        -327.40297128 Ha       -8909.08813800 eV
  | XC energy correction          :         -39.44503798 Ha       -1073.35409499 eV
  | XC potential correction       :          52.11498879 Ha        1418.12099830 eV
  | Free-atom electrostatic energy:        -264.09676210 Ha       -7186.43853860 eV
  | Hartree energy correction     :           0.16467225 Ha           4.48095983 eV
  | Entropy correction            :          -0.00000715 Ha          -0.00019449 eV
  | ---------------------------
  | Total energy                  :        -578.66511031 Ha      -15746.27881346 eV
  | Total energy, T -> 0          :        -578.66511746 Ha      -15746.27900795 eV  <-- do not rely on this value for anything but (periodic) metals
  | Electronic free energy        :        -578.66512461 Ha      -15746.27920244 eV

  Derived energy quantities:
  | Kinetic energy                :         578.89172659 Ha       15752.44535616 eV
  | Electrostatic energy          :       -1118.11179893 Ha      -30425.37007462 eV
  | Energy correction for multipole
  | error in Hartree potential    :           0.00361310 Ha           0.09831733 eV
  | Sum of eigenvalues per atom                           :       -4454.54406900 eV
  | Total energy (T->0) per atom                          :       -7873.13950397 eV  <-- do not rely on this value for anything but (periodic) metals
  | Electronic free energy per atom                       :       -7873.13960122 eV

  Self-consistency convergence accuracy:
  | Change of charge density      :  0.1639E-01
  | Change of sum of eigenvalues  :  0.1025E+02 eV
  | Change of total energy        :  0.2118E-02 eV

  End self-consistency iteration #     6       :  max(cpu_time)    wall_clock(cpu1)
  | Time for this iteration                    :        1.604 s           1.604 s
  | Charge density update                      :        0.451 s           0.451 s
  | Density mixing & preconditioning           :        0.037 s           0.037 s
  | Hartree multipole update                   :        0.001 s           0.000 s
  | Hartree multipole summation                :        0.412 s           0.412 s
  | Integration                                :        0.251 s           0.251 s
  | Solution of K.-S. eqns.                    :        0.453 s           0.453 s
  | Total energy evaluation                    :        0.000 s           0.000 s

  Partial memory accounting:
  | Current value for overall tracked memory usage on task 0  :          10.455 MB
  | Peak value for overall tracked memory usage on task 0     :          11.991 MB after allocating wave
  | Largest tracked array allocation on task 0 so far         :           9.999 MB  when allocating +KS_eigenvector_complex
  Note:  These values currently only include a subset of arrays which are explicitly tracked.
  The "true" memory usage will be greater.
------------------------------------------------------------

------------------------------------------------------------
          Begin self-consistency iteration #    7

  Date     :  20190514, Time     :  124225.979
------------------------------------------------------------
  Evaluating new KS density using the density matrix
  Evaluating density matrix
  Time summed over all CPUs for getting density from density matrix: real work        0.407 s, elapsed        0.407 s
  Integration grid: deviation in total charge (<rho> - N_e) =   8.341772E-12
  Pulay mixing of updated and previous charge densities.

  Evaluating partitioned Hartree potential by multipole expansion.
  | Analytical far-field extrapolation by fixed multipoles:
  | Hartree multipole sum: apparent total charge =   0.344553E-02
  Summing up the Hartree potential.
  Time summed over all CPUs for potential: real work        0.410 s, elapsed        0.410 s
  | RMS charge density error from multipole expansion :   0.394861E-02
  | Average real-space part of the electrostatic potential :      0.00457216 eV

  Integrating Hamiltonian matrix: batch-based integration.
  Time summed over all CPUs for integration: real work        0.251 s, elapsed        0.251 s

  Updating Kohn-Sham eigenvalues, eigenvectors, occupation numbers, and Fermi level.
  Solving generalized eigenproblem

  Obtaining occupation numbers and chemical potential using ELSI.
  | Chemical potential (Fermi level):    -5.37830933eV
  What follows are estimated values for band gap, HOMO, LUMO, etc.
  | They are estimated on a discrete k-point grid and not necessarily exact.
  | For converged numbers, create a DOS and/or band structure plot on a denser k-grid.

  Highest occupied state (VBM) at     -5.39654872 eV (relative to internal zero)
  | Occupation number:      1.39406713
  | K-point:     671 at    0.500000    0.500000    0.500000 (in units of recip. lattice)

  Lowest unoccupied state (CBM) at    -5.35169132 eV (relative to internal zero)
  | Occupation number:      0.45152736
  | K-point:     507 at    0.416667    0.000000    0.000000 (in units of recip. lattice)

  ESTIMATED overall HOMO-LUMO gap:      0.04485740 eV between HOMO at k-point 671 and LUMO at k-point 507
  | This appears to be an indirect band gap.
  | Smallest direct gap :      0.34239425 eV for k_point 2 at    0.416667    0.000000    0.000000 (in units of recip. lattice)
  However, this system has fractional occupation numbers. Since we use a finite k-point grid,
  this material is metallic within the approximate finite broadening function (occupation_type)
  applied to determine the occupation numbers.

  Total energy components:
  | Sum of eigenvalues            :        -327.40224999 Ha       -8909.06851052 eV
  | XC energy correction          :         -39.44511279 Ha       -1073.35613089 eV
  | XC potential correction       :          52.11509045 Ha        1418.12376453 eV
  | Free-atom electrostatic energy:        -264.09676210 Ha       -7186.43853860 eV
  | Hartree energy correction     :           0.16392448 Ha           4.46061210 eV
  | Entropy correction            :          -0.00000709 Ha          -0.00019288 eV
  | ---------------------------
  | Total energy                  :        -578.66510994 Ha      -15746.27880337 eV
  | Total energy, T -> 0          :        -578.66511703 Ha      -15746.27899625 eV  <-- do not rely on this value for anything but (periodic) metals
  | Electronic free energy        :        -578.66512412 Ha      -15746.27918913 eV

  Derived energy quantities:
  | Kinetic energy                :         578.89682506 Ha       15752.58409252 eV
  | Electrostatic energy          :       -1118.11682221 Ha      -30425.50676501 eV
  | Energy correction for multipole
  | error in Hartree potential    :           0.00357687 Ha           0.09733168 eV
  | Sum of eigenvalues per atom                           :       -4454.53425526 eV
  | Total energy (T->0) per atom                          :       -7873.13949813 eV  <-- do not rely on this value for anything but (periodic) metals
  | Electronic free energy per atom                       :       -7873.13959457 eV

  Self-consistency convergence accuracy:
  | Change of charge density      :  0.5646E-02
  | Change of sum of eigenvalues  :  0.1963E-01 eV
  | Change of total energy        :  0.1009E-04 eV

  End self-consistency iteration #     7       :  max(cpu_time)    wall_clock(cpu1)
  | Time for this iteration                    :        1.603 s           1.603 s
  | Charge density update                      :        0.451 s           0.451 s
  | Density mixing & preconditioning           :        0.035 s           0.036 s
  | Hartree multipole update                   :        0.001 s           0.001 s
  | Hartree multipole summation                :        0.414 s           0.413 s
  | Integration                                :        0.251 s           0.251 s
  | Solution of K.-S. eqns.                    :        0.451 s           0.451 s
  | Total energy evaluation                    :        0.000 s           0.000 s

  Partial memory accounting:
  | Current value for overall tracked memory usage on task 0  :          10.455 MB
  | Peak value for overall tracked memory usage on task 0     :          11.991 MB after allocating wave
  | Largest tracked array allocation on task 0 so far         :           9.999 MB  when allocating +KS_eigenvector_complex
  Note:  These values currently only include a subset of arrays which are explicitly tracked.
  The "true" memory usage will be greater.
------------------------------------------------------------

------------------------------------------------------------
          Begin self-consistency iteration #    8

  Date     :  20190514, Time     :  124227.582
------------------------------------------------------------
  Evaluating new KS density using the density matrix
  Evaluating density matrix
  Time summed over all CPUs for getting density from density matrix: real work        0.404 s, elapsed        0.404 s
  Integration grid: deviation in total charge (<rho> - N_e) =   8.363088E-12
  Pulay mixing of updated and previous charge densities.

  Evaluating partitioned Hartree potential by multipole expansion.
  | Analytical far-field extrapolation by fixed multipoles:
  | Hartree multipole sum: apparent total charge =   0.120467E-02
  Summing up the Hartree potential.
  Time summed over all CPUs for potential: real work        0.405 s, elapsed        0.405 s
  | RMS charge density error from multipole expansion :   0.400715E-02
  | Average real-space part of the electrostatic potential :     -0.00066788 eV

  Integrating Hamiltonian matrix: batch-based integration.
  Time summed over all CPUs for integration: real work        0.251 s, elapsed        0.251 s

  Updating Kohn-Sham eigenvalues, eigenvectors, occupation numbers, and Fermi level.
  Solving generalized eigenproblem

  Obtaining occupation numbers and chemical potential using ELSI.
  | Chemical potential (Fermi level):    -5.39282381eV
  What follows are estimated values for band gap, HOMO, LUMO, etc.
  | They are estimated on a discrete k-point grid and not necessarily exact.
  | For converged numbers, create a DOS and/or band structure plot on a denser k-grid.

  Highest occupied state (VBM) at     -5.41053312 eV (relative to internal zero)
  | Occupation number:      1.38355500
  | K-point:     671 at    0.500000    0.500000    0.500000 (in units of recip. lattice)

  Lowest unoccupied state (CBM) at    -5.36575971 eV (relative to internal zero)
  | Occupation number:      0.44398087
  | K-point:       5 at    0.000000    0.000000    0.416667 (in units of recip. lattice)

  ESTIMATED overall HOMO-LUMO gap:      0.04477341 eV between HOMO at k-point 671 and LUMO at k-point 5
  | This appears to be an indirect band gap.
  | Smallest direct gap :      0.34065730 eV for k_point 2 at    0.000000    0.000000    0.416667 (in units of recip. lattice)
  However, this system has fractional occupation numbers. Since we use a finite k-point grid,
  this material is metallic within the approximate finite broadening function (occupation_type)
  applied to determine the occupation numbers.

  Total energy components:
  | Sum of eigenvalues            :        -327.48856397 Ha       -8911.41723362 eV
  | XC energy correction          :         -39.43752255 Ha       -1073.14958983 eV
  | XC potential correction       :          52.10502571 Ha        1417.84988893 eV
  | Free-atom electrostatic energy:        -264.09676210 Ha       -7186.43853860 eV
  | Hartree energy correction     :           0.25274237 Ha           6.87746987 eV
  | Entropy correction            :          -0.00000704 Ha          -0.00019167 eV
  | ---------------------------
  | Total energy                  :        -578.66508054 Ha      -15746.27800323 eV
  | Total energy, T -> 0          :        -578.66508758 Ha      -15746.27819491 eV  <-- do not rely on this value for anything but (periodic) metals
  | Electronic free energy        :        -578.66509463 Ha      -15746.27838658 eV

  Derived energy quantities:
  | Kinetic energy                :         578.79525449 Ha       15749.82021681 eV
  | Electrostatic energy          :       -1118.02281248 Ha      -30422.94863022 eV
  | Energy correction for multipole
  | error in Hartree potential    :           0.00353695 Ha           0.09624523 eV
  | Sum of eigenvalues per atom                           :       -4455.70861681 eV
  | Total energy (T->0) per atom                          :       -7873.13909745 eV  <-- do not rely on this value for anything but (periodic) metals
  | Electronic free energy per atom                       :       -7873.13919329 eV

  Self-consistency convergence accuracy:
  | Change of charge density      :  0.5819E-02
  | Change of sum of eigenvalues  : -0.2349E+01 eV
  | Change of total energy        :  0.8001E-03 eV

  End self-consistency iteration #     8       :  max(cpu_time)    wall_clock(cpu1)
  | Time for this iteration                    :        1.598 s           1.598 s
  | Charge density update                      :        0.447 s           0.448 s
  | Density mixing & preconditioning           :        0.036 s           0.036 s
  | Hartree multipole update                   :        0.001 s           0.001 s
  | Hartree multipole summation                :        0.408 s           0.408 s
  | Integration                                :        0.252 s           0.251 s
  | Solution of K.-S. eqns.                    :        0.453 s           0.454 s
  | Total energy evaluation                    :        0.000 s           0.000 s

  Partial memory accounting:
  | Current value for overall tracked memory usage on task 0  :          10.456 MB
  | Peak value for overall tracked memory usage on task 0     :          11.991 MB after allocating wave
  | Largest tracked array allocation on task 0 so far         :           9.999 MB  when allocating +KS_eigenvector_complex
  Note:  These values currently only include a subset of arrays which are explicitly tracked.
  The "true" memory usage will be greater.
------------------------------------------------------------

------------------------------------------------------------
          Begin self-consistency iteration #    9

  Date     :  20190514, Time     :  124229.180
------------------------------------------------------------
  Evaluating new KS density using the density matrix
  Evaluating density matrix
  Time summed over all CPUs for getting density from density matrix: real work        0.403 s, elapsed        0.403 s
  Integration grid: deviation in total charge (<rho> - N_e) =   8.380852E-12
  Pulay mixing of updated and previous charge densities.

  Evaluating partitioned Hartree potential by multipole expansion.
  | Analytical far-field extrapolation by fixed multipoles:
  | Hartree multipole sum: apparent total charge =   0.118845E-02
  Summing up the Hartree potential.
  Time summed over all CPUs for potential: real work        0.411 s, elapsed        0.411 s
  | RMS charge density error from multipole expansion :   0.400600E-02
  | Average real-space part of the electrostatic potential :     -0.00067002 eV

  Integrating Hamiltonian matrix: batch-based integration.
  Time summed over all CPUs for integration: real work        0.251 s, elapsed        0.251 s

  Updating Kohn-Sham eigenvalues, eigenvectors, occupation numbers, and Fermi level.
  Solving generalized eigenproblem

  Obtaining occupation numbers and chemical potential using ELSI.
  | Chemical potential (Fermi level):    -5.39293976eV
  What follows are estimated values for band gap, HOMO, LUMO, etc.
  | They are estimated on a discrete k-point grid and not necessarily exact.
  | For converged numbers, create a DOS and/or band structure plot on a denser k-grid.

  Highest occupied state (VBM) at     -5.41062826 eV (relative to internal zero)
  | Occupation number:      1.38314061
  | K-point:     615 at    0.500000    0.000000    0.000000 (in units of recip. lattice)

  Lowest unoccupied state (CBM) at    -5.36585551 eV (relative to internal zero)
  | Occupation number:      0.44364156
  | K-point:     507 at    0.416667    0.000000    0.000000 (in units of recip. lattice)

  ESTIMATED overall HOMO-LUMO gap:      0.04477275 eV between HOMO at k-point 615 and LUMO at k-point 507
  | This appears to be an indirect band gap.
  | Smallest direct gap :      0.34065841 eV for k_point 8 at    0.416667    0.000000    0.000000 (in units of recip. lattice)
  However, this system has fractional occupation numbers. Since we use a finite k-point grid,
  this material is metallic within the approximate finite broadening function (occupation_type)
[...]
  | Largest tracked array allocation on task 0 so far         :           9.999 MB  when allocating +KS_eigenvector_complex
  Note:  These values currently only include a subset of arrays which are explicitly tracked.
  The "true" memory usage will be greater.
------------------------------------------------------------

------------------------------------------------------------
          Begin self-consistency iteration #   12

  Date     :  20190514, Time     :  124233.985
------------------------------------------------------------
  Evaluating new KS density using the density matrix
  Evaluating density matrix
  Time summed over all CPUs for getting density from density matrix: real work        0.404 s, elapsed        0.404 s
  Integration grid: deviation in total charge (<rho> - N_e) =   8.412826E-12
  Pulay mixing of updated and previous charge densities.

  Evaluating partitioned Hartree potential by multipole expansion.
  | Analytical far-field extrapolation by fixed multipoles:
  | Hartree multipole sum: apparent total charge =   0.146367E-02
  Summing up the Hartree potential.
  Time summed over all CPUs for potential: real work        0.402 s, elapsed        0.402 s
  | RMS charge density error from multipole expansion :   0.399846E-02
  | Average real-space part of the electrostatic potential :     -0.00416342 eV

  Integrating Hamiltonian matrix: batch-based integration.
  Time summed over all CPUs for integration: real work        0.246 s, elapsed        0.246 s

  Updating Kohn-Sham eigenvalues, eigenvectors, occupation numbers, and Fermi level.
  Solving generalized eigenproblem

  Obtaining occupation numbers and chemical potential using ELSI.
  | Chemical potential (Fermi level):    -5.39629433eV
  What follows are estimated values for band gap, HOMO, LUMO, etc.
  | They are estimated on a discrete k-point grid and not necessarily exact.
  | For converged numbers, create a DOS and/or band structure plot on a denser k-grid.

  Highest occupied state (VBM) at     -5.41362101 eV (relative to internal zero)
  | Occupation number:      1.37591740
  | K-point:       6 at    0.000000    0.000000    0.500000 (in units of recip. lattice)

  Lowest unoccupied state (CBM) at    -5.36886871 eV (relative to internal zero)
  | Occupation number:      0.43791807
  | K-point:      44 at    0.000000    0.416667    0.000000 (in units of recip. lattice)

  ESTIMATED overall HOMO-LUMO gap:      0.04475230 eV between HOMO at k-point 6 and LUMO at k-point 44
  | This appears to be an indirect band gap.
  | Smallest direct gap :      0.34042497 eV for k_point 2 at    0.000000    0.416667    0.000000 (in units of recip. lattice)
  However, this system has fractional occupation numbers. Since we use a finite k-point grid,
  this material is metallic within the approximate finite broadening function (occupation_type)
  applied to determine the occupation numbers.

  Total energy components:
  | Sum of eigenvalues            :        -327.50398292 Ha       -8911.83680457 eV
  | XC energy correction          :         -39.43596619 Ha       -1073.10723905 eV
  | XC potential correction       :          52.10296799 Ha        1417.79389544 eV
  | Free-atom electrostatic energy:        -264.09676210 Ha       -7186.43853860 eV
  | Hartree energy correction     :           0.26866481 Ha           7.31074155 eV
  | Entropy correction            :          -0.00000701 Ha          -0.00019067 eV
  | ---------------------------
  | Total energy                  :        -578.66507841 Ha      -15746.27794523 eV
  | Total energy, T -> 0          :        -578.66508541 Ha      -15746.27813589 eV  <-- do not rely on this value for anything but (periodic) metals
  | Electronic free energy        :        -578.66509242 Ha      -15746.27832656 eV

  Derived energy quantities:
  | Kinetic energy                :         578.77843865 Ha       15749.36263441 eV
  | Electrostatic energy          :       -1118.00755087 Ha      -30422.53334059 eV
  | Energy correction for multipole
  | error in Hartree potential    :           0.00350673 Ha           0.09542287 eV
  | Sum of eigenvalues per atom                           :       -4455.91840228 eV
  | Total energy (T->0) per atom                          :       -7873.13906795 eV  <-- do not rely on this value for anything but (periodic) metals
  | Electronic free energy per atom                       :       -7873.13916328 eV

  Self-consistency convergence accuracy:
  | Change of charge density      :  0.1806E-04
  | Change of sum of eigenvalues  :  0.7025E-02 eV
  | Change of total energy        : -0.1625E-05 eV

  End self-consistency iteration #    12       :  max(cpu_time)    wall_clock(cpu1)
  | Time for this iteration                    :        1.590 s           1.589 s
  | Charge density update                      :        0.447 s           0.447 s
  | Density mixing & preconditioning           :        0.036 s           0.036 s
  | Hartree multipole update                   :        0.001 s           0.001 s
  | Hartree multipole summation                :        0.405 s           0.405 s
  | Integration                                :        0.246 s           0.246 s
  | Solution of K.-S. eqns.                    :        0.454 s           0.454 s
  | Total energy evaluation                    :        0.000 s           0.000 s

  Partial memory accounting:
  | Current value for overall tracked memory usage on task 0  :          10.456 MB
  | Peak value for overall tracked memory usage on task 0     :          11.991 MB after allocating wave
  | Largest tracked array allocation on task 0 so far         :           9.999 MB  when allocating +KS_eigenvector_complex
  Note:  These values currently only include a subset of arrays which are explicitly tracked.
  The "true" memory usage will be greater.
------------------------------------------------------------

------------------------------------------------------------
          Begin self-consistency iteration #   13

  Date     :  20190514, Time     :  124235.575
------------------------------------------------------------
  Evaluating new KS density using the density matrix
  Evaluating density matrix
  Time summed over all CPUs for getting density from density matrix: real work        0.406 s, elapsed        0.406 s
  Integration grid: deviation in total charge (<rho> - N_e) =   8.203216E-12
  Pulay mixing of updated and previous charge densities.

  Evaluating partitioned Hartree potential by multipole expansion.
  | Analytical far-field extrapolation by fixed multipoles:
  | Hartree multipole sum: apparent total charge =   0.146369E-02
  Summing up the Hartree potential.
  Time summed over all CPUs for potential: real work        0.404 s, elapsed        0.404 s
  | RMS charge density error from multipole expansion :   0.399838E-02
  | Average real-space part of the electrostatic potential :     -0.00415841 eV

  Integrating Hamiltonian matrix: batch-based integration.
  Time summed over all CPUs for integration: real work        0.248 s, elapsed        0.248 s

  Updating Kohn-Sham eigenvalues, eigenvectors, occupation numbers, and Fermi level.
  Solving generalized eigenproblem

  Obtaining occupation numbers and chemical potential using ELSI.
  | Chemical potential (Fermi level):    -5.39629079eV
  What follows are estimated values for band gap, HOMO, LUMO, etc.
  | They are estimated on a discrete k-point grid and not necessarily exact.
  | For converged numbers, create a DOS and/or band structure plot on a denser k-grid.

  Highest occupied state (VBM) at     -5.41361727 eV (relative to internal zero)
  | Occupation number:      1.37591340
  | K-point:     615 at    0.500000    0.000000    0.000000 (in units of recip. lattice)

  Lowest unoccupied state (CBM) at    -5.36886495 eV (relative to internal zero)
  | Occupation number:      0.43791436
  | K-point:     507 at    0.416667    0.000000    0.000000 (in units of recip. lattice)

  ESTIMATED overall HOMO-LUMO gap:      0.04475232 eV between HOMO at k-point 615 and LUMO at k-point 507
  | This appears to be an indirect band gap.
  | Smallest direct gap :      0.34042573 eV for k_point 8 at    0.416667    0.000000    0.000000 (in units of recip. lattice)
  However, this system has fractional occupation numbers. Since we use a finite k-point grid,
  this material is metallic within the approximate finite broadening function (occupation_type)
  applied to determine the occupation numbers.

  Total energy components:
  | Sum of eigenvalues            :        -327.50396064 Ha       -8911.83619832 eV
  | XC energy correction          :         -39.43596769 Ha       -1073.10727983 eV
  | XC potential correction       :          52.10296997 Ha        1417.79394936 eV
  | Free-atom electrostatic energy:        -264.09676210 Ha       -7186.43853860 eV
  | Hartree energy correction     :           0.26864205 Ha           7.31012205 eV
  | Entropy correction            :          -0.00000701 Ha          -0.00019067 eV
  | ---------------------------
  | Total energy                  :        -578.66507841 Ha      -15746.27794533 eV
  | Total energy, T -> 0          :        -578.66508542 Ha      -15746.27813600 eV  <-- do not rely on this value for anything but (periodic) metals
  | Electronic free energy        :        -578.66509242 Ha      -15746.27832667 eV

  Derived energy quantities:
  | Kinetic energy                :         578.77845941 Ha       15749.36319941 eV
  | Electrostatic energy          :       -1118.00757014 Ha      -30422.53386492 eV
  | Energy correction for multipole
  | error in Hartree potential    :           0.00350671 Ha           0.09542243 eV
  | Sum of eigenvalues per atom                           :       -4455.91809916 eV
  | Total energy (T->0) per atom                          :       -7873.13906800 eV  <-- do not rely on this value for anything but (periodic) metals
  | Electronic free energy per atom                       :       -7873.13916333 eV

  Self-consistency convergence accuracy:
  | Change of charge density      :  0.8909E-06
  | Change of sum of eigenvalues  :  0.6063E-03 eV
  | Change of total energy        : -0.1061E-06 eV

  Preliminary charge convergence reached. Turning off preconditioner.

  Writing Kohn-Sham eigenvalues.
  K-point:       1 at    0.000000    0.000000    0.000000 (in units of recip. lattice)

  State    Occupation    Eigenvalue [Ha]    Eigenvalue [eV]
      1       2.00000         -65.515028        -1782.75461
      2       2.00000         -65.515028        -1782.75461
      3       2.00000          -5.107429         -138.98022
      4       2.00000          -5.107408         -138.97964
      5       2.00000          -3.521830          -95.83386
      6       2.00000          -3.521830          -95.83386
      7       2.00000          -3.521830          -95.83386
      8       2.00000          -3.521758          -95.83192
      9       2.00000          -3.521758          -95.83192
     10       2.00000          -3.521758          -95.83192
     11       2.00000          -0.537331          -14.62152
     12       2.00000          -0.247111           -6.72422
     13       0.23571          -0.196769           -5.35437
     14       0.23571          -0.196769           -5.35437
     15       0.23571          -0.196769           -5.35437
     16       0.00000          -0.115795           -3.15093
     17       0.00000          -0.115795           -3.15093
     18       0.00000          -0.115795           -3.15093
     19       0.00000           0.094398            2.56870
     20       0.00000           0.094398            2.56870

  What follows are estimated values for band gap, HOMO, LUMO, etc.
  | They are estimated on a discrete k-point grid and not necessarily exact.
  | For converged numbers, create a DOS and/or band structure plot on a denser k-grid.

  Highest occupied state (VBM) at     -5.41361727 eV (relative to internal zero)
  | Occupation number:      1.37591340
  | K-point:     615 at    0.500000    0.000000    0.000000 (in units of recip. lattice)

  Lowest unoccupied state (CBM) at    -5.36886495 eV (relative to internal zero)
  | Occupation number:      0.43791436
  | K-point:     507 at    0.416667    0.000000    0.000000 (in units of recip. lattice)

  ESTIMATED overall HOMO-LUMO gap:      0.04475232 eV between HOMO at k-point 615 and LUMO at k-point 507
  | This appears to be an indirect band gap.
  | Smallest direct gap :      0.34042573 eV for k_point 8 at    0.416667    0.000000    0.000000 (in units of recip. lattice)
  However, this system has fractional occupation numbers. Since we use a finite k-point grid,
  this material is metallic within the approximate finite broadening function (occupation_type)
  applied to determine the occupation numbers.

  Self-consistency cycle converged.

  End self-consistency iteration #    13       :  max(cpu_time)    wall_clock(cpu1)
  | Time for this iteration                    :        1.596 s           1.596 s
  | Charge density update                      :        0.449 s           0.449 s
  | Density mixing                             :        0.036 s           0.036 s
  | Hartree multipole update                   :        0.001 s           0.000 s
  | Hartree multipole summation                :        0.408 s           0.408 s
  | Integration                                :        0.248 s           0.248 s
  | Solution of K.-S. eqns.                    :        0.454 s           0.454 s
  | Total energy evaluation                    :        0.000 s           0.001 s

  Partial memory accounting:
  | Current value for overall tracked memory usage on task 0  :          10.456 MB
  | Peak value for overall tracked memory usage on task 0     :          11.991 MB after allocating wave
  | Largest tracked array allocation on task 0 so far         :           9.999 MB  when allocating +KS_eigenvector_complex
  Note:  These values currently only include a subset of arrays which are explicitly tracked.
  The "true" memory usage will be greater.
------------------------------------------------------------

  Energy and forces in a compact form:
  | Total energy uncorrected      :         -0.157462779453325E+05 eV
  | Total energy corrected        :         -0.157462781359996E+05 eV  <-- do not rely on this value for anything but (periodic) metals
  | Electronic free energy        :         -0.157462783266667E+05 eV

  ------------------------------------ 
  Start decomposition of the XC Energy 
  ------------------------------------ 
  X and C from original XC functional choice 
  Hartree-Fock Energy :          0.000000000 Ha              0.000000000 eV
  X Energy            :        -37.310533583 Ha          -1015.271275236 eV
  C Energy            :         -2.125434102 Ha            -57.836004591 eV
  Total XC Energy     :        -39.435967686 Ha          -1073.107279827 eV
  ------------------------------------ 
  LDA X and C from self-consistent density 
  X Energy LDA        :        -37.310533583 Ha          -1015.271275236 eV
  C Energy LDA        :         -2.125434102 Ha            -57.836004591 eV
  ------------------------------------ 
  End decomposition of the XC Energy 
  ------------------------------------ 

------------------------------------------------------------

------------------------------------------------------------------------------
  Final output of selected total energy values:

  The following output summarizes some interesting total energy values
  at the end of a run (AFTER all relaxation, molecular dynamics, etc.).

  | Total energy of the DFT / Hartree-Fock s.c.f. calculation      :         -15746.277945332 eV
  | Final zero-broadening corrected energy (caution - metals only) :         -15746.278136000 eV
  | For reference only, the value of 1 Hartree used in FHI-aims is :             27.211384500 eV

  Before relying on these values, please be sure to understand exactly which
  total energy value is referred to by a given number. Different objects may
  all carry the same name 'total energy'. Definitions:

  Total energy of the DFT / Hartree-Fock s.c.f. calculation:
  | Note that this energy does not include ANY quantities calculated after the
  | s.c.f. cycle, in particular not ANY RPA, MP2, etc. many-body perturbation terms.

  Final zero-broadening corrected energy:
  | For metallic systems only, a broadening of the occupation numbers at the Fermi
  | level can be extrapolated back to zero broadening by an electron-gas inspired
  | formula. For all systems that are not real metals, this value can be
  | meaningless and should be avoided.

------------------------------------------------------------------------------
  Methods described in the following list of references were used in this FHI-aims run.
  If you publish the results, please make sure to cite these reference if they apply.
  FHI-aims is an academic code, and for our developers (often, Ph.D. students
  and postdocs), scientific credit in the community is essential.
  Thank you for helping us!

  For any use of FHI-aims, please cite:

    Volker Blum, Ralf Gehrke, Felix Hanke, Paula Havu, Ville Havu,
    Xinguo Ren, Karsten Reuter, and Matthias Scheffler
    'Ab initio molecular simulations with numeric atom-centered orbitals'
    Computer Physics Communications 180, 2175-2196 (2009)
    http://dx.doi.org/10.1016/j.cpc.2009.06.022


  For the real-space grid partitioning and parallelization used in this calculation, please cite:

    Ville Havu, Volker Blum, Paula Havu, and Matthias Scheffler,
    'Efficient O(N) integration for all-electron electronic structure calculation'
    'using numerically tabulated basis functions'
    Journal of Computational Physics 228, 8367-8379 (2009).
    http://dx.doi.org/10.1016/j.jcp.2009.08.008

  Of course, there are many other important community references, e.g., those cited in the
  above references. Our list is limited to references that describe implementations in the
  FHI-aims code. The reason is purely practical (length of this list) - please credit others as well.

------------------------------------------------------------
          Leaving FHI-aims.
          Date     :  20190514, Time     :  124237.179

          Computational steps:
          | Number of self-consistency cycles          :           13
          | Number of SCF (re)initializations          :            1

          Detailed time accounting                     :  max(cpu_time)    wall_clock(cpu1)
          | Total time                                 :       22.329 s          22.333 s
          | Preparation time                           :        0.090 s           0.090 s
          | Boundary condition initalization           :        0.034 s           0.034 s
          | Grid partitioning                          :        0.022 s           0.022 s
          | Preloading free-atom quantities on grid    :        0.001 s           0.001 s
          | Free-atom superposition energy             :        0.021 s           0.021 s
          | Total time for integrations                :        3.675 s           3.674 s
          | Total time for solution of K.-S. equations :        6.838 s           6.843 s
          | Total time for density update              :        5.840 s           5.841 s
          | Total time for mixing & preconditioning    :        0.474 s           0.475 s
          | Total time for Hartree multipole update    :        0.010 s           0.010 s
          | Total time for Hartree multipole sum       :        5.228 s           5.228 s
          | Total time for total energy evaluation     :        0.004 s           0.005 s
          | Total time for scaled ZORA corrections     :        0.000 s           0.000 s

 This is a stub MPI_ALLREDUCE call.
 You should not be here. Check your
 setting on the use_mpi variable, or
 link against true MPI-libraries.
