------------------------------------------------------------
          Invoking FHI-aims ...
          Version 171221_1
          Compiled on 2019/05/06 at 14:26:40 on host ffph0xx.

          When using FHI-aims, please cite the following reference:

          Volker Blum, Ralf Gehrke, Felix Hanke, Paula Havu,
          Ville Havu, Xinguo Ren, Karsten Reuter, and Matthias Scheffler,
          'Ab Initio Molecular Simulations with Numeric Atom-Centered Orbitals',
          Computer Physics Communications 180, 2175-2196 (2009)

          For any questions about FHI-aims, please visit the aimsclub website
          with its forums and wiki. Contributions to both the forums and the
          wiki are warmly encouraged - they are for you, and everyone is welcome there.

------------------------------------------------------------



  Date     :  20190509, Time     :  114702.913
  Time zero on CPU 1             :   0.100900000000000E-02  s.
  Internal wall clock time zero  :           326634422.913  s.

  FHI-aims created a unique identifier for this run for later identification
  aims_uuid : 898EC929-3085-4E70-AD4D-684DCA9794E7


  Performing system and environment tests:
  *** Environment variable OMP_NUM_THREADS is not set
  *** For performance reasons you might want to set it to 1
  | Stacksize not measured: no C compiler

  Obtaining array dimensions for all initial allocations:
  
  -----------------------------------------------------------------------
  Parsing control.in (first pass over file, find array dimensions only).
  The contents of control.in will be repeated verbatim below
  unless switched off by setting 'verbatim_writeout .false.' .
  in the first line of control.in .
  -----------------------------------------------------------------------
  
  # Sample input file for the relaxation
  # of the H3O+ molecule
  #######################################
    xc  pw-lda
    charge 1.0
    spin none
  
  #######Iteration limit####################
    sc_iter_limit 100
  
  #######Relaxation######################
    ####relax_geometry trm 1E-3
  
  #######Species#########################
  ################################################################################
  #
  #  FHI-aims code project
  #  VB, Fritz-Haber Institut, 2009
  #
  #  Suggested "light" defaults for H atom (to be pasted into control.in file)
  #  Be sure to double-check any results obtained with these settings for post-processing,
  #  e.g., with the "tight" defaults and larger basis sets.
  #
  ################################################################################
    species        H
  #     global species definitions
      nucleus             1
      mass                1.00794
  #
      l_hartree           4
  #
      cut_pot             3.5  1.5  1.0
      basis_dep_cutoff    1e-4
  #
      radial_base         24 5.0
      radial_multiplier   1
      angular_grids       specified
        division   0.2421   50
        division   0.3822  110
        division   0.4799  194
        division   0.5341  302
  #      division   0.5626  434
  #      division   0.5922  590
  #      division   0.6542  770
  #      division   0.6868 1202
  #      outer_grid  770
        outer_grid  302
  ################################################################################
  #
  #  Definition of "minimal" basis
  #
  ################################################################################
  #     valence basis states
      valence      1  s   1.
  #     ion occupancy
      ion_occ      1  s   0.5
  ################################################################################
  #
  #  Suggested additional basis functions. For production calculations,
  #  uncomment them one after another (the most important basis functions are
  #  listed first).
  #
  #  Basis constructed for dimers: 0.5 A, 0.7 A, 1.0 A, 1.5 A, 2.5 A
  #
  ################################################################################
  #  "First tier" - improvements: -1014.90 meV to -62.69 meV
       hydro 2 s 2.1
       hydro 2 p 3.5
  #  "Second tier" - improvements: -12.89 meV to -1.83 meV
  #     hydro 1 s 0.85
  #     hydro 2 p 3.7
  #     hydro 2 s 1.2
  #     hydro 3 d 7
  #  "Third tier" - improvements: -0.25 meV to -0.12 meV
  #     hydro 4 f 11.2
  #     hydro 3 p 4.8
  #     hydro 4 d 9
  #     hydro 3 s 3.2
  ################################################################################
  #
  #  FHI-aims code project
  #  VB, Fritz-Haber Institut, 2009
  #
  #  Suggested "light" defaults for O atom (to be pasted into control.in file)
  #  Be sure to double-check any results obtained with these settings for post-processing,
  #  e.g., with the "tight" defaults and larger basis sets.
  #
  ################################################################################
    species        O
  #     global species definitions
      nucleus             8
      mass                15.9994
  #
      l_hartree           4
  #
      cut_pot             3.5  1.5  1.0
      basis_dep_cutoff    1e-4
  #
      radial_base         36 5.0
      radial_multiplier   1
       angular_grids specified
        division   0.2659   50
        division   0.4451  110
        division   0.6052  194
        division   0.7543  302
  #      division   0.8014  434
  #      division   0.8507  590
  #      division   0.8762  770
  #      division   0.9023  974
  #      division   1.2339 1202
  #      outer_grid 974
        outer_grid 302
  ################################################################################
  #
  #  Definition of "minimal" basis
  #
  ################################################################################
  #     valence basis states
      valence      2  s   2.
      valence      2  p   4.
  #     ion occupancy
      ion_occ      2  s   1.
      ion_occ      2  p   3.
  ################################################################################
  #
  #  Suggested additional basis functions. For production calculations,
  #  uncomment them one after another (the most important basis functions are
  #  listed first).
  #
  #  Constructed for dimers: 1.0 A, 1.208 A, 1.5 A, 2.0 A, 3.0 A
  #
  ################################################################################
  #  "First tier" - improvements: -699.05 meV to -159.38 meV
       hydro 2 p 1.8
       hydro 3 d 7.6
       hydro 3 s 6.4
  #  "Second tier" - improvements: -49.91 meV to -5.39 meV
  #     hydro 4 f 11.6
  #     hydro 3 p 6.2
  #     hydro 3 d 5.6
  #     hydro 5 g 17.6
  #     hydro 1 s 0.75
  #  "Third tier" - improvements: -2.83 meV to -0.50 meV
  #     ionic 2 p auto
  #     hydro 4 f 10.8
  #     hydro 4 d 4.7
  #     hydro 2 s 6.8
  #  "Fourth tier" - improvements: -0.40 meV to -0.12 meV
  #     hydro 3 p 5
  #     hydro 3 s 3.3
  #     hydro 5 g 15.6
  #     hydro 4 f 17.6
  #     hydro 4 d 14
  # Further basis functions - -0.08 meV and below
  #     hydro 3 s 2.1
  #     hydro 4 d 11.6
  #     hydro 3 p 16
  #     hydro 2 s 17.2
  /afs/ictp.it/public/shared/smr2475/fhi-aims/species_defaults/light/01_H_default
  compute_forces .true.
  final_forces_cleaned .true.
  output dipole
  
  -----------------------------------------------------------------------
  Completed first pass over input file control.in .
  -----------------------------------------------------------------------
  
  
  -----------------------------------------------------------------------
  Parsing geometry.in (first pass over file, find array dimensions only).
  The contents of geometry.in will be repeated verbatim below
  unless switched off by setting 'verbatim_writeout .false.' .
  in the first line of geometry.in .
  -----------------------------------------------------------------------
  
  #
  # temporary structure-file for finite-difference calculation of forces
  # displacement   0.0020 of \# atom     0 direction     1
  #
  atom    0.00000000    0.00201836    0.19077151   O
  atom    0.82425584   -0.47587261    0.47423563   H
  atom   -0.82425584   -0.47587261    0.47423563   H
  atom   -0.00000000    0.95172688    0.47446636   H
  
  -----------------------------------------------------------------------
  Completed first pass over input file geometry.in .
  -----------------------------------------------------------------------
  

  Basic array size parameters:
  | Number of species                 :        2
  | Number of atoms                   :        4
  | Max. basis fn. angular momentum   :        2
  | Max. atomic/ionic basis occupied n:        2
  | Max. number of basis fn. types    :        2
  | Max. radial fns per species/type  :        3
  | Max. logarithmic grid size        :     1301
  | Max. radial integration grid size :       36
  | Max. angular integration grid size:      302
  | Max. angular grid division number :        8
  | Radial grid for Hartree potential :     1301
  | Number of spin channels           :        1

------------------------------------------------------------
          Reading file control.in.
------------------------------------------------------------
  XC: Using Perdew-Wang parametrisation of Ceperley-Alder LDA.
  Charged system requested: Charge =   0.100000E+01.
  Spin treatment: No spin polarisation.
  Maximum number of s.-c. iterations  :   100

  Reading configuration options for species H                   .
  | Found nuclear charge :   1.0000
  | Found atomic mass :    1.0079400000000001      amu
  | Found l_max for Hartree potential  :   4
  | Found cutoff potl. onset [A], width [A], scale factor :    3.50000    1.50000    1.00000
  | Threshold for basis-dependent cutoff potential is   0.100000E-03
  | Found data for basic radial integration grid :    24 points, outermost radius =    5.000 A
  | Found multiplier for basic radial grid :   1
  | Found angular grid specification: user-specified.
  | Specified grid contains     5 separate shells.
  | Check grid settings after all constraints further below.
  | Found free-atom valence shell :  1 s   1.000
  | No ionic wave fns used. Skipping ion_occ.
  | Found hydrogenic basis function :  2 s   2.100
  | Found hydrogenic basis function :  2 p   3.500
  Species H                   : Missing cutoff potential type.
  Defaulting to exp(1/x)/(1-x)^2 type cutoff potential.
  Species H : No 'logarithmic' tag. Using default grid for free atom:
  | Default logarithmic grid data [bohr] : 0.1000E-03 0.1000E+03 0.1012E+01
  Species H : On-site basis accuracy parameter (for Gram-Schmidt orthonormalisation) not specified.
  Using default value basis_acc =  0.1000000E-03.
  Species H                   : Using default innermost maximum threshold i_radial=  2 for radial functions.
  Species H                   : Default cutoff onset for free atom density etc. : 0.35000000E+01 AA.
  Species H                   : Basic radial grid will be enhanced according to radial_multiplier =   1, to contain    24 grid points.

  Reading configuration options for species O                   .
  | Found nuclear charge :   8.0000
  | Found atomic mass :    15.999400000000000      amu
  | Found l_max for Hartree potential  :   4
  | Found cutoff potl. onset [A], width [A], scale factor :    3.50000    1.50000    1.00000
  | Threshold for basis-dependent cutoff potential is   0.100000E-03
  | Found data for basic radial integration grid :    36 points, outermost radius =    5.000 A
  | Found multiplier for basic radial grid :   1
  | Found angular grid specification: user-specified.
  | Specified grid contains     5 separate shells.
  | Check grid settings after all constraints further below.
  | Found free-atom valence shell :  2 s   2.000
  | Found free-atom valence shell :  2 p   4.000
  | No ionic wave fns used. Skipping ion_occ.
  | No ionic wave fns used. Skipping ion_occ.
  | Found hydrogenic basis function :  2 p   1.800
  | Found hydrogenic basis function :  3 d   7.600
  | Found hydrogenic basis function :  3 s   6.400
  Species O                   : Missing cutoff potential type.
  Defaulting to exp(1/x)/(1-x)^2 type cutoff potential.
  Species O : No 'logarithmic' tag. Using default grid for free atom:
  | Default logarithmic grid data [bohr] : 0.1000E-03 0.1000E+03 0.1012E+01
  Species O : On-site basis accuracy parameter (for Gram-Schmidt orthonormalisation) not specified.
  Using default value basis_acc =  0.1000000E-03.
  Species O                   : Using default innermost maximum threshold i_radial=  2 for radial functions.
  Species O                   : Default cutoff onset for free atom density etc. : 0.35000000E+01 AA.
  Species O                   : Basic radial grid will be enhanced according to radial_multiplier =   1, to contain    36 grid points.
  Forces will be computed.
  Cleaning forces before final output.
  Dipole moment will be written out.

  Finished reading input file 'control.in'. Consistency checks are next.

  MPI_IN_PLACE appears to work with this MPI implementation.
  | Keeping use_mpi_in_place .true. (see manual).
  Target number of points in a grid batch is not set. Defaulting to  100
  Method for grid partitioning is not set. Defaulting to 'maxmin' partitioning.
  Batch size limit is not set. Defaulting to    200
  By default, will store active basis functions for each batch.
  If in need of memory, prune_basis_once .false. can be used to disable this option.
  communication_type for Hartree potential was not specified.
  Defaulting to calc_hartree .
 * Attention: 
 * You may want to set distributed_spline_storage to .true. in order to save memory.
 * This doesn't harm performance and is perfectly ok unless:
 * - you get error messages in postprocessing (about missing atoms in get_rho_multipole_spl)
 * - you need full spline storage in hirshfeld_analysis
  Defaulting to Pulay charge density mixer.
  Pulay mixer: Number of relevant iterations not set.
  Defaulting to    8 iterations.
  Pulay mixer: Number of initial linear mixing iterations not set.
  Defaulting to    0 iterations.
  Work space size for distributed Hartree potential not set.
  Defaulting to   0.200000E+03 MB.
  Mixing parameter for charge density mixing has not been set.
  Using default: charge_mix_param =     0.0500.
  The mixing parameter will be adjusted in iteration number     2 of the first full s.c.f. cycle only.
  Algorithm-dependent basis array size parameters:
  | n_max_pulay                         :        8
 * Notice: The s.c.f. convergence criterion sc_accuracy_rho was not provided.
 * We used to stop in this case, and ask the user to provide reasonable
 * scf convergence criteria. However, this led some users to employ criteria
 * that led to extremely long run times, e.g., for simple relaxation.
 * We now preset a default value for sc_accuracy_rho if it is not set.
 * You may still wish to check if this setting is too tight or too loose for your needs.
 * Based on n_atoms, FHI-aims chose sc_accuracy_rho =  0.100000E-05 .
  Presetting      1001 iterations before the initial mixing cycle
  is restarted anyway using the sc_init_iter criterion / keyword.
  Presetting a factor      1.000 between actual scf density residual
  and density convergence criterion sc_accuracy_rho below which sc_init_iter
  takes no effect.
 * No s.c.f. convergence criteria (sc_accuracy_*) were provided in control.in.
 * The run will proceed with a reasonable default guess, but please check whether.
 * the s.c.f. cycles seem to take too much or too little time.
  Geometry relaxation not requested: no relaxation will be performed.
  Force calculation: scf convergence accuracy of forces not set.
  Defaulting to 'sc_accuracy_forces not_checked'.
  Handling of forces: Unphysical translation and rotation will be removed from forces.
  No accuracy limit for integral partition fn. given. Defaulting to  0.1000E-14.
  No threshold value for u(r) in integrations given. Defaulting to  0.1000E-05.
  No occupation type (smearing scheme) given. Defaulting to Gaussian broadening, width =  0.1000E-01 eV.
  The width will be adjusted in iteration number     2 of the first full s.c.f. cycle only.
  S.C.F. convergence parameters will be adjusted in iteration number     2 of the first full s.c.f. cycle only.
  No accuracy for occupation numbers given. Defaulting to  0.1000E-12.
  No threshold value for occupation numbers given. Defaulting to  0.0000E+00.
  No accuracy for fermi level given. Defaulting to  0.1000E-19.
  Maximum # of iterations to find E_F not set. Defaulting to  200.
  Preferred method for the eigenvalue solver ('KS_method') not specified in 'control.in'.
  Defaulting to serial version, 'lapack_fast'.
  Will not use alltoall communication since running on < 1024 CPUs.
  Threshold for basis singularities not set.
  Default threshold for basis singularities:  0.1000E-04
  partition_type (choice of integration weights) for integrals was not specified.
  | Using a version of the partition function of Stratmann and coworkers ('stratmann_smoother').
  | At each grid point, the set of atoms used to build the partition table is smoothly restricted to
  | only those atoms whose free-atom density would be non-zero at that grid point.
  Partitioning for Hartree potential was not defined. Using partition_type for integrals.
  | Adjusted default value of keyword multip_moments_threshold to:       0.10000000E-11
  | This value may affect high angular momentum components of the Hartree potential in periodic systems.
  No q(lm)/r^(l+1) cutoff set for long-range Hartree potential.
  | Using default value of  0.100000E-09 .
  | Verify using the multipole_threshold keyword.
  Defaulting to new monopole extrapolation.
  Density update method: automatic selection selected.
------------------------------------------------------------


------------------------------------------------------------
          Reading geometry description geometry.in.
------------------------------------------------------------
 * Warning: Initial charge and total charge of the system are inconsistent.
 * Selected charge in control.in:     1.0000* Sum of initial charges in geometry.in:     0.0000
 * Warning! You did not set the 'relativistic' flag in input file 'control.in'.
 * Since you are not attempting to treat any elements beyond Ca(Z=20), FHI-aims
 * will default to 'relativistic none'.
 * You must ensure that this is really what you want!!
 * For example, DO NOT compute total-energy differences between results from
 * different settings of the 'relativistic' flag.
  Input structure read successfully.
  The structure contains        4 atoms,  and a total of         10.000 electrons.

  Input geometry:
  | No unit cell requested.
  | Atomic structure:
  |       Atom                x [A]            y [A]            z [A]
  |    1: Species O             0.00000000        0.00201836        0.19077151
  |    2: Species H             0.82425584       -0.47587261        0.47423563
  |    3: Species H            -0.82425584       -0.47587261        0.47423563
  |    4: Species H            -0.00000000        0.95172688        0.47446636
  |

  | The smallest distance between any two atoms is         0.99117559 AA.
  |
  | The first atom of this pair is atom number                      1 .
  | The second atom of this pair is atom number                     4 .

  Number of empty states per atom not set in control.in - providing a guess from actual geometry.
  | Total number of empty states used during s.c.f. cycle:        8
  If you use a very high smearing, use empty_states (per atom!) in control.in to increase this value.

  Structure-dependent array size parameters: 
  | Maximum number of distinct radial functions  :        9
  | Maximum number of basis functions            :       29
  | Number of Kohn-Sham states (occupied + empty):       13
------------------------------------------------------------

------------------------------------------------------------
          Preparing all fixed parts of the calculation.
------------------------------------------------------------
  Determining machine precision:
     2.2250738585072014E-308
  Setting up grids for atomic and cluster calculations.

  Creating wave function, potential, and density for free atoms.

  Species: H

  List of occupied orbitals and eigenvalues:
    n    l              occ      energy [Ha]    energy [eV]
    1    0           1.0000        -0.232375        -6.3233


  Species: O

  List of occupied orbitals and eigenvalues:
    n    l              occ      energy [Ha]    energy [eV]
    1    0           2.0000       -18.757744      -510.4242
    2    0           2.0000        -0.870917       -23.6989
    2    1           4.0000        -0.337950        -9.1961

  Creating fixed part of basis set: Ionic, confined, hydrogenic.

  H                    hydrogenic:

  List of hydrogenic basis orbitals: 
    n    l      effective z      eigenvalue [eV]  inner max. [A]     outer max. [A]     outer radius [A]   
    2    0         2.100000       -14.9728           0.193243           1.317208           4.583499
    2    1         3.500000       -41.6669           0.602369           0.602369           3.723403


  O                    hydrogenic:

  List of hydrogenic basis orbitals: 
    n    l      effective z      eigenvalue [eV]  inner max. [A]     outer max. [A]     outer radius [A]   
    2    1         1.800000       -10.9749           1.164242           1.164242           4.578029
    3    2         7.600000       -87.3180           0.624125           0.624125           3.251020
    3    0         6.400000       -61.9207           0.061167           1.081902           4.001998


  Adding cutoff potential to free-atom effective potential.
  Creating atomic-like basis functions for current effective potential.

  Species H                   :

  List of atomic basis orbitals and eigenvalues:
    n    l      energy [Ha]    energy [eV]    outer radius [A]
    1    0        -0.232375        -6.3233       4.527807


  Species O                   :

  List of atomic basis orbitals and eigenvalues:
    n    l      energy [Ha]    energy [eV]    outer radius [A]
    1    0       -18.757744      -510.4242       1.433179
    2    0        -0.870917       -23.6989       4.413171
    2    1        -0.337950        -9.1961       4.522403

  Assembling full basis from fixed parts.
  | Species H :   atomic orbital   1 s accepted.
  | Species H :    hydro orbital   2 s accepted.
  | Species H :    hydro orbital   2 p accepted.
  | Species O :   atomic orbital   1 s accepted.
  | Species O :    hydro orbital   3 s accepted.
  | Species O :   atomic orbital   2 s accepted.
  | Species O :   atomic orbital   2 p accepted.
  | Species O :    hydro orbital   2 p accepted.
  | Species O :    hydro orbital   3 d accepted.

  Basis size parameters after reduction:
  | Total number of radial functions:        9
  | Total number of basis functions :       29

  Per-task memory consumption for arrays in subroutine allocate_ext:
  |           2.249476MB.
  Testing on-site integration grid accuracy.
  |  Species  Function  <phi|h_atom|phi> (log., in eV)  <phi|h_atom|phi> (rad., in eV)
           1        1                 -6.3245358373                 -6.3232436907
           1        2                 14.1326137532                 14.1384481100
           1        3                 25.3627025200                 25.3628451197
           2        4               -510.4241781769               -510.4240769412
           2        5                 14.9072942218                 14.9072945276
           2        6                -21.2004736467                -21.2005650544
           2        7                 -9.1962086499                 -9.1963509828
           2        8                  8.1896755011                  8.1702200086
           2        9                 45.7920584945                 45.7920228528

  Preparing densities etc. for the partition functions (integrals / Hartree potential).

  Preparations completed.
  max(cpu_time)          :      0.047 s.
  Wall clock time (cpu1) :      0.047 s.
------------------------------------------------------------

------------------------------------------------------------
          Begin self-consistency loop: Initialization.

          Date     :  20190509, Time     :  114702.962
------------------------------------------------------------

  Initializing index lists of integration centers etc. from given atomic structure:
  | Number of centers in hartree potential         :         4
  | Number of centers in hartree multipole         :         4
  | Number of centers in electron density summation:         4
  | Number of centers in basis integrals           :         4
  | Number of centers in integrals                 :         4
  | Number of centers in hamiltonian               :         4
  Partitioning the integration grid into batches with maxmin method.
  | Maximal weight for a single point:     1.000
  | Minimal weight for a single point:     0.000
  | Number of batches:      256
  | Maximal batch size:      83
  | Minimal batch size:      78
  | Average batch size:      80.719
  | Standard deviation of batch sizes:       1.484
  Initializing partition tables, free-atom densities, potentials, etc. across the integration grid (initialize_grid_storage).
  | initialize_grid_storage: Actual outermost partition radius vs. multipole_radius_free
  | (-- VB: in principle, multipole_radius_free should be larger, hence this output)
  | Species        1: Confinement radius =              4.999999999999999 AA, multipole_radius_free =              5.054417573612229 AA.
  | Species        1: outer_partition_radius set to              5.054417573612229 AA .
  | Species        2: Confinement radius =              4.999999999999999 AA, multipole_radius_free =              5.048384829883283 AA.
  | Species        2: outer_partition_radius set to              5.048384829883283 AA .
  | Original list of interatomic distances with           4 x          4 entries is created.
  | Net number of integration points:    20664
  | of which are non-zero points    :    18387
  Renormalizing the initial density to the exact electron count on the 3D integration grid.
  | Initial density: Formal number of electrons (from input files) :      11.0000000000
  | Integrated number of electrons on 3D grid     :      10.9999414184
  | Charge integration error                      :      -0.0000585816
  | Normalization factor for density and gradient :       1.0000053256
  Obtaining max. number of non-zero basis functions in each batch (get_n_compute_maxes).
  | Maximal number of non-zero basis functions:       29 in task     0
  Selecting the method for density update.
  Loop over occupied states selected for charge density update.
  Allocating        0.003 MB for KS_eigenvector
  Integrating Hamiltonian matrix: batch-based integration.
  Time summed over all CPUs for integration: real work        0.029 s, elapsed        0.029 s
  Integrating overlap matrix.
  Time summed over all CPUs for integration: real work        0.015 s, elapsed        0.015 s

  Updating Kohn-Sham eigenvalues, eigenvectors, occupation numbers, and Fermi level.
  Solving generalized eigenproblem
  Updating Kohn-Sham eigenvalues and eigenfunctions.
  Transforming overlap matrix and checking for singularities.
  Overlap matrix is nonsingular:
  | Lowest eigenvalue:  0.147581E-01
  Solving real generalised eigenvalue problem by standard LAPACK (fast)

  Obtaining occupation numbers and chemical potential using ELSI.
  | Chemical potential (Fermi level):    -6.77921860eV
  Writing Kohn-Sham eigenvalues.

  State    Occupation    Eigenvalue [Ha]    Eigenvalue [eV]
      1       2.00000         -18.911546         -514.60935
      2       2.00000          -1.150934          -31.31850
      3       2.00000          -0.671627          -18.27591
      4       2.00000          -0.670304          -18.23991
      5       2.00000          -0.507508          -13.80998
      6       0.00000          -0.090461           -2.46156
      7       0.00000           0.001997            0.05433
      8       0.00000           0.002887            0.07856
      9       0.00000           0.199730            5.43492
     10       0.00000           0.264740            7.20393
     11       0.00000           0.264794            7.20542
     12       0.00000           0.466902           12.70505
     13       0.00000           0.668692           18.19603

  Highest occupied state (VBM) at    -13.80998446 eV
  | Occupation number:      2.00000000

  Lowest unoccupied state (CBM) at    -2.46156340 eV
  | Occupation number:      0.00000000

  Overall HOMO-LUMO gap:     11.34842107 eV.
  Calculating total energy contributions from superposition of free atom densities.

  Total energy components:
  | Sum of eigenvalues            :         -43.82383819 Ha       -1192.50731133 eV
  | XC energy correction          :          -8.86347419 Ha        -241.18740414 eV
  | XC potential correction       :          11.67113294 Ha         317.58768589 eV
  | Free-atom electrostatic energy:         -35.29705024 Ha        -960.48160572 eV
  | Hartree energy correction     :          -0.00000000 Ha          -0.00000000 eV
  | Entropy correction            :          -0.00000000 Ha          -0.00000000 eV
  | ---------------------------
  | Total energy                  :         -76.31322968 Ha       -2076.58863530 eV
  | Total energy, T -> 0          :         -76.31322968 Ha       -2076.58863530 eV  <-- do not rely on this value for anything but (periodic) metals
  | Electronic free energy        :         -76.31322968 Ha       -2076.58863530 eV

  Derived energy quantities:
  | Kinetic energy                :          75.66381685 Ha        2058.91721317 eV
  | Electrostatic energy          :        -143.11357235 Ha       -3894.31844432 eV
  | Energy correction for multipole
  | error in Hartree potential    :           0.00000000 Ha           0.00000000 eV
  | Sum of eigenvalues per atom                           :        -298.12682783 eV
  | Total energy (T->0) per atom                          :        -519.14715883 eV  <-- do not rely on this value for anything but (periodic) metals
  | Electronic free energy per atom                       :        -519.14715883 eV
  Initialize hartree_potential_storage
  Max. number of atoms included in rho_multipole:            4

  End scf initialization - timings             :  max(cpu_time)    wall_clock(cpu1)
  | Time for scf. initialization               :        0.085 s           0.085 s
  | Boundary condition initialization          :        0.000 s           0.000 s
  | Integration                                :        0.044 s           0.045 s
  | Solution of K.-S. eqns.                    :        0.001 s           0.000 s
  | Grid partitioning                          :        0.014 s           0.014 s
  | Preloading free-atom quantities on grid    :        0.001 s           0.001 s
  | Free-atom superposition energy             :        0.013 s           0.013 s
  | Total energy evaluation                    :        0.000 s           0.000 s

  Partial memory accounting:
  | Current value for overall tracked memory usage on task 0  :           0.017 MB
  | Peak value for overall tracked memory usage on task 0     :           0.075 MB after allocating wave
  | Largest tracked array allocation on task 0 so far         :           0.019 MB  when allocating H_times_psi
  Note:  These values currently only include a subset of arrays which are explicitly tracked.
  The "true" memory usage will be greater.
------------------------------------------------------------

------------------------------------------------------------
          Begin self-consistency iteration #    1

  Date     :  20190509, Time     :  114703.047
------------------------------------------------------------
  Evaluating new KS density.
  Integration grid: deviation in total charge (<rho> - N_e) =   5.329071E-15
  Pulay mixing of updated and previous charge densities.

  Evaluating partitioned Hartree potential by multipole expansion.
  | Analytical far-field extrapolation by fixed multipoles:
  | Hartree multipole sum: apparent total charge =   0.499215E-01
  Summing up the Hartree potential.
  Time summed over all CPUs for potential: real work        0.017 s, elapsed        0.017 s
  | RMS charge density error from multipole expansion :   0.486131E-03

  Integrating Hamiltonian matrix: batch-based integration.
  Time summed over all CPUs for integration: real work        0.028 s, elapsed        0.028 s

  Updating Kohn-Sham eigenvalues, eigenvectors, occupation numbers, and Fermi level.
  Solving generalized eigenproblem
  Updating Kohn-Sham eigenvalues and eigenfunctions.
  Solving real generalised eigenvalue problem by standard LAPACK (fast)

  Obtaining occupation numbers and chemical potential using ELSI.
  | Chemical potential (Fermi level):    -6.99717574eV
  Writing Kohn-Sham eigenvalues.

  State    Occupation    Eigenvalue [Ha]    Eigenvalue [eV]
      1       2.00000         -18.901995         -514.34946
      2       2.00000          -1.155079          -31.43131
      3       2.00000          -0.677057          -18.42366
      4       2.00000          -0.675746          -18.38798
      5       2.00000          -0.510149          -13.88185
      6       0.00000          -0.100764           -2.74192
      7       0.00000          -0.007648           -0.20810
      8       0.00000          -0.006736           -0.18330
      9       0.00000           0.192604            5.24101
     10       0.00000           0.254880            6.93563
     11       0.00000           0.254921            6.93675
     12       0.00000           0.456263           12.41556
     13       0.00000           0.659819           17.95458

  Highest occupied state (VBM) at    -13.88184929 eV
  | Occupation number:      2.00000000

  Lowest unoccupied state (CBM) at    -2.74192011 eV
  | Occupation number:      0.00000000

  Overall HOMO-LUMO gap:     11.13992919 eV.

  Total energy components:
  | Sum of eigenvalues            :         -43.84005167 Ha       -1192.94850256 eV
  | XC energy correction          :          -8.86661945 Ha        -241.27299094 eV
  | XC potential correction       :          11.67549776 Ha         317.70645885 eV
  | Free-atom electrostatic energy:         -35.29705024 Ha        -960.48160572 eV
  | Hartree energy correction     :           0.03279361 Ha           0.89235966 eV
  | Entropy correction            :          -0.00000000 Ha          -0.00000000 eV
  | ---------------------------
  | Total energy                  :         -76.29542998 Ha       -2076.10428071 eV
  | Total energy, T -> 0          :         -76.29542998 Ha       -2076.10428071 eV  <-- do not rely on this value for anything but (periodic) metals
  | Electronic free energy        :         -76.29542998 Ha       -2076.10428071 eV

  Derived energy quantities:
  | Kinetic energy                :          75.75290470 Ha        2061.34141692 eV
  | Electrostatic energy          :        -143.18171524 Ha       -3896.17270669 eV
  | Energy correction for multipole
  | error in Hartree potential    :           0.00050732 Ha           0.01380481 eV
  | Sum of eigenvalues per atom                           :        -298.23712564 eV
  | Total energy (T->0) per atom                          :        -519.02607018 eV  <-- do not rely on this value for anything but (periodic) metals
  | Electronic free energy per atom                       :        -519.02607018 eV

  Self-consistency convergence accuracy:
  | Change of charge density      :  0.2573E+00
  | Change of sum of eigenvalues  : -0.4412E+00 eV
  | Change of total energy        :  0.4844E+00 eV

  End self-consistency iteration #     1       :  max(cpu_time)    wall_clock(cpu1)
  | Time for this iteration                    :        0.060 s           0.060 s
  | Charge density update                      :        0.013 s           0.013 s
  | Density mixing                             :        0.000 s           0.001 s
  | Hartree multipole update                   :        0.001 s           0.001 s
  | Hartree multipole summation                :        0.017 s           0.017 s
  | Integration                                :        0.028 s           0.028 s
  | Solution of K.-S. eqns.                    :        0.000 s           0.000 s
  | Total energy evaluation                    :        0.000 s           0.000 s

  Partial memory accounting:
  | Current value for overall tracked memory usage on task 0  :           0.017 MB
  | Peak value for overall tracked memory usage on task 0     :           0.082 MB after allocating wave
  | Largest tracked array allocation on task 0 so far         :           0.019 MB  when allocating H_times_psi
  Note:  These values currently only include a subset of arrays which are explicitly tracked.
  The "true" memory usage will be greater.
------------------------------------------------------------

------------------------------------------------------------
          Begin self-consistency iteration #    2

  Date     :  20190509, Time     :  114703.107
------------------------------------------------------------
  Evaluating new KS density.
  Integration grid: deviation in total charge (<rho> - N_e) =   1.421085E-14
  Pulay mixing of updated and previous charge densities.

  Evaluating partitioned Hartree potential by multipole expansion.
  | Analytical far-field extrapolation by fixed multipoles:
  | Hartree multipole sum: apparent total charge =   0.436440E+00
  Summing up the Hartree potential.
  Time summed over all CPUs for potential: real work        0.017 s, elapsed        0.017 s
  | RMS charge density error from multipole expansion :   0.419034E-02

  Integrating Hamiltonian matrix: batch-based integration.
  Time summed over all CPUs for integration: real work        0.029 s, elapsed        0.029 s

  Updating Kohn-Sham eigenvalues, eigenvectors, occupation numbers, and Fermi level.
  Solving generalized eigenproblem
  Updating Kohn-Sham eigenvalues and eigenfunctions.
  Solving real generalised eigenvalue problem by standard LAPACK (fast)

  Obtaining occupation numbers and chemical potential using ELSI.
  | Chemical potential (Fermi level):    -8.71795615eV
  Highest occupied state (VBM) at    -14.67013248 eV
  | Occupation number:      2.00000000

  Lowest unoccupied state (CBM) at    -4.88010778 eV
  | Occupation number:      0.00000000

  Overall HOMO-LUMO gap:      9.79002470 eV.

  Checking to see if s.c.f. parameters should be adjusted.
  The system likely has a gap. Increased the default Pulay mixing parameter (charge_mix_param). Value:   0.200000 .
  Kept the default occupation width. Value:   0.010000 eV.

  Total energy components:
  | Sum of eigenvalues            :         -44.06455477 Ha       -1199.05754271 eV
  | XC energy correction          :          -8.88988655 Ha        -241.90612097 eV
  | XC potential correction       :          11.70778341 Ha         318.58499608 eV
  | Free-atom electrostatic energy:         -35.29705024 Ha        -960.48160572 eV
  | Hartree energy correction     :           0.33530162 Ha           9.12402129 eV
  | Entropy correction            :          -0.00000000 Ha          -0.00000000 eV
  | ---------------------------
  | Total energy                  :         -76.20840652 Ha       -2073.73625203 eV
  | Total energy, T -> 0          :         -76.20840652 Ha       -2073.73625203 eV  <-- do not rely on this value for anything but (periodic) metals
  | Electronic free energy        :         -76.20840652 Ha       -2073.73625203 eV

  Derived energy quantities:
  | Kinetic energy                :          76.28525700 Ha        2075.82746003 eV
  | Electrostatic energy          :        -143.60377698 Ha       -3907.65759109 eV
  | Energy correction for multipole
  | error in Hartree potential    :           0.00418517 Ha           0.11388433 eV
  | Sum of eigenvalues per atom                           :        -299.76438568 eV
  | Total energy (T->0) per atom                          :        -518.43406301 eV  <-- do not rely on this value for anything but (periodic) metals
  | Electronic free energy per atom                       :        -518.43406301 eV

  Self-consistency convergence accuracy:
  | Change of charge density      :  0.2324E+00
  | Change of sum of eigenvalues  : -0.6109E+01 eV
  | Change of total energy        :  0.2368E+01 eV

  End self-consistency iteration #     2       :  max(cpu_time)    wall_clock(cpu1)
  | Time for this iteration                    :        0.061 s           0.061 s
  | Charge density update                      :        0.012 s           0.012 s
  | Density mixing                             :        0.000 s           0.001 s
  | Hartree multipole update                   :        0.001 s           0.001 s
  | Hartree multipole summation                :        0.017 s           0.017 s
  | Integration                                :        0.029 s           0.030 s
  | Solution of K.-S. eqns.                    :        0.000 s           0.000 s
  | Total energy evaluation                    :        0.000 s           0.000 s

  Partial memory accounting:
  | Current value for overall tracked memory usage on task 0  :           0.018 MB
  | Peak value for overall tracked memory usage on task 0     :           0.083 MB after allocating wave
  | Largest tracked array allocation on task 0 so far         :           0.019 MB  when allocating H_times_psi
  Note:  These values currently only include a subset of arrays which are explicitly tracked.
  The "true" memory usage will be greater.
------------------------------------------------------------

------------------------------------------------------------
          Begin self-consistency iteration #    3

  Date     :  20190509, Time     :  114703.168
------------------------------------------------------------
  Evaluating new KS density.
  Integration grid: deviation in total charge (<rho> - N_e) =   1.243450E-14
  Pulay mixing of updated and previous charge densities.

  Evaluating partitioned Hartree potential by multipole expansion.
  | Analytical far-field extrapolation by fixed multipoles:
  | Hartree multipole sum: apparent total charge =   0.853539E+00
  Summing up the Hartree potential.
  Time summed over all CPUs for potential: real work        0.016 s, elapsed        0.016 s
  | RMS charge density error from multipole expansion :   0.782871E-02

  Integrating Hamiltonian matrix: batch-based integration.
  Time summed over all CPUs for integration: real work        0.028 s, elapsed        0.028 s

  Updating Kohn-Sham eigenvalues, eigenvectors, occupation numbers, and Fermi level.
  Solving generalized eigenproblem
  Updating Kohn-Sham eigenvalues and eigenfunctions.
  Solving real generalised eigenvalue problem by standard LAPACK (fast)

  Obtaining occupation numbers and chemical potential using ELSI.
  | Chemical potential (Fermi level):   -11.62678004eV
  Highest occupied state (VBM) at    -18.15700909 eV
  | Occupation number:      2.00000000

  Lowest unoccupied state (CBM) at    -7.59458904 eV
  | Occupation number:      0.00000000

  Overall HOMO-LUMO gap:     10.56242005 eV.

  Total energy components:
  | Sum of eigenvalues            :         -45.45067978 Ha       -1236.77592337 eV
  | XC energy correction          :          -8.79534576 Ha        -239.33353534 eV
  | XC potential correction       :          11.58433118 Ha         315.22569001 eV
  | Free-atom electrostatic energy:         -35.29705024 Ha        -960.48160572 eV
  | Hartree energy correction     :           1.78253424 Ha          48.50522446 eV
  | Entropy correction            :          -0.00000000 Ha          -0.00000000 eV
  | ---------------------------
  | Total energy                  :         -76.17621036 Ha       -2072.86014995 eV
  | Total energy, T -> 0          :         -76.17621036 Ha       -2072.86014995 eV  <-- do not rely on this value for anything but (periodic) metals
  | Electronic free energy        :         -76.17621036 Ha       -2072.86014995 eV

  Derived energy quantities:
  | Kinetic energy                :          75.81907016 Ha        2063.14187054 eV
  | Electrostatic energy          :        -143.19993476 Ha       -3896.66848515 eV
  | Energy correction for multipole
  | error in Hartree potential    :           0.00574689 Ha           0.15638070 eV
  | Sum of eigenvalues per atom                           :        -309.19398084 eV
  | Total energy (T->0) per atom                          :        -518.21503749 eV  <-- do not rely on this value for anything but (periodic) metals
  | Electronic free energy per atom                       :        -518.21503749 eV

  Self-consistency convergence accuracy:
  | Change of charge density      :  0.1082E+00
  | Change of sum of eigenvalues  : -0.3772E+02 eV
  | Change of total energy        :  0.8761E+00 eV

  End self-consistency iteration #     3       :  max(cpu_time)    wall_clock(cpu1)
  | Time for this iteration                    :        0.058 s           0.058 s
  | Charge density update                      :        0.012 s           0.012 s
  | Density mixing                             :        0.000 s           0.000 s
  | Hartree multipole update                   :        0.001 s           0.002 s
  | Hartree multipole summation                :        0.016 s           0.016 s
  | Integration                                :        0.028 s           0.028 s
  | Solution of K.-S. eqns.                    :        0.000 s           0.000 s
  | Total energy evaluation                    :        0.000 s           0.000 s

  Partial memory accounting:
  | Current value for overall tracked memory usage on task 0  :           0.018 MB
  | Peak value for overall tracked memory usage on task 0     :           0.083 MB after allocating wave
  | Largest tracked array allocation on task 0 so far         :           0.019 MB  when allocating H_times_psi
  Note:  These values currently only include a subset of arrays which are explicitly tracked.
  The "true" memory usage will be greater.
------------------------------------------------------------

------------------------------------------------------------
          Begin self-consistency iteration #    4

  Date     :  20190509, Time     :  114703.226
------------------------------------------------------------
  Evaluating new KS density.
  Integration grid: deviation in total charge (<rho> - N_e) =  -1.421085E-14
  Pulay mixing of updated and previous charge densities.

  Evaluating partitioned Hartree potential by multipole expansion.
  | Analytical far-field extrapolation by fixed multipoles:
  | Hartree multipole sum: apparent total charge =   0.100711E+01
  Summing up the Hartree potential.
  Time summed over all CPUs for potential: real work        0.016 s, elapsed        0.016 s
  | RMS charge density error from multipole expansion :   0.925411E-02

  Integrating Hamiltonian matrix: batch-based integration.
  Time summed over all CPUs for integration: real work        0.028 s, elapsed        0.028 s

  Updating Kohn-Sham eigenvalues, eigenvectors, occupation numbers, and Fermi level.
  Solving generalized eigenproblem
  Updating Kohn-Sham eigenvalues and eigenfunctions.
  Solving real generalised eigenvalue problem by standard LAPACK (fast)

  Obtaining occupation numbers and chemical potential using ELSI.
  | Chemical potential (Fermi level):   -12.34372102eV
  Highest occupied state (VBM) at    -18.92630626 eV
  | Occupation number:      2.00000000

  Lowest unoccupied state (CBM) at    -8.35857411 eV
  | Occupation number:      0.00000000

  Overall HOMO-LUMO gap:     10.56773215 eV.

  Total energy components:
  | Sum of eigenvalues            :         -45.73808413 Ha       -1244.59659356 eV
  | XC energy correction          :          -8.79145819 Ha        -239.22774901 eV
  | XC potential correction       :          11.57966744 Ha         315.09878298 eV
  | Free-atom electrostatic energy:         -35.29705024 Ha        -960.48160572 eV
  | Hartree energy correction     :           2.07304777 Ha          56.41049990 eV
  | Entropy correction            :          -0.00000000 Ha          -0.00000000 eV
  | ---------------------------
  | Total energy                  :         -76.17387735 Ha       -2072.79666542 eV
  | Total energy, T -> 0          :         -76.17387735 Ha       -2072.79666542 eV  <-- do not rely on this value for anything but (periodic) metals
  | Electronic free energy        :         -76.17387735 Ha       -2072.79666542 eV

  Derived energy quantities:
  | Kinetic energy                :          75.80082827 Ha        2062.64548354 eV
  | Electrostatic energy          :        -143.18324744 Ha       -3896.21439995 eV
  | Energy correction for multipole
  | error in Hartree potential    :           0.00666221 Ha           0.18128791 eV
  | Sum of eigenvalues per atom                           :        -311.14914839 eV
  | Total energy (T->0) per atom                          :        -518.19916636 eV  <-- do not rely on this value for anything but (periodic) metals
  | Electronic free energy per atom                       :        -518.19916636 eV

  Self-consistency convergence accuracy:
  | Change of charge density      :  0.4483E-01
  | Change of sum of eigenvalues  : -0.7821E+01 eV
  | Change of total energy        :  0.6348E-01 eV

  End self-consistency iteration #     4       :  max(cpu_time)    wall_clock(cpu1)
  | Time for this iteration                    :        0.058 s           0.059 s
  | Charge density update                      :        0.012 s           0.012 s
  | Density mixing                             :        0.000 s           0.000 s
  | Hartree multipole update                   :        0.001 s           0.002 s
  | Hartree multipole summation                :        0.016 s           0.016 s
  | Integration                                :        0.028 s           0.028 s
  | Solution of K.-S. eqns.                    :        0.000 s           0.001 s
  | Total energy evaluation                    :        0.000 s           0.000 s

  Partial memory accounting:
  | Current value for overall tracked memory usage on task 0  :           0.019 MB
  | Peak value for overall tracked memory usage on task 0     :           0.083 MB after allocating wave
  | Largest tracked array allocation on task 0 so far         :           0.019 MB  when allocating H_times_psi
  Note:  These values currently only include a subset of arrays which are explicitly tracked.
  The "true" memory usage will be greater.
------------------------------------------------------------

------------------------------------------------------------
          Begin self-consistency iteration #    5

  Date     :  20190509, Time     :  114703.285
------------------------------------------------------------
  Evaluating new KS density.
  Integration grid: deviation in total charge (<rho> - N_e) =  -1.953993E-14
  Pulay mixing of updated and previous charge densities.

  Evaluating partitioned Hartree potential by multipole expansion.
  | Analytical far-field extrapolation by fixed multipoles:
  | Hartree multipole sum: apparent total charge =   0.101051E+01
  Summing up the Hartree potential.
  Time summed over all CPUs for potential: real work        0.018 s, elapsed        0.018 s
  | RMS charge density error from multipole expansion :   0.935283E-02

  Integrating Hamiltonian matrix: batch-based integration.
  Time summed over all CPUs for integration: real work        0.029 s, elapsed        0.029 s

  Updating Kohn-Sham eigenvalues, eigenvectors, occupation numbers, and Fermi level.
  Solving generalized eigenproblem
  Updating Kohn-Sham eigenvalues and eigenfunctions.
  Solving real generalised eigenvalue problem by standard LAPACK (fast)

  Obtaining occupation numbers and chemical potential using ELSI.
  | Chemical potential (Fermi level):   -12.18289863eV
  Highest occupied state (VBM) at    -18.70849109 eV
  | Occupation number:      2.00000000

  Lowest unoccupied state (CBM) at    -8.23766063 eV
  | Occupation number:      0.00000000

  Overall HOMO-LUMO gap:     10.47083046 eV.

  Total energy components:
  | Sum of eigenvalues            :         -45.64376089 Ha       -1242.02992749 eV
  | XC energy correction          :          -8.80503302 Ha        -239.59713909 eV
  | XC potential correction       :          11.59755171 Ha         315.58543883 eV
  | Free-atom electrostatic energy:         -35.29705024 Ha        -960.48160572 eV
  | Hartree energy correction     :           1.97451520 Ha          53.72929224 eV
  | Entropy correction            :          -0.00000000 Ha          -0.00000000 eV
  | ---------------------------
  | Total energy                  :         -76.17377724 Ha       -2072.79394122 eV
  | Total energy, T -> 0          :         -76.17377724 Ha       -2072.79394122 eV  <-- do not rely on this value for anything but (periodic) metals
  | Electronic free energy        :         -76.17377724 Ha       -2072.79394122 eV

  Derived energy quantities:
  | Kinetic energy                :          75.84851273 Ha        2063.94304363 eV
  | Electrostatic energy          :        -143.21725695 Ha       -3897.13984577 eV
  | Energy correction for multipole
  | error in Hartree potential    :           0.00646098 Ha           0.17581229 eV
  | Sum of eigenvalues per atom                           :        -310.50748187 eV
  | Total energy (T->0) per atom                          :        -518.19848531 eV  <-- do not rely on this value for anything but (periodic) metals
  | Electronic free energy per atom                       :        -518.19848531 eV

  Self-consistency convergence accuracy:
  | Change of charge density      :  0.1072E-01
  | Change of sum of eigenvalues  :  0.2567E+01 eV
  | Change of total energy        :  0.2724E-02 eV

  End self-consistency iteration #     5       :  max(cpu_time)    wall_clock(cpu1)
  | Time for this iteration                    :        0.062 s           0.062 s
  | Charge density update                      :        0.012 s           0.012 s
  | Density mixing                             :        0.001 s           0.001 s
  | Hartree multipole update                   :        0.001 s           0.001 s
  | Hartree multipole summation                :        0.018 s           0.018 s
  | Integration                                :        0.029 s           0.029 s
  | Solution of K.-S. eqns.                    :        0.000 s           0.000 s
  | Total energy evaluation                    :        0.000 s           0.000 s

  Partial memory accounting:
  | Current value for overall tracked memory usage on task 0  :           0.019 MB
  | Peak value for overall tracked memory usage on task 0     :           0.083 MB after allocating wave
  | Largest tracked array allocation on task 0 so far         :           0.019 MB  when allocating H_times_psi
  Note:  These values currently only include a subset of arrays which are explicitly tracked.
  The "true" memory usage will be greater.
------------------------------------------------------------

------------------------------------------------------------
          Begin self-consistency iteration #    6

  Date     :  20190509, Time     :  114703.347
------------------------------------------------------------
  Evaluating new KS density.
  Integration grid: deviation in total charge (<rho> - N_e) =   1.421085E-14
  Pulay mixing of updated and previous charge densities.

  Evaluating partitioned Hartree potential by multipole expansion.
  | Analytical far-field extrapolation by fixed multipoles:
  | Hartree multipole sum: apparent total charge =   0.100144E+01
  Summing up the Hartree potential.
  Time summed over all CPUs for potential: real work        0.017 s, elapsed        0.017 s
  | RMS charge density error from multipole expansion :   0.925950E-02

  Integrating Hamiltonian matrix: batch-based integration.
  Time summed over all CPUs for integration: real work        0.028 s, elapsed        0.028 s

  Updating Kohn-Sham eigenvalues, eigenvectors, occupation numbers, and Fermi level.
  Solving generalized eigenproblem
  Updating Kohn-Sham eigenvalues and eigenfunctions.
  Solving real generalised eigenvalue problem by standard LAPACK (fast)

  Obtaining occupation numbers and chemical potential using ELSI.
  | Chemical potential (Fermi level):   -12.21244625eV
  Highest occupied state (VBM) at    -18.75859529 eV
  | Occupation number:      2.00000000

  Lowest unoccupied state (CBM) at    -8.23794449 eV
  | Occupation number:      0.00000000

  Overall HOMO-LUMO gap:     10.52065080 eV.

  Total energy components:
  | Sum of eigenvalues            :         -45.66919610 Ha       -1242.72205483 eV
  | XC energy correction          :          -8.79983928 Ha        -239.45581030 eV
  | XC potential correction       :          11.59066926 Ha         315.39815787 eV
  | Free-atom electrostatic energy:         -35.29705024 Ha        -960.48160572 eV
  | Hartree energy correction     :           2.00166246 Ha          54.46800692 eV
  | Entropy correction            :          -0.00000000 Ha          -0.00000000 eV
  | ---------------------------
  | Total energy                  :         -76.17375390 Ha       -2072.79330605 eV
  | Total energy, T -> 0          :         -76.17375390 Ha       -2072.79330605 eV  <-- do not rely on this value for anything but (periodic) metals
  | Electronic free energy        :         -76.17375390 Ha       -2072.79330605 eV

  Derived energy quantities:
  | Kinetic energy                :          75.81805990 Ha        2063.11438002 eV
  | Electrostatic energy          :        -143.19197451 Ha       -3896.45187577 eV
  | Energy correction for multipole
  | error in Hartree potential    :           0.00635506 Ha           0.17292997 eV
  | Sum of eigenvalues per atom                           :        -310.68051371 eV
  | Total energy (T->0) per atom                          :        -518.19832651 eV  <-- do not rely on this value for anything but (periodic) metals
  | Electronic free energy per atom                       :        -518.19832651 eV

  Self-consistency convergence accuracy:
  | Change of charge density      :  0.7276E-02
  | Change of sum of eigenvalues  : -0.6921E+00 eV
  | Change of total energy        :  0.6352E-03 eV

  End self-consistency iteration #     6       :  max(cpu_time)    wall_clock(cpu1)
  | Time for this iteration                    :        0.059 s           0.059 s
  | Charge density update                      :        0.012 s           0.011 s
  | Density mixing                             :        0.001 s           0.001 s
  | Hartree multipole update                   :        0.001 s           0.001 s
  | Hartree multipole summation                :        0.016 s           0.017 s
  | Integration                                :        0.029 s           0.028 s
  | Solution of K.-S. eqns.                    :        0.000 s           0.000 s
  | Total energy evaluation                    :        0.000 s           0.001 s

  Partial memory accounting:
  | Current value for overall tracked memory usage on task 0  :           0.019 MB
  | Peak value for overall tracked memory usage on task 0     :           0.084 MB after allocating wave
  | Largest tracked array allocation on task 0 so far         :           0.019 MB  when allocating H_times_psi
  Note:  These values currently only include a subset of arrays which are explicitly tracked.
  The "true" memory usage will be greater.
------------------------------------------------------------

------------------------------------------------------------
          Begin self-consistency iteration #    7

  Date     :  20190509, Time     :  114703.406
------------------------------------------------------------
  Evaluating new KS density.
  Integration grid: deviation in total charge (<rho> - N_e) =   5.329071E-15
  Pulay mixing of updated and previous charge densities.

  Evaluating partitioned Hartree potential by multipole expansion.
  | Analytical far-field extrapolation by fixed multipoles:
  | Hartree multipole sum: apparent total charge =   0.999108E+00
  Summing up the Hartree potential.
  Time summed over all CPUs for potential: real work        0.017 s, elapsed        0.017 s
  | RMS charge density error from multipole expansion :   0.925341E-02

  Integrating Hamiltonian matrix: batch-based integration.
  Time summed over all CPUs for integration: real work        0.029 s, elapsed        0.029 s

  Updating Kohn-Sham eigenvalues, eigenvectors, occupation numbers, and Fermi level.
  Solving generalized eigenproblem
  Updating Kohn-Sham eigenvalues and eigenfunctions.
  Solving real generalised eigenvalue problem by standard LAPACK (fast)

  Obtaining occupation numbers and chemical potential using ELSI.
  | Chemical potential (Fermi level):   -12.16021581eV
  Highest occupied state (VBM) at    -18.67934287 eV
  | Occupation number:      2.00000000

  Lowest unoccupied state (CBM) at    -8.19392539 eV
  | Occupation number:      0.00000000

  Overall HOMO-LUMO gap:     10.48541747 eV.

  Total energy components:
  | Sum of eigenvalues            :         -45.63876796 Ha       -1241.89406316 eV
  | XC energy correction          :          -8.80337979 Ha        -239.55215238 eV
  | XC potential correction       :          11.59532135 Ha         315.52474759 eV
  | Free-atom electrostatic energy:         -35.29705024 Ha        -960.48160572 eV
  | Hartree energy correction     :           1.97013737 Ha          53.61016560 eV
  | Entropy correction            :          -0.00000000 Ha          -0.00000000 eV
  | ---------------------------
  | Total energy                  :         -76.17373927 Ha       -2072.79290806 eV
  | Total energy, T -> 0          :         -76.17373927 Ha       -2072.79290806 eV  <-- do not rely on this value for anything but (periodic) metals
  | Electronic free energy        :         -76.17373927 Ha       -2072.79290806 eV

  Derived energy quantities:
  | Kinetic energy                :          75.82777451 Ha        2063.37872804 eV
  | Electrostatic energy          :        -143.19813399 Ha       -3896.61948372 eV
  | Energy correction for multipole
  | error in Hartree potential    :           0.00624523 Ha           0.16994147 eV
  | Sum of eigenvalues per atom                           :        -310.47351579 eV
  | Total energy (T->0) per atom                          :        -518.19822702 eV  <-- do not rely on this value for anything but (periodic) metals
  | Electronic free energy per atom                       :        -518.19822702 eV

  Self-consistency convergence accuracy:
  | Change of charge density      :  0.3744E-02
  | Change of sum of eigenvalues  :  0.8280E+00 eV
  | Change of total energy        :  0.3980E-03 eV

  End self-consistency iteration #     7       :  max(cpu_time)    wall_clock(cpu1)
  | Time for this iteration                    :        0.059 s           0.059 s
  | Charge density update                      :        0.011 s           0.011 s
  | Density mixing                             :        0.001 s           0.001 s
  | Hartree multipole update                   :        0.001 s           0.001 s
  | Hartree multipole summation                :        0.017 s           0.017 s
  | Integration                                :        0.029 s           0.029 s
  | Solution of K.-S. eqns.                    :        0.000 s           0.000 s
  | Total energy evaluation                    :        0.000 s           0.000 s

  Partial memory accounting:
  | Current value for overall tracked memory usage on task 0  :           0.019 MB
  | Peak value for overall tracked memory usage on task 0     :           0.084 MB after allocating wave
  | Largest tracked array allocation on task 0 so far         :           0.019 MB  when allocating H_times_psi
  Note:  These values currently only include a subset of arrays which are explicitly tracked.
  The "true" memory usage will be greater.
------------------------------------------------------------

------------------------------------------------------------
          Begin self-consistency iteration #    8

  Date     :  20190509, Time     :  114703.465
------------------------------------------------------------
  Evaluating new KS density.
  Integration grid: deviation in total charge (<rho> - N_e) =   0.000000E+00
  Pulay mixing of updated and previous charge densities.

  Evaluating partitioned Hartree potential by multipole expansion.
  | Analytical far-field extrapolation by fixed multipoles:
  | Hartree multipole sum: apparent total charge =   0.999326E+00
  Summing up the Hartree potential.
  Time summed over all CPUs for potential: real work        0.016 s, elapsed        0.016 s
  | RMS charge density error from multipole expansion :   0.925657E-02

  Integrating Hamiltonian matrix: batch-based integration.
  Time summed over all CPUs for integration: real work        0.030 s, elapsed        0.030 s

  Updating Kohn-Sham eigenvalues, eigenvectors, occupation numbers, and Fermi level.
  Solving generalized eigenproblem
  Updating Kohn-Sham eigenvalues and eigenfunctions.
  Solving real generalised eigenvalue problem by standard LAPACK (fast)

  Obtaining occupation numbers and chemical potential using ELSI.
  | Chemical potential (Fermi level):   -12.15617362eV
  Highest occupied state (VBM) at    -18.67362989 eV
  | Occupation number:      2.00000000

  Lowest unoccupied state (CBM) at    -8.19094966 eV
  | Occupation number:      0.00000000

  Overall HOMO-LUMO gap:     10.48268023 eV.

  Total energy components:
  | Sum of eigenvalues            :         -45.63665543 Ha       -1241.83657822 eV
  | XC energy correction          :          -8.80371695 Ha        -239.56132692 eV
  | XC potential correction       :          11.59576509 Ha         315.53682253 eV
  | Free-atom electrostatic energy:         -35.29705024 Ha        -960.48160572 eV
  | Hartree energy correction     :           1.96791844 Ha          53.54978530 eV
  | Entropy correction            :          -0.00000000 Ha          -0.00000000 eV
  | ---------------------------
  | Total energy                  :         -76.17373908 Ha       -2072.79290303 eV
  | Total energy, T -> 0          :         -76.17373908 Ha       -2072.79290303 eV  <-- do not rely on this value for anything but (periodic) metals
  | Electronic free energy        :         -76.17373908 Ha       -2072.79290303 eV

  Derived energy quantities:
  | Kinetic energy                :          75.82823495 Ha        2063.39125722 eV
  | Electrostatic energy          :        -143.19825709 Ha       -3896.62283334 eV
  | Energy correction for multipole
  | error in Hartree potential    :           0.00623081 Ha           0.16954901 eV
  | Sum of eigenvalues per atom                           :        -310.45914455 eV
  | Total energy (T->0) per atom                          :        -518.19822576 eV  <-- do not rely on this value for anything but (periodic) metals
  | Electronic free energy per atom                       :        -518.19822576 eV

  Self-consistency convergence accuracy:
  | Change of charge density      :  0.5253E-03
  | Change of sum of eigenvalues  :  0.5748E-01 eV
  | Change of total energy        :  0.5029E-05 eV

  End self-consistency iteration #     8       :  max(cpu_time)    wall_clock(cpu1)
  | Time for this iteration                    :        0.061 s           0.061 s
  | Charge density update                      :        0.011 s           0.011 s
  | Density mixing                             :        0.001 s           0.001 s
  | Hartree multipole update                   :        0.001 s           0.002 s
  | Hartree multipole summation                :        0.016 s           0.016 s
  | Integration                                :        0.030 s           0.030 s
  | Solution of K.-S. eqns.                    :        0.000 s           0.000 s
  | Total energy evaluation                    :        0.000 s           0.000 s

  Partial memory accounting:
  | Current value for overall tracked memory usage on task 0  :           0.020 MB
  | Peak value for overall tracked memory usage on task 0     :           0.084 MB after allocating wave
  | Largest tracked array allocation on task 0 so far         :           0.019 MB  when allocating H_times_psi
  Note:  These values currently only include a subset of arrays which are explicitly tracked.
  The "true" memory usage will be greater.
------------------------------------------------------------

------------------------------------------------------------
          Begin self-consistency iteration #    9

  Date     :  20190509, Time     :  114703.526
------------------------------------------------------------
  Evaluating new KS density.
  Integration grid: deviation in total charge (<rho> - N_e) =   2.664535E-14
  Pulay mixing of updated and previous charge densities.

  Evaluating partitioned Hartree potential by multipole expansion.
  | Analytical far-field extrapolation by fixed multipoles:
  | Hartree multipole sum: apparent total charge =   0.999549E+00
  Summing up the Hartree potential.
  Time summed over all CPUs for potential: real work        0.016 s, elapsed        0.016 s
  | RMS charge density error from multipole expansion :   0.925682E-02

  Integrating Hamiltonian matrix: batch-based integration.
  Time summed over all CPUs for integration: real work        0.029 s, elapsed        0.029 s

  Updating Kohn-Sham eigenvalues, eigenvectors, occupation numbers, and Fermi level.
  Solving generalized eigenproblem
  Updating Kohn-Sham eigenvalues and eigenfunctions.
  Solving real generalised eigenvalue problem by standard LAPACK (fast)

  Obtaining occupation numbers and chemical potential using ELSI.
  | Chemical potential (Fermi level):   -12.15527999eV
  Highest occupied state (VBM) at    -18.67258059 eV
  | Occupation number:      2.00000000

  Lowest unoccupied state (CBM) at    -8.19034695 eV
  | Occupation number:      0.00000000

  Overall HOMO-LUMO gap:     10.48223364 eV.

  Total energy components:
  | Sum of eigenvalues            :         -45.63658639 Ha       -1241.83469958 eV
  | XC energy correction          :          -8.80376549 Ha        -239.56264770 eV
  | XC potential correction       :          11.59582855 Ha         315.53854920 eV
  | Free-atom electrostatic energy:         -35.29705024 Ha        -960.48160572 eV
  | Hartree energy correction     :           1.96783480 Ha          53.54750944 eV
  | Entropy correction            :          -0.00000000 Ha          -0.00000000 eV
  | ---------------------------
  | Total energy                  :         -76.17373877 Ha       -2072.79289437 eV
  | Total energy, T -> 0          :         -76.17373877 Ha       -2072.79289437 eV  <-- do not rely on this value for anything but (periodic) metals
  | Electronic free energy        :         -76.17373877 Ha       -2072.79289437 eV

  Derived energy quantities:
  | Kinetic energy                :          75.82741707 Ha        2063.36900160 eV
  | Electrostatic energy          :        -143.19739035 Ha       -3896.59924827 eV
  | Energy correction for multipole
  | error in Hartree potential    :           0.00621425 Ha           0.16909824 eV
  | Sum of eigenvalues per atom                           :        -310.45867490 eV
  | Total energy (T->0) per atom                          :        -518.19822359 eV  <-- do not rely on this value for anything but (periodic) metals
  | Electronic free energy per atom                       :        -518.19822359 eV

  Self-consistency convergence accuracy:
  | Change of charge density      :  0.2095E-03
  | Change of sum of eigenvalues  :  0.1879E-02 eV
  | Change of total energy        :  0.8667E-05 eV

  End self-consistency iteration #     9       :  max(cpu_time)    wall_clock(cpu1)
  | Time for this iteration                    :        0.061 s           0.060 s
  | Charge density update                      :        0.012 s           0.012 s
  | Density mixing                             :        0.001 s           0.001 s
  | Hartree multipole update                   :        0.001 s           0.002 s
  | Hartree multipole summation                :        0.017 s           0.016 s
  | Integration                                :        0.029 s           0.029 s
  | Solution of K.-S. eqns.                    :        0.000 s           0.000 s
  | Total energy evaluation                    :        0.000 s           0.000 s

  Partial memory accounting:
  | Current value for overall tracked memory usage on task 0  :           0.020 MB
  | Peak value for overall tracked memory usage on task 0     :           0.085 MB after allocating wave
  | Largest tracked array allocation on task 0 so far         :           0.019 MB  when allocating H_times_psi
  Note:  These values currently only include a subset of arrays which are explicitly tracked.
  The "true" memory usage will be greater.
------------------------------------------------------------

------------------------------------------------------------
          Begin self-consistency iteration #   10

  Date     :  20190509, Time     :  114703.586
------------------------------------------------------------
  Evaluating new KS density.
  Integration grid: deviation in total charge (<rho> - N_e) =  -1.598721E-14
  Pulay mixing of updated and previous charge densities.

  Evaluating partitioned Hartree potential by multipole expansion.
  | Analytical far-field extrapolation by fixed multipoles:
  | Hartree multipole sum: apparent total charge =   0.999556E+00
  Summing up the Hartree potential.
  Time summed over all CPUs for potential: real work        0.016 s, elapsed        0.016 s
  | RMS charge density error from multipole expansion :   0.925693E-02

  Integrating Hamiltonian matrix: batch-based integration.
  Time summed over all CPUs for integration: real work        0.028 s, elapsed        0.028 s

  Updating Kohn-Sham eigenvalues, eigenvectors, occupation numbers, and Fermi level.
  Solving generalized eigenproblem
  Updating Kohn-Sham eigenvalues and eigenfunctions.
  Solving real generalised eigenvalue problem by standard LAPACK (fast)

  Obtaining occupation numbers and chemical potential using ELSI.
  | Chemical potential (Fermi level):   -12.15535907eV
  Highest occupied state (VBM) at    -18.67278551 eV
  | Occupation number:      2.00000000

  Lowest unoccupied state (CBM) at    -8.19040471 eV
  | Occupation number:      0.00000000

  Overall HOMO-LUMO gap:     10.48238080 eV.

  Total energy components:
  | Sum of eigenvalues            :         -45.63667979 Ha       -1241.83724101 eV
  | XC energy correction          :          -8.80375607 Ha        -239.56239148 eV
  | XC potential correction       :          11.59581611 Ha         315.53821089 eV
  | Free-atom electrostatic energy:         -35.29705024 Ha        -960.48160572 eV
  | Hartree energy correction     :           1.96793122 Ha          53.55013314 eV
  | Entropy correction            :          -0.00000000 Ha          -0.00000000 eV
  | ---------------------------
  | Total energy                  :         -76.17373876 Ha       -2072.79289418 eV
  | Total energy, T -> 0          :         -76.17373876 Ha       -2072.79289418 eV  <-- do not rely on this value for anything but (periodic) metals
  | Electronic free energy        :         -76.17373876 Ha       -2072.79289418 eV

  Derived energy quantities:
  | Kinetic energy                :          75.82735960 Ha        2063.36743779 eV
  | Electrostatic energy          :        -143.19734229 Ha       -3896.59794048 eV
  | Energy correction for multipole
  | error in Hartree potential    :           0.00621397 Ha           0.16909068 eV
  | Sum of eigenvalues per atom                           :        -310.45931025 eV
  | Total energy (T->0) per atom                          :        -518.19822354 eV  <-- do not rely on this value for anything but (periodic) metals
  | Electronic free energy per atom                       :        -518.19822354 eV

  Self-consistency convergence accuracy:
  | Change of charge density      :  0.2320E-04
  | Change of sum of eigenvalues  : -0.2541E-02 eV
  | Change of total energy        :  0.1898E-06 eV

  End self-consistency iteration #    10       :  max(cpu_time)    wall_clock(cpu1)
  | Time for this iteration                    :        0.059 s           0.059 s
  | Charge density update                      :        0.011 s           0.012 s
  | Density mixing                             :        0.001 s           0.001 s
  | Hartree multipole update                   :        0.001 s           0.001 s
  | Hartree multipole summation                :        0.016 s           0.016 s
  | Integration                                :        0.028 s           0.029 s
  | Solution of K.-S. eqns.                    :        0.000 s           0.000 s
  | Total energy evaluation                    :        0.000 s           0.000 s

  Partial memory accounting:
  | Current value for overall tracked memory usage on task 0  :           0.020 MB
  | Peak value for overall tracked memory usage on task 0     :           0.085 MB after allocating wave
  | Largest tracked array allocation on task 0 so far         :           0.019 MB  when allocating H_times_psi
  Note:  These values currently only include a subset of arrays which are explicitly tracked.
  The "true" memory usage will be greater.
------------------------------------------------------------

------------------------------------------------------------
          Begin self-consistency iteration #   11

  Date     :  20190509, Time     :  114703.645
------------------------------------------------------------
  Evaluating new KS density.
  Integration grid: deviation in total charge (<rho> - N_e) =   3.552714E-15
  Pulay mixing of updated and previous charge densities.

  Evaluating partitioned Hartree potential by multipole expansion.
  | Analytical far-field extrapolation by fixed multipoles:
  | Hartree multipole sum: apparent total charge =   0.999566E+00
  Summing up the Hartree potential.
  Time summed over all CPUs for potential: real work        0.017 s, elapsed        0.017 s
  | RMS charge density error from multipole expansion :   0.925696E-02

  Integrating Hamiltonian matrix: batch-based integration.
  Time summed over all CPUs for integration: real work        0.030 s, elapsed        0.030 s

  Updating Kohn-Sham eigenvalues, eigenvectors, occupation numbers, and Fermi level.
  Solving generalized eigenproblem
  Updating Kohn-Sham eigenvalues and eigenfunctions.
  Solving real generalised eigenvalue problem by standard LAPACK (fast)

  Obtaining occupation numbers and chemical potential using ELSI.
  | Chemical potential (Fermi level):   -12.15537005eV
  Highest occupied state (VBM) at    -18.67282099 eV
  | Occupation number:      2.00000000

  Lowest unoccupied state (CBM) at    -8.19041924 eV
  | Occupation number:      0.00000000

  Overall HOMO-LUMO gap:     10.48240175 eV.

  Total energy components:
  | Sum of eigenvalues            :         -45.63670387 Ha       -1241.83789630 eV
  | XC energy correction          :          -8.80375484 Ha        -239.56235794 eV
  | XC potential correction       :          11.59581449 Ha         315.53816655 eV
  | Free-atom electrostatic energy:         -35.29705024 Ha        -960.48160572 eV
  | Hartree energy correction     :           1.96795571 Ha          53.55079950 eV
  | Entropy correction            :          -0.00000000 Ha          -0.00000000 eV
  | ---------------------------
[...]
  | Largest tracked array allocation on task 0 so far         :           0.019 MB  when allocating H_times_psi
  Note:  These values currently only include a subset of arrays which are explicitly tracked.
  The "true" memory usage will be greater.
------------------------------------------------------------

------------------------------------------------------------
          Begin self-consistency iteration #   12

  Date     :  20190509, Time     :  114703.706
------------------------------------------------------------
  Evaluating new KS density.
  Integration grid: deviation in total charge (<rho> - N_e) =  -7.105427E-15
  Pulay mixing of updated and previous charge densities.

  Evaluating partitioned Hartree potential by multipole expansion.
  | Analytical far-field extrapolation by fixed multipoles:
  | Hartree multipole sum: apparent total charge =   0.999566E+00
  Summing up the Hartree potential.
  Time summed over all CPUs for potential: real work        0.017 s, elapsed        0.017 s
  | RMS charge density error from multipole expansion :   0.925697E-02

  Integrating Hamiltonian matrix: batch-based integration.
  Time summed over all CPUs for integration: real work        0.029 s, elapsed        0.029 s

  Updating Kohn-Sham eigenvalues, eigenvectors, occupation numbers, and Fermi level.
  Solving generalized eigenproblem
  Updating Kohn-Sham eigenvalues and eigenfunctions.
  Solving real generalised eigenvalue problem by standard LAPACK (fast)

  Obtaining occupation numbers and chemical potential using ELSI.
  | Chemical potential (Fermi level):   -12.15536539eV
  Highest occupied state (VBM) at    -18.67281590 eV
  | Occupation number:      2.00000000

  Lowest unoccupied state (CBM) at    -8.19041673 eV
  | Occupation number:      0.00000000

  Overall HOMO-LUMO gap:     10.48239917 eV.

  Total energy components:
  | Sum of eigenvalues            :         -45.63670125 Ha       -1241.83782515 eV
  | XC energy correction          :          -8.80375530 Ha        -239.56237043 eV
  | XC potential correction       :          11.59581509 Ha         315.53818303 eV
  | Free-atom electrostatic energy:         -35.29705024 Ha        -960.48160572 eV
  | Hartree energy correction     :           1.96795295 Ha          53.55072434 eV
  | Entropy correction            :          -0.00000000 Ha          -0.00000000 eV
  | ---------------------------
  | Total energy                  :         -76.17373875 Ha       -2072.79289393 eV
  | Total energy, T -> 0          :         -76.17373875 Ha       -2072.79289393 eV  <-- do not rely on this value for anything but (periodic) metals
  | Electronic free energy        :         -76.17373875 Ha       -2072.79289393 eV

  Derived energy quantities:
  | Kinetic energy                :          75.82732849 Ha        2063.36659128 eV
  | Electrostatic energy          :        -143.19731195 Ha       -3896.59711478 eV
  | Energy correction for multipole
  | error in Hartree potential    :           0.00621352 Ha           0.16907842 eV
  | Sum of eigenvalues per atom                           :        -310.45945629 eV
  | Total energy (T->0) per atom                          :        -518.19822348 eV  <-- do not rely on this value for anything but (periodic) metals
  | Electronic free energy per atom                       :        -518.19822348 eV

  Self-consistency convergence accuracy:
  | Change of charge density      :  0.6853E-06
  | Change of sum of eigenvalues  :  0.7114E-04 eV
  | Change of total energy        : -0.2255E-07 eV

  Electronic self-consistency reached - switching on the force computation.

  End self-consistency iteration #    12       :  max(cpu_time)    wall_clock(cpu1)
  | Time for this iteration                    :        0.062 s           0.062 s
  | Charge density & force component update    :        0.012 s           0.013 s
  | Density mixing                             :        0.002 s           0.002 s
  | Hartree multipole update                   :        0.002 s           0.001 s
  | Hartree multipole summation                :        0.017 s           0.017 s
  | Integration                                :        0.029 s           0.029 s
  | Solution of K.-S. eqns.                    :        0.000 s           0.000 s
  | Total energy evaluation                    :        0.000 s           0.000 s

  Partial memory accounting:
  | Current value for overall tracked memory usage on task 0  :           0.020 MB
  | Peak value for overall tracked memory usage on task 0     :           0.085 MB after allocating wave
  | Largest tracked array allocation on task 0 so far         :           0.019 MB  when allocating H_times_psi
  Note:  These values currently only include a subset of arrays which are explicitly tracked.
  The "true" memory usage will be greater.
------------------------------------------------------------

------------------------------------------------------------
          Begin self-consistency iteration #   13

  Date     :  20190509, Time     :  114703.768
------------------------------------------------------------
  Evaluating new KS density and force components.
  Integration grid: deviation in total charge (<rho> - N_e) =  -5.329071E-15
  Pulay mixing of updated and previous charge densities.

  Evaluating partitioned Hartree potential by multipole expansion.
  | Analytical far-field extrapolation by fixed multipoles:
  | Hartree multipole sum: apparent total charge =   0.999566E+00
  Summing up the Hartree potential.
  Time summed over all CPUs for potential: real work        0.051 s, elapsed        0.051 s
  | RMS charge density error from multipole expansion :   0.925697E-02

  Integrating Hamiltonian matrix: batch-based integration.
  Time summed over all CPUs for integration: real work        0.028 s, elapsed        0.028 s

  Updating Kohn-Sham eigenvalues, eigenvectors, occupation numbers, and Fermi level.
  Solving generalized eigenproblem
  Updating Kohn-Sham eigenvalues and eigenfunctions.
  Solving real generalised eigenvalue problem by standard LAPACK (fast)

  Obtaining occupation numbers and chemical potential using ELSI.
  | Chemical potential (Fermi level):   -12.15536467eV
  Highest occupied state (VBM) at    -18.67281480 eV
  | Occupation number:      2.00000000

  Lowest unoccupied state (CBM) at    -8.19041620 eV
  | Occupation number:      0.00000000

  Overall HOMO-LUMO gap:     10.48239860 eV.

  Total energy components:
  | Sum of eigenvalues            :         -45.63670073 Ha       -1241.83781091 eV
  | XC energy correction          :          -8.80375537 Ha        -239.56237235 eV
  | XC potential correction       :          11.59581518 Ha         315.53818557 eV
  | Free-atom electrostatic energy:         -35.29705024 Ha        -960.48160572 eV
  | Hartree energy correction     :           1.96795240 Ha          53.55070949 eV
  | Entropy correction            :          -0.00000000 Ha          -0.00000000 eV
  | ---------------------------
  | Total energy                  :         -76.17373875 Ha       -2072.79289393 eV
  | Total energy, T -> 0          :         -76.17373875 Ha       -2072.79289393 eV  <-- do not rely on this value for anything but (periodic) metals
  | Electronic free energy        :         -76.17373875 Ha       -2072.79289393 eV

  Derived energy quantities:
  | Kinetic energy                :          75.82732888 Ha        2063.36660188 eV
  | Electrostatic energy          :        -143.19731227 Ha       -3896.59712345 eV
  | Energy correction for multipole
  | error in Hartree potential    :           0.00621352 Ha           0.16907846 eV
  | Sum of eigenvalues per atom                           :        -310.45945273 eV
  | Total energy (T->0) per atom                          :        -518.19822348 eV  <-- do not rely on this value for anything but (periodic) metals
  | Electronic free energy per atom                       :        -518.19822348 eV

  atomic forces [eV/Ang]:
  -----------------------
  atom #    1
   Hellmann-Feynman              :  0.253065E-11 -0.132486E+00 -0.883530E+01
   Ionic forces                  :  0.000000E+00  0.000000E+00  0.000000E+00
   Multipole                     :  0.299129E-12  0.331447E-02 -0.325362E+00
   Pulay                         : -0.194670E-11 -0.990094E-02  0.916019E+01
   ----------------------------------------------------------------
   Total forces(   1)            :  0.883077E-12 -0.139073E+00 -0.472364E-03
  atom #    2
   Hellmann-Feynman              :  0.178124E+00 -0.902163E-01  0.120392E+00
   Ionic forces                  :  0.000000E+00  0.000000E+00  0.000000E+00
   Multipole                     :  0.497351E-01 -0.287129E-01  0.624832E-01
   Pulay                         : -0.255843E+00  0.148999E+00 -0.195894E+00
   ----------------------------------------------------------------
   Total forces(   2)            : -0.279837E-01  0.300701E-01 -0.130194E-01
  atom #    3
   Hellmann-Feynman              : -0.178124E+00 -0.902163E-01  0.120392E+00
   Ionic forces                  :  0.000000E+00  0.000000E+00  0.000000E+00
   Multipole                     : -0.497351E-01 -0.287129E-01  0.624832E-01
   Pulay                         :  0.255843E+00  0.148999E+00 -0.195894E+00
   ----------------------------------------------------------------
   Total forces(   3)            :  0.279837E-01  0.300701E-01 -0.130194E-01
  atom #    4
   Hellmann-Feynman              :  0.156267E-14  0.320760E+00  0.162616E+00
   Ionic forces                  :  0.000000E+00  0.000000E+00  0.000000E+00
   Multipole                     : -0.609580E-15  0.578330E-01  0.633072E-01
   Pulay                         :  0.202075E-13 -0.299519E+00 -0.197497E+00
   ----------------------------------------------------------------
   Total forces(   4)            :  0.211606E-13  0.790738E-01  0.284271E-01


  Self-consistency convergence accuracy:
  | Change of charge density      :  0.8079E-07
  | Change of sum of eigenvalues  :  0.1424E-04 eV
  | Change of total energy        : -0.2773E-08 eV
  | Change of forces              :  0.4592E+01 eV/A

  Writing Kohn-Sham eigenvalues.

  State    Occupation    Eigenvalue [Ha]    Eigenvalue [eV]
      1       2.00000         -19.024223         -517.67544
      2       2.00000          -1.348551          -36.69594
      3       2.00000          -0.880251          -23.95284
      4       2.00000          -0.879113          -23.92187
      5       2.00000          -0.686213          -18.67281
      6       0.00000          -0.300992           -8.19042
      7       0.00000          -0.207665           -5.65086
      8       0.00000          -0.206394           -5.61625
      9       0.00000           0.016564            0.45072
     10       0.00000           0.052406            1.42605
     11       0.00000           0.052504            1.42870
     12       0.00000           0.240611            6.54736
     13       0.00000           0.466947           12.70628

  Highest occupied state (VBM) at    -18.67281480 eV
  | Occupation number:      2.00000000

  Lowest unoccupied state (CBM) at    -8.19041620 eV
  | Occupation number:      0.00000000

  Overall HOMO-LUMO gap:     10.48239860 eV.

  Self-consistency cycle converged.

  End self-consistency iteration #    13       :  max(cpu_time)    wall_clock(cpu1)
  | Time for this iteration                    :        0.122 s           0.123 s
  | Charge density & force component update    :        0.041 s           0.041 s
  | Density mixing                             :        0.001 s           0.001 s
  | Hartree multipole update                   :        0.001 s           0.001 s
  | Hartree multipole summation                :        0.051 s           0.051 s
  | Integration                                :        0.028 s           0.028 s
  | Solution of K.-S. eqns.                    :        0.000 s           0.000 s
  | Total energy evaluation                    :        0.000 s           0.001 s

  Partial memory accounting:
  | Current value for overall tracked memory usage on task 0  :           0.020 MB
  | Peak value for overall tracked memory usage on task 0     :           0.116 MB after allocating h_times_wave
  | Largest tracked array allocation on task 0 so far         :           0.058 MB  when allocating gradient_basis_wave
  Note:  These values currently only include a subset of arrays which are explicitly tracked.
  The "true" memory usage will be greater.
------------------------------------------------------------
  ------------------------------------------------------------
   Computing monopole / dipole moments for complete molecule:
  | Total electronic charge [e]         :          0.100000000175119E+02
  | Total ionic charge [e]              :          0.110000000000000E+02
  | Total charge [e]                    :          0.999999982488083E+00
 * Warning: The system has a total charge of      0.99999998 .
 * The dipole moment depends on the choice of the origin.
  | Total dipole moment [eAng]          :         -0.617738646267431E-14        -0.102970664237213E-02         0.587647523095743E+00
  | Absolute dipole moment              :          0.587648425247896E+00 eAng              /                   0.282215578110185E+01 Debye  .
  Removing unitary transformations (pure translations, rotations) from forces on atoms.
  Atomic forces before filtering:
  | Net force on center of mass :   0.995849E-12  0.141339E-03  0.191597E-02 eV/A
  | Net torque on center of mass:  -0.634668E-05 -0.195866E-12  0.972524E-14 eV
  Atomic forces after filtering:
  | Net force on center of mass :   0.179053E-17 -0.111504E-16  0.000000E+00 eV/A
  | Net torque on center of mass:  -0.295026E-17  0.325619E-18 -0.105235E-17 eV

  Energy and forces in a compact form:
  | Total energy uncorrected      :         -0.207279289393103E+04 eV
  | Total energy corrected        :         -0.207279289393103E+04 eV  <-- do not rely on this value for anything but (periodic) metals
  | Electronic free energy        :         -0.207279289393103E+04 eV
  Total atomic forces (unitary forces cleaned) [eV/Ang]:
  |   1          0.604770369462294E-12         -0.139107028875942E+00         -0.951350590662315E-03
  |   2         -0.279837150776256E-01          0.300344158865736E-01         -0.135004889390192E-01
  |   3          0.279837150772354E-01          0.300344158865946E-01         -0.135004889388111E-01
  |   4         -0.214581750455990E-12          0.790381971027733E-01          0.279523284684926E-01

  ------------------------------------ 
  Start decomposition of the XC Energy 
  ------------------------------------ 
  X and C from original XC functional choice 
  Hartree-Fock Energy :          0.000000000 Ha              0.000000000 eV
  X Energy            :         -8.140125633 Ha           -221.504088472 eV
  C Energy            :         -0.663629735 Ha            -18.058283883 eV
  Total XC Energy     :         -8.803755368 Ha           -239.562372355 eV
  ------------------------------------ 
  LDA X and C from self-consistent density 
  X Energy LDA        :         -8.140125633 Ha           -221.504088472 eV
  C Energy LDA        :         -0.663629735 Ha            -18.058283883 eV
  ------------------------------------ 
  End decomposition of the XC Energy 
  ------------------------------------ 

------------------------------------------------------------

------------------------------------------------------------------------------
  Final output of selected total energy values:

  The following output summarizes some interesting total energy values
  at the end of a run (AFTER all relaxation, molecular dynamics, etc.).

  | Total energy of the DFT / Hartree-Fock s.c.f. calculation      :          -2072.792893931 eV
  | Final zero-broadening corrected energy (caution - metals only) :          -2072.792893931 eV
  | For reference only, the value of 1 Hartree used in FHI-aims is :             27.211384500 eV

  Before relying on these values, please be sure to understand exactly which
  total energy value is referred to by a given number. Different objects may
  all carry the same name 'total energy'. Definitions:

  Total energy of the DFT / Hartree-Fock s.c.f. calculation:
  | Note that this energy does not include ANY quantities calculated after the
  | s.c.f. cycle, in particular not ANY RPA, MP2, etc. many-body perturbation terms.

  Final zero-broadening corrected energy:
  | For metallic systems only, a broadening of the occupation numbers at the Fermi
  | level can be extrapolated back to zero broadening by an electron-gas inspired
  | formula. For all systems that are not real metals, this value can be
  | meaningless and should be avoided.

------------------------------------------------------------------------------
  Methods described in the following list of references were used in this FHI-aims run.
  If you publish the results, please make sure to cite these reference if they apply.
  FHI-aims is an academic code, and for our developers (often, Ph.D. students
  and postdocs), scientific credit in the community is essential.
  Thank you for helping us!

  For any use of FHI-aims, please cite:

    Volker Blum, Ralf Gehrke, Felix Hanke, Paula Havu, Ville Havu,
    Xinguo Ren, Karsten Reuter, and Matthias Scheffler
    'Ab initio molecular simulations with numeric atom-centered orbitals'
    Computer Physics Communications 180, 2175-2196 (2009)
    http://dx.doi.org/10.1016/j.cpc.2009.06.022


  For the real-space grid partitioning and parallelization used in this calculation, please cite:

    Ville Havu, Volker Blum, Paula Havu, and Matthias Scheffler,
    'Efficient O(N) integration for all-electron electronic structure calculation'
    'using numerically tabulated basis functions'
    Journal of Computational Physics 228, 8367-8379 (2009).
    http://dx.doi.org/10.1016/j.jcp.2009.08.008

  Of course, there are many other important community references, e.g., those cited in the
  above references. Our list is limited to references that describe implementations in the
  FHI-aims code. The reason is purely practical (length of this list) - please credit others as well.

------------------------------------------------------------
          Leaving FHI-aims.
          Date     :  20190509, Time     :  114703.905

          Computational steps:
          | Number of self-consistency cycles          :           13
          | Number of SCF (re)initializations          :            1

          Detailed time accounting                     :  max(cpu_time)    wall_clock(cpu1)
          | Total time                                 :        0.992 s           0.992 s
          | Preparation time                           :        0.047 s           0.047 s
          | Boundary condition initalization           :        0.000 s           0.000 s
          | Grid partitioning                          :        0.014 s           0.014 s
          | Preloading free-atom quantities on grid    :        0.001 s           0.001 s
          | Free-atom superposition energy             :        0.013 s           0.013 s
          | Total time for integrations                :        0.418 s           0.420 s
          | Total time for solution of K.-S. equations :        0.003 s           0.001 s
          | Total time for density & force components  :        0.183 s           0.184 s
          | Total time for mixing                      :        0.009 s           0.012 s
          | Total time for Hartree multipole update    :        0.019 s           0.017 s
          | Total time for Hartree multipole sum       :        0.252 s           0.251 s
          | Total time for total energy evaluation     :        0.001 s           0.002 s

 This is a stub MPI_ALLREDUCE call.
 You should not be here. Check your
 setting on the use_mpi variable, or
 link against true MPI-libraries.
