------------------------------------------------------------
          Invoking FHI-aims ...
          Version 171221_1
          Compiled on 2019/05/06 at 14:26:40 on host ffph0xx.

          When using FHI-aims, please cite the following reference:

          Volker Blum, Ralf Gehrke, Felix Hanke, Paula Havu,
          Ville Havu, Xinguo Ren, Karsten Reuter, and Matthias Scheffler,
          'Ab Initio Molecular Simulations with Numeric Atom-Centered Orbitals',
          Computer Physics Communications 180, 2175-2196 (2009)

          For any questions about FHI-aims, please visit the aimsclub website
          with its forums and wiki. Contributions to both the forums and the
          wiki are warmly encouraged - they are for you, and everyone is welcome there.

------------------------------------------------------------



  Date     :  20190514, Time     :  123619.951
  Time zero on CPU 1             :   0.607000000000000E-03  s.
  Internal wall clock time zero  :           327069379.951  s.

  FHI-aims created a unique identifier for this run for later identification
  aims_uuid : 77B0FEDF-3754-4780-AA3B-BF2EFAE6106D


  Performing system and environment tests:
  *** Environment variable OMP_NUM_THREADS is not set
  *** For performance reasons you might want to set it to 1
  | Stacksize not measured: no C compiler

  Obtaining array dimensions for all initial allocations:
  
  -----------------------------------------------------------------------
  Parsing control.in (first pass over file, find array dimensions only).
  The contents of control.in will be repeated verbatim below
  unless switched off by setting 'verbatim_writeout .false.' .
  in the first line of control.in .
  -----------------------------------------------------------------------
  
  #--- method ---
  xc pw-lda
  spin none
  relativistic atomic_zora scalar
  #---
  
  #--- k-grid settings ---
  k_grid 12 12 12
  #---
  
  
  
  
  
  
  
  
  
  
  
  #-------------------------------------------------------------------------------
  #--- Species defaults for Si
  #-------------------------------------------------------------------------------
  
  ################################################################################
  #
  #  FHI-aims code project
  #  VB, Fritz-Haber Institut, 2009
  #
  #  Suggested "light" defaults for Si atom (to be pasted into control.in file)
  #  Be sure to double-check any results obtained with these settings for post-processing,
  #  e.g., with the "tight" defaults and larger basis sets.
  #
  ################################################################################
    species        Si
  #     global species definitions
      nucleus             14
      mass                28.0855
  #
      l_hartree           4
  #
      cut_pot             3.5          1.5  1.0
      basis_dep_cutoff    1e-4
  #
      radial_base         42 5.0
      radial_multiplier   1
      angular_grids       specified
        division   0.5866   50
        division   0.9616  110
        division   1.2249  194
        division   1.3795  302
  #      division   1.4810  434
  #      division   1.5529  590
  #      division   1.6284  770
  #      division   1.7077  974
  #      division   2.4068 1202
  #      outer_grid   974
        outer_grid 302
  ################################################################################
  #
  #  Definition of "minimal" basis
  #
  ################################################################################
  #     valence basis states
      valence      3  s   2.
      valence      3  p   2.
  #     ion occupancy
      ion_occ      3  s   1.
      ion_occ      3  p   1.
  ################################################################################
  #
  #  Suggested additional basis functions. For production calculations,
  #  uncomment them one after another (the most important basis functions are
  #  listed first).
  #
  #  Constructed for dimers: 1.75 A, 2.0 A, 2.25 A, 2.75 A, 3.75 A
  #
  ################################################################################
  #  "First tier" - improvements: -571.96 meV to -37.03 meV
       hydro 3 d 4.2
       hydro 2 p 1.4
  #     hydro 4 f 6.2
       ionic 3 s auto
  #  "Second tier" - improvements: -16.76 meV to -3.03 meV
  #     hydro 3 d 9
  #     hydro 5 g 9.4
  #     hydro 4 p 4
  #     hydro 1 s 0.65
  #  "Third tier" - improvements: -3.89 meV to -0.60 meV
  #     ionic 3 d auto
  #     hydro 3 s 2.6
  #     hydro 4 f 8.4
  #     hydro 3 d 3.4
  #     hydro 3 p 7.8
  #  "Fourth tier" - improvements: -0.33 meV to -0.11 meV
  #     hydro 2 p 1.6
  #     hydro 5 g 10.8
  #     hydro 5 f 11.2
  #     hydro 3 d 1
  #     hydro 4 s 4.5
  #  Further basis functions that fell out of the optimization - noise
  #  level... < -0.08 meV
  #     hydro 4 d 6.6
  #     hydro 5 g 16.4
  #     hydro 4 d 9
  
  -----------------------------------------------------------------------
  Completed first pass over input file control.in .
  -----------------------------------------------------------------------
  
  
  -----------------------------------------------------------------------
  Parsing geometry.in (first pass over file, find array dimensions only).
  The contents of geometry.in will be repeated verbatim below
  unless switched off by setting 'verbatim_writeout .false.' .
  in the first line of geometry.in .
  -----------------------------------------------------------------------
  
  lattice_vector   0.000000   2.800000   2.800000
  lattice_vector   2.800000   0.000000   2.800000
  lattice_vector   2.800000   2.800000   0.000000
  atom_frac   0.000000   0.000000   0.000000 Si
  
  -----------------------------------------------------------------------
  Completed first pass over input file geometry.in .
  -----------------------------------------------------------------------
  

  Basic array size parameters:
  | Number of species                 :        1
  | Number of atoms                   :        1
  | Number of lattice vectors         :        3
  | Max. basis fn. angular momentum   :        2
  | Max. atomic/ionic basis occupied n:        3
  | Max. number of basis fn. types    :        3
  | Max. radial fns per species/type  :        5
  | Max. logarithmic grid size        :     1346
  | Max. radial integration grid size :       42
  | Max. angular integration grid size:      302
  | Max. angular grid division number :        8
  | Radial grid for Hartree potential :     1346
  | Number of spin channels           :        1

------------------------------------------------------------
          Reading file control.in.
------------------------------------------------------------
  XC: Using Perdew-Wang parametrisation of Ceperley-Alder LDA.
  Spin treatment: No spin polarisation.
  Scalar relativistic treatment of kinetic energy: on-site free-atom approximation to ZORA.
  Found k-point grid:        12        12        12

  Reading configuration options for species Si                  .
  | Found nuclear charge :  14.0000
  | Found atomic mass :    28.085500000000000      amu
  | Found l_max for Hartree potential  :   4
  | Found cutoff potl. onset [A], width [A], scale factor :    3.50000    1.50000    1.00000
  | Threshold for basis-dependent cutoff potential is   0.100000E-03
  | Found data for basic radial integration grid :    42 points, outermost radius =    5.000 A
  | Found multiplier for basic radial grid :   1
  | Found angular grid specification: user-specified.
  | Specified grid contains     5 separate shells.
  | Check grid settings after all constraints further below.
  | Found free-atom valence shell :  3 s   2.000
  | Found free-atom valence shell :  3 p   2.000
  | Found free-ion valence shell :  3 s   1.000
  | Found free-ion valence shell :  3 p   1.000
  | Found hydrogenic basis function :  3 d   4.200
  | Found hydrogenic basis function :  2 p   1.400
  | Found ionic basis function :  3 s , default cutoff radius.
  Species Si                  : Missing cutoff potential type.
  Defaulting to exp(1/x)/(1-x)^2 type cutoff potential.
  Species Si: No 'logarithmic' tag. Using default grid for free atom:
  | Default logarithmic grid data [bohr] : 0.1000E-03 0.1000E+03 0.1012E+01
  | Will include ionic basis functions of  2.0-fold positive Si                   ion.
  Species Si: On-site basis accuracy parameter (for Gram-Schmidt orthonormalisation) not specified.
  Using default value basis_acc =  0.1000000E-03.
  Species Si                  : Using default innermost maximum threshold i_radial=  2 for radial functions.
  Species Si                  : Default cutoff onset for free atom density etc. : 0.35000000E+01 AA.
  Species Si                  : Basic radial grid will be enhanced according to radial_multiplier =   1, to contain    42 grid points.

  Finished reading input file 'control.in'. Consistency checks are next.

  MPI_IN_PLACE appears to work with this MPI implementation.
  | Keeping use_mpi_in_place .true. (see manual).
  Target number of points in a grid batch is not set. Defaulting to  100
  Method for grid partitioning is not set. Defaulting to 'maxmin' partitioning.
  Batch size limit is not set. Defaulting to    200
  By default, will store active basis functions for each batch.
  If in need of memory, prune_basis_once .false. can be used to disable this option.
  communication_type for Hartree potential was not specified.
  Defaulting to calc_hartree .
 * Attention: 
 * You may want to set distributed_spline_storage to .true. in order to save memory.
 * This doesn't harm performance and is perfectly ok unless:
 * - you get error messages in postprocessing (about missing atoms in get_rho_multipole_spl)
 * - you need full spline storage in hirshfeld_analysis
  Defaulting to Pulay charge density mixer.
  Pulay mixer: Number of relevant iterations not set.
  Defaulting to    8 iterations.
  Pulay mixer: Number of initial linear mixing iterations not set.
  Defaulting to    0 iterations.
  Work space size for distributed Hartree potential not set.
  Defaulting to   0.200000E+03 MB.
  Mixing parameter for charge density mixing has not been set.
  Using default: charge_mix_param =     0.0500.
  The mixing parameter will be adjusted in iteration number     2 of the first full s.c.f. cycle only.
  Algorithm-dependent basis array size parameters:
  | n_max_pulay                         :        8
 * Notice: The s.c.f. convergence criterion sc_accuracy_rho was not provided.
 * We used to stop in this case, and ask the user to provide reasonable
 * scf convergence criteria. However, this led some users to employ criteria
 * that led to extremely long run times, e.g., for simple relaxation.
 * We now preset a default value for sc_accuracy_rho if it is not set.
 * You may still wish to check if this setting is too tight or too loose for your needs.
 * Based on n_atoms, FHI-aims chose sc_accuracy_rho =  0.100000E-05 .
  Maximum number of self-consistency iterations not provided.
  Presetting  1000 iterations.
  Presetting      1001 iterations before the initial mixing cycle
  is restarted anyway using the sc_init_iter criterion / keyword.
  Presetting a factor      1.000 between actual scf density residual
  and density convergence criterion sc_accuracy_rho below which sc_init_iter
  takes no effect.
 * No s.c.f. convergence criteria (sc_accuracy_*) were provided in control.in.
 * The run will proceed with a reasonable default guess, but please check whether.
 * the s.c.f. cycles seem to take too much or too little time.
  Calculation of forces was not defined in control.in. No forces will be calculated.
  Geometry relaxation not requested: no relaxation will be performed.
  No accuracy limit for integral partition fn. given. Defaulting to  0.1000E-14.
  No threshold value for u(r) in integrations given. Defaulting to  0.1000E-05.
  No occupation type (smearing scheme) given. Defaulting to Gaussian broadening, width =  0.1000E-01 eV.
  The width will be adjusted in iteration number     2 of the first full s.c.f. cycle only.
  S.C.F. convergence parameters will be adjusted in iteration number     2 of the first full s.c.f. cycle only.
  No accuracy for occupation numbers given. Defaulting to  0.1000E-12.
  No threshold value for occupation numbers given. Defaulting to  0.0000E+00.
  No accuracy for fermi level given. Defaulting to  0.1000E-19.
  Maximum # of iterations to find E_F not set. Defaulting to  200.
  Preferred method for the eigenvalue solver ('KS_method') not specified in 'control.in'.
  Defaulting to serial version, 'lapack_fast'.
  Will not use alltoall communication since running on < 1024 CPUs.
  Threshold for basis singularities not set.
  Default threshold for basis singularities:  0.1000E-04
  partition_type (choice of integration weights) for integrals was not specified.
  | Using a version of the partition function of Stratmann and coworkers ('stratmann_smoother').
  | At each grid point, the set of atoms used to build the partition table is smoothly restricted to
  | only those atoms whose free-atom density would be non-zero at that grid point.
  Partitioning for Hartree potential was not defined. Using partition_type for integrals.
  | Adjusted default value of keyword multip_moments_threshold to:       0.10000000E-11
  | This value may affect high angular momentum components of the Hartree potential in periodic systems.
  Angular momentum expansion for Kerker preconditioner not set explicitly.
  | Using default value of   0
  No explicit requirement for turning off preconditioner.
  | By default, it will be turned off when the charge convergence reaches
  | sc_accuracy_rho  =   0.100000E-05
  No special mixing parameter while Kerker preconditioner is on.
  Using default: charge_mix_param =     0.0500.
  No q(lm)/r^(l+1) cutoff set for long-range Hartree potential.
  | Using default value of  0.100000E-09 .
  | Verify using the multipole_threshold keyword.
  Defaulting to new monopole extrapolation.
  Density update method: automatic selection selected.
  Using density matrix based charge density update.
  Using density matrix based charge density update.
  Using packed matrix style: index .
  Defaulting to use time-reversal symmetry for k-point grid.
------------------------------------------------------------


------------------------------------------------------------
          Reading geometry description geometry.in.
------------------------------------------------------------
  Input structure read successfully.
  The structure contains        1 atoms,  and a total of         14.000 electrons.

  Input geometry:
  | Unit cell:
  |        0.00000000        2.80000000        2.80000000
  |        2.80000000        0.00000000        2.80000000
  |        2.80000000        2.80000000        0.00000000
  | Atomic structure:
  |       Atom                x [A]            y [A]            z [A]
  |    1: Species Si            0.00000000        0.00000000        0.00000000

  Lattice parameters for 3D lattice (in Angstroms) :     3.959798    3.959798    3.959798
  Angle(s) between unit vectors (in degrees)      :    60.000000   60.000000   60.000000

  |

  | The smallest distance between any two atoms is         3.95979797 AA.
  |
  | The first atom of this pair is atom number                      1 .
  | The second atom of this pair is atom number                     1 .
  | Wigner-Seitz cell of the first atom image          -1     0     1 .
  | (The Wigner-Seitz cell of the second atom is 0 0 0  by definition.)

  Quantities derived from the lattice vectors:
  | Reciprocal lattice vector 1: -1.121997  1.121997  1.121997
  | Reciprocal lattice vector 2:  1.121997 -1.121997  1.121997
  | Reciprocal lattice vector 3:  1.121997  1.121997 -1.121997
  | Unit cell volume                               :   0.439040E+02  A^3

  Range separation radius for Ewald summation (hartree_convergence_parameter):      5.00000000 bohr.

  Fractional coordinates:
                         L1                L2                L3
       atom_frac         0.00000000        0.00000000        0.00000000  Si

  Number of empty states per atom not set in control.in - providing a guess from actual geometry.
  | Total number of empty states used during s.c.f. cycle:        3
  If you use a very high smearing, use empty_states (per atom!) in control.in to increase this value.

  Structure-dependent array size parameters: 
  | Maximum number of distinct radial functions  :        8
  | Maximum number of basis functions            :       18
  | Number of Kohn-Sham states (occupied + empty):       10
------------------------------------------------------------

------------------------------------------------------------
          Preparing all fixed parts of the calculation.
------------------------------------------------------------
  Determining machine precision:
     2.2250738585072014E-308
  Setting up grids for atomic and cluster calculations.

  Creating wave function, potential, and density for free atoms.

  Species: Si

  List of occupied orbitals and eigenvalues:
    n    l              occ      energy [Ha]    energy [eV]
    1    0           2.0000       -65.491668     -1782.1190
    2    0           2.0000        -5.087967      -138.4506
    3    0           2.0000        -0.391471       -10.6525
    2    1           6.0000        -3.502246       -95.3010
    3    1           2.0000        -0.143943        -3.9169

  Creating fixed part of basis set: Ionic, confined, hydrogenic.

  Si                   ion:

  List of free ionic orbitals and eigenvalues:
    n    l      energy [Ha]    energy [eV]
    1    0       -66.364436     -1805.8682
    2    0        -5.935799      -161.5213
    3    0        -1.078166       -29.3384
    2    1        -4.351123      -118.4001
    3    1        -0.781733       -21.2720


  List of ionic basis orbitals and eigenvalues:
    n    l      energy [Ha]    energy [eV]    outer radius [A]
    3    0        -1.078146       -29.3378       4.214062


  Si                   hydrogenic:

  List of hydrogenic basis orbitals: 
    n    l      effective z      eigenvalue [eV]  inner max. [A]     outer max. [A]     outer radius [A]   
    3    2         4.200000       -26.6624           1.139231           1.139231           4.534782
    2    1         1.400000        -6.4613           1.472672           1.472672           4.590560


  Adding cutoff potential to free-atom effective potential.
  Creating atomic-like basis functions for current effective potential.

  Species Si                  :

  List of atomic basis orbitals and eigenvalues:
    n    l      energy [Ha]    energy [eV]    outer radius [A]
    1    0       -65.491668     -1782.1190       0.789468
    2    0        -5.087967      -138.4506       2.815114
    3    0        -0.391471       -10.6525       4.534782
    2    1        -3.502246       -95.3010       3.259919
    3    1        -0.143943        -3.9169       4.590560

  Assembling full basis from fixed parts.
  | Species Si :   atomic orbital   1 s accepted.
  | Species Si :   atomic orbital   2 s accepted.
  | Species Si :    ionic orbital   3 s accepted.
  | Species Si :   atomic orbital   3 s accepted.
  | Species Si :   atomic orbital   2 p accepted.
  | Species Si :   atomic orbital   3 p accepted.
  | Species Si :    hydro orbital   2 p accepted.
  | Species Si :    hydro orbital   3 d accepted.

  Basis size parameters after reduction:
  | Total number of radial functions:        8
  | Total number of basis functions :       18

  Per-task memory consumption for arrays in subroutine allocate_ext:
  |           2.757468MB.
  Testing on-site integration grid accuracy.
  |  Species  Function  <phi|h_atom|phi> (log., in eV)  <phi|h_atom|phi> (rad., in eV)
           1        1              -1782.1189727076              -1782.1182429251
           1        2               -138.4506350693               -138.4506310079
           1        3                -10.3030408815                -10.3029120678
           1        4                  5.0238999146                  4.9457540310 ***
           1        5                -95.3009689499                -95.3009689315
           1        6                 -3.9266496564                 -3.9420918374
           1        7                  6.3453628447                  6.1632372158 ***
           1        8                  6.2883050744                  6.2861881409
 * Note: Onsite integrals marked "***" above are less accurate than
 * onsite_accuracy_threshold =    0.03000 eV. Usually, this is harmless.
 * When in doubt, tighten the "radial" and/or "radial_multiplier" flags to check.

  Preparing densities etc. for the partition functions (integrals / Hartree potential).

  Preparations completed.
  max(cpu_time)          :      0.099 s.
  Wall clock time (cpu1) :      0.100 s.
------------------------------------------------------------

------------------------------------------------------------
          Begin self-consistency loop: Initialization.

          Date     :  20190514, Time     :  123620.052
------------------------------------------------------------

  Initializing index lists of integration centers etc. from given atomic structure:
  Mapping all atomic coordinates to central unit cell.

  Initializing the k-points
          Using symmetry for reducing the k-points
  | k-points reduced from:     1728 to      868
  | Number of k-points                             :       868
  The eigenvectors in the calculations are COMPLEX.
  | K-points in task   0:       868
  | Number of basis functions in the Hamiltonian integrals :       530
  | Number of basis functions in a single unit cell        :        18
  | Number of centers in hartree potential         :       459
  | Number of centers in hartree multipole         :       135
  | Number of centers in electron density summation:        79
  | Number of centers in basis integrals           :        87
  | Number of centers in integrals                 :        51
  | Number of centers in hamiltonian               :        79
  | Consuming       1112 KiB for k_phase.
  | Number of super-cells (origin) [n_cells]                     :        2197
  | Number of super-cells (after PM_index) [n_cells]             :          82
  | Number of super-cells in hamiltonian [n_cells_in_hamiltonian]:          80
  | Size of matrix packed + index [n_hamiltonian_matrix_size] :       10462
  Partitioning the integration grid into batches with maxmin method.
  | Maximal weight for a single point:     1.000
  | Minimal weight for a single point:     0.481
  | Number of batches:       64
  | Maximal batch size:      90
  | Minimal batch size:      85
  | Average batch size:      87.562
  | Standard deviation of batch sizes:       1.519
  Initializing partition tables, free-atom densities, potentials, etc. across the integration grid (initialize_grid_storage).
  | initialize_grid_storage: Actual outermost partition radius vs. multipole_radius_free
  | (-- VB: in principle, multipole_radius_free should be larger, hence this output)
  | Species        1: Confinement radius =              4.999999999999999 AA, multipole_radius_free =              5.000694715736543 AA.
  | Species        1: outer_partition_radius set to              5.000694715736543 AA .
  | Original list of interatomic distances with          87 x         87 entries is created.
  | Net number of integration points:     5604
  | of which are non-zero points    :     5310
  | Numerical average free-atom electrostatic potential    :     -5.99193931 eV
  Renormalizing the initial density to the exact electron count on the 3D integration grid.
  | Initial density: Formal number of electrons (from input files) :      14.0000000000
  | Integrated number of electrons on 3D grid     :      14.0001337094
  | Charge integration error                      :       0.0001337094
  | Normalization factor for density and gradient :       0.9999904494
  Obtaining max. number of non-zero basis functions in each batch (get_n_compute_maxes).
  | Maximal number of non-zero basis functions:      235 in task     0
  Allocating        2.500 MB for KS_eigenvector_complex
  Integrating Hamiltonian matrix: batch-based integration.
  Time summed over all CPUs for integration: real work        0.086 s, elapsed        0.086 s
  Integrating overlap matrix.
  Time summed over all CPUs for integration: real work        0.064 s, elapsed        0.064 s
  Decreasing sparse matrix size:
   Tolerance:   9.9999998245167004E-014
   Hamiltonian matrix
  | Array has     6903 nonzero elements out of    10462 elements
  | Sparsity factor is 0.340
   Overlap matrix
  | Array has     6591 nonzero elements out of    10462 elements
  | Sparsity factor is 0.370
  New size of hamiltonian matrix:        7042

  Updating Kohn-Sham eigenvalues, eigenvectors, occupation numbers, and Fermi level.
  Solving generalized eigenproblem
  Transforming overlap matrix and checking for singularities.
  Overlap matrix is nonsingular at first k-point:
  | Lowest eigenvalue:  0.315786E-01

  Obtaining occupation numbers and chemical potential using ELSI.
  | Chemical potential (Fermi level):    -4.55085828eV
  Writing Kohn-Sham eigenvalues.
  K-point:       1 at    0.000000    0.000000    0.000000 (in units of recip. lattice)

  State    Occupation    Eigenvalue [Ha]    Eigenvalue [eV]
      1       2.00000         -65.491654        -1782.11858
      2       2.00000          -5.087994         -138.45137
      3       2.00000          -3.502274          -95.30174
      4       2.00000          -3.502274          -95.30174
      5       2.00000          -3.502274          -95.30174
      6       2.00000          -0.456666          -12.42651
      7       0.00000          -0.059648           -1.62310
      8       0.00000          -0.059648           -1.62310
      9       0.00000          -0.059648           -1.62310
     10       0.00000           0.110119            2.99649

  What follows are estimated values for band gap, HOMO, LUMO, etc.
  | They are estimated on a discrete k-point grid and not necessarily exact.
  | For converged numbers, create a DOS and/or band structure plot on a denser k-grid.

  Highest occupied state (VBM) at     -4.55869909 eV (relative to internal zero)
  | Occupation number:      1.73250894
  | K-point:      32 at    0.000000    0.250000    0.666667 (in units of recip. lattice)

  Lowest unoccupied state (CBM) at    -4.54127686 eV (relative to internal zero)
  | Occupation number:      0.17541220
  | K-point:     375 at    0.250000    0.750000    0.333333 (in units of recip. lattice)

  ESTIMATED overall HOMO-LUMO gap:      0.01742223 eV between HOMO at k-point 32 and LUMO at k-point 375
  | This appears to be an indirect band gap.
  | Smallest direct gap :      0.99942215 eV for k_point 779 at    0.250000    0.750000    0.333333 (in units of recip. lattice)
  However, this system has fractional occupation numbers. Since we use a finite k-point grid,
  this material is metallic within the approximate finite broadening function (occupation_type)
  applied to determine the occupation numbers.
  Calculating total energy contributions from superposition of free atom densities.

  Total energy components:
  | Sum of eigenvalues            :        -163.38143016 Ha       -4445.83491625 eV
  | XC energy correction          :         -19.65641316 Ha        -534.87821632 eV
  | XC potential correction       :          25.97097411 Ha         706.70616227 eV
  | Free-atom electrostatic energy:        -132.19588221 Ha       -3597.23298019 eV
  | Hartree energy correction     :          -0.00000000 Ha          -0.00000000 eV
  | Entropy correction            :          -0.00000193 Ha          -0.00005248 eV
  | ---------------------------
  | Total energy                  :        -289.26275142 Ha       -7871.23995049 eV
  | Total energy, T -> 0          :        -289.26275335 Ha       -7871.24000297 eV  <-- do not rely on this value for anything but (periodic) metals
  | Electronic free energy        :        -289.26275528 Ha       -7871.24005544 eV

  Derived energy quantities:
  | Kinetic energy                :         289.54635638 Ha        7878.95723394 eV
  | Electrostatic energy          :        -559.15269464 Ha      -15215.31896811 eV
  | Energy correction for multipole
  | error in Hartree potential    :           0.00000000 Ha           0.00000000 eV
  | Sum of eigenvalues per atom                           :       -4445.83491625 eV
  | Total energy (T->0) per atom                          :       -7871.24000297 eV  <-- do not rely on this value for anything but (periodic) metals
  | Electronic free energy per atom                       :       -7871.24005544 eV
  Initialize hartree_potential_storage
  Max. number of atoms included in rho_multipole:            1

  End scf initialization - timings             :  max(cpu_time)    wall_clock(cpu1)
  | Time for scf. initialization               :        0.459 s           0.458 s
  | Boundary condition initialization          :        0.028 s           0.028 s
  | Integration                                :        0.150 s           0.151 s
  | Solution of K.-S. eqns.                    :        0.235 s           0.235 s
  | Grid partitioning                          :        0.009 s           0.009 s
  | Preloading free-atom quantities on grid    :        0.001 s           0.001 s
  | Free-atom superposition energy             :        0.009 s           0.009 s
  | Total energy evaluation                    :        0.000 s           0.000 s

  Partial memory accounting:
  | Current value for overall tracked memory usage on task 0  :           2.641 MB
  | Peak value for overall tracked memory usage on task 0     :           3.659 MB after allocating wave
  | Largest tracked array allocation on task 0 so far         :           2.500 MB  when allocating +KS_eigenvector_complex
  Note:  These values currently only include a subset of arrays which are explicitly tracked.
  The "true" memory usage will be greater.
------------------------------------------------------------

------------------------------------------------------------
          Begin self-consistency iteration #    1

  Date     :  20190514, Time     :  123620.510
------------------------------------------------------------
  Evaluating new KS density using the density matrix
  Evaluating density matrix
  Time summed over all CPUs for getting density from density matrix: real work        0.133 s, elapsed        0.133 s
  Integration grid: deviation in total charge (<rho> - N_e) =  -2.415845E-13
  Pulay mixing of updated and previous charge densities.

  Evaluating partitioned Hartree potential by multipole expansion.
  | Analytical far-field extrapolation by fixed multipoles:
  | Hartree multipole sum: apparent total charge =  -0.105226E-04
  Summing up the Hartree potential.
  | Estimated reciprocal-space cutoff momentum G_max:         1.84432723 bohr^-1 .
  | Reciprocal lattice points for long-range Hartree potential:      26
  Time summed over all CPUs for potential: real work        0.117 s, elapsed        0.117 s
  | RMS charge density error from multipole expansion :   0.101737E-03
  | Average real-space part of the electrostatic potential :     -0.01308281 eV

  Integrating Hamiltonian matrix: batch-based integration.
  Time summed over all CPUs for integration: real work        0.090 s, elapsed        0.090 s

  Updating Kohn-Sham eigenvalues, eigenvectors, occupation numbers, and Fermi level.
  Solving generalized eigenproblem

  Obtaining occupation numbers and chemical potential using ELSI.
  | Chemical potential (Fermi level):    -4.56056999eV
  Writing Kohn-Sham eigenvalues.
  K-point:       1 at    0.000000    0.000000    0.000000 (in units of recip. lattice)

  State    Occupation    Eigenvalue [Ha]    Eigenvalue [eV]
      1       2.00000         -65.494395        -1782.19317
      2       2.00000          -5.089874         -138.50252
      3       2.00000          -3.504214          -95.35450
      4       2.00000          -3.504214          -95.35450
      5       2.00000          -3.504214          -95.35450
      6       2.00000          -0.457110          -12.43860
      7       0.00000          -0.060183           -1.63766
      8       0.00000          -0.060183           -1.63766
      9       0.00000          -0.060183           -1.63766
     10       0.00000           0.109612            2.98269

  What follows are estimated values for band gap, HOMO, LUMO, etc.
  | They are estimated on a discrete k-point grid and not necessarily exact.
  | For converged numbers, create a DOS and/or band structure plot on a denser k-grid.

  Highest occupied state (VBM) at     -4.56847108 eV (relative to internal zero)
  | Occupation number:      1.73616937
  | K-point:     363 at    0.250000    0.666667    0.000000 (in units of recip. lattice)

  Lowest unoccupied state (CBM) at    -4.55094780 eV (relative to internal zero)
  | Occupation number:      0.17358199
  | K-point:     375 at    0.250000    0.750000    0.333333 (in units of recip. lattice)

  ESTIMATED overall HOMO-LUMO gap:      0.01752329 eV between HOMO at k-point 363 and LUMO at k-point 375
  | This appears to be an indirect band gap.
  | Smallest direct gap :      0.99932586 eV for k_point 680 at    0.250000    0.750000    0.333333 (in units of recip. lattice)
  However, this system has fractional occupation numbers. Since we use a finite k-point grid,
  this material is metallic within the approximate finite broadening function (occupation_type)
  applied to determine the occupation numbers.

  Total energy components:
  | Sum of eigenvalues            :        -163.40405111 Ha       -4446.45046374 eV
  | XC energy correction          :         -19.65457068 Ha        -534.82807995 eV
  | XC potential correction       :          25.96854372 Ha         706.64002810 eV
  | Free-atom electrostatic energy:        -132.19588221 Ha       -3597.23298019 eV
  | Hartree energy correction     :           0.02332495 Ha           0.63470430 eV
  | Entropy correction            :          -0.00000191 Ha          -0.00005203 eV
  | ---------------------------
  | Total energy                  :        -289.26263533 Ha       -7871.23679148 eV
  | Total energy, T -> 0          :        -289.26263724 Ha       -7871.23684351 eV  <-- do not rely on this value for anything but (periodic) metals
  | Electronic free energy        :        -289.26263916 Ha       -7871.23689554 eV

  Derived energy quantities:
  | Kinetic energy                :         289.52701199 Ha        7878.43084642 eV
  | Electrostatic energy          :        -559.13507664 Ha      -15214.83955795 eV
  | Energy correction for multipole
  | error in Hartree potential    :           0.00000866 Ha           0.00023573 eV
  | Sum of eigenvalues per atom                           :       -4446.45046374 eV
  | Total energy (T->0) per atom                          :       -7871.23684351 eV  <-- do not rely on this value for anything but (periodic) metals
  | Electronic free energy per atom                       :       -7871.23689554 eV

  Self-consistency convergence accuracy:
  | Change of charge density      :  0.3031E-01
  | Change of sum of eigenvalues  : -0.6155E+00 eV
  | Change of total energy        :  0.3159E-02 eV

  End self-consistency iteration #     1       :  max(cpu_time)    wall_clock(cpu1)
  | Time for this iteration                    :        0.474 s           0.474 s
  | Charge density update                      :        0.146 s           0.146 s
  | Density mixing & preconditioning           :        0.016 s           0.016 s
  | Hartree multipole update                   :        0.000 s           0.001 s
  | Hartree multipole summation                :        0.118 s           0.118 s
  | Integration                                :        0.090 s           0.090 s
  | Solution of K.-S. eqns.                    :        0.103 s           0.103 s
  | Total energy evaluation                    :        0.000 s           0.000 s

  Partial memory accounting:
  | Current value for overall tracked memory usage on task 0  :           2.641 MB
  | Peak value for overall tracked memory usage on task 0     :           3.659 MB after allocating wave
  | Largest tracked array allocation on task 0 so far         :           2.500 MB  when allocating +KS_eigenvector_complex
  Note:  These values currently only include a subset of arrays which are explicitly tracked.
  The "true" memory usage will be greater.
------------------------------------------------------------

------------------------------------------------------------
          Begin self-consistency iteration #    2

  Date     :  20190514, Time     :  123620.984
------------------------------------------------------------
  Evaluating new KS density using the density matrix
  Evaluating density matrix
  Time summed over all CPUs for getting density from density matrix: real work        0.132 s, elapsed        0.132 s
  Integration grid: deviation in total charge (<rho> - N_e) =  -4.121148E-13
  Pulay mixing of updated and previous charge densities.

  Evaluating partitioned Hartree potential by multipole expansion.
  | Analytical far-field extrapolation by fixed multipoles:
  | Hartree multipole sum: apparent total charge =  -0.263130E-02
  Summing up the Hartree potential.
  Time summed over all CPUs for potential: real work        0.151 s, elapsed        0.151 s
  | RMS charge density error from multipole expansion :   0.194085E-02
  | Average real-space part of the electrostatic potential :     -0.23388373 eV

  Integrating Hamiltonian matrix: batch-based integration.
  Time summed over all CPUs for integration: real work        0.087 s, elapsed        0.087 s

  Updating Kohn-Sham eigenvalues, eigenvectors, occupation numbers, and Fermi level.
  Solving generalized eigenproblem

  Obtaining occupation numbers and chemical potential using ELSI.
  | Chemical potential (Fermi level):    -4.73005180eV
  What follows are estimated values for band gap, HOMO, LUMO, etc.
  | They are estimated on a discrete k-point grid and not necessarily exact.
  | For converged numbers, create a DOS and/or band structure plot on a denser k-grid.

  Highest occupied state (VBM) at     -4.73897637 eV (relative to internal zero)
  | Occupation number:      1.79309620
  | K-point:     585 at    0.416667    0.666667    0.666667 (in units of recip. lattice)

  Lowest unoccupied state (CBM) at    -4.71974931 eV (relative to internal zero)
  | Occupation number:      0.14511830
  | K-point:     648 at    0.500000    0.250000    0.916667 (in units of recip. lattice)

  ESTIMATED overall HOMO-LUMO gap:      0.01922707 eV between HOMO at k-point 585 and LUMO at k-point 648
  | This appears to be an indirect band gap.
  | Smallest direct gap :      0.99724473 eV for k_point 376 at    0.500000    0.250000    0.916667 (in units of recip. lattice)
  However, this system has fractional occupation numbers. Since we use a finite k-point grid,
  this material is metallic within the approximate finite broadening function (occupation_type)
  applied to determine the occupation numbers.

  Checking to see if s.c.f. parameters should be adjusted.
  Adjusted the Pulay mixing parameter (charge_mix_param) for an expected low-gap system. New value:   0.020000 .
  Adjusted the occupation broadening width for an expected low-gap system. New value:      0.05000000 eV.

  Total energy components:
  | Sum of eigenvalues            :        -163.77876873 Ha       -4456.64704897 eV
  | XC energy correction          :         -19.62216819 Ha        -533.94636334 eV
  | XC potential correction       :          25.92580023 Ha         705.47691847 eV
  | Free-atom electrostatic energy:        -132.19588221 Ha       -3597.23298019 eV
  | Hartree energy correction     :           0.40955712 Ha          11.14461619 eV
  | Entropy correction            :          -0.00002934 Ha          -0.00079827 eV
  | ---------------------------
  | Total energy                  :        -289.26146179 Ha       -7871.20485783 eV
  | Total energy, T -> 0          :        -289.26149113 Ha       -7871.20565610 eV  <-- do not rely on this value for anything but (periodic) metals
  | Electronic free energy        :        -289.26152046 Ha       -7871.20645438 eV

  Derived energy quantities:
  | Kinetic energy                :         289.25543840 Ha        7871.04095300 eV
  | Electrostatic energy          :        -558.89473200 Ha      -15208.29944749 eV
  | Energy correction for multipole
  | error in Hartree potential    :           0.00018461 Ha           0.00502355 eV
  | Sum of eigenvalues per atom                           :       -4456.64704897 eV
  | Total energy (T->0) per atom                          :       -7871.20565610 eV  <-- do not rely on this value for anything but (periodic) metals
  | Electronic free energy per atom                       :       -7871.20645438 eV

  Self-consistency convergence accuracy:
  | Change of charge density      :  0.2882E-01
  | Change of sum of eigenvalues  : -0.1020E+02 eV
  | Change of total energy        :  0.3193E-01 eV

  End self-consistency iteration #     2       :  max(cpu_time)    wall_clock(cpu1)
  | Time for this iteration                    :        0.506 s           0.506 s
  | Charge density update                      :        0.145 s           0.146 s
  | Density mixing & preconditioning           :        0.016 s           0.015 s
  | Hartree multipole update                   :        0.000 s           0.001 s
  | Hartree multipole summation                :        0.152 s           0.152 s
  | Integration                                :        0.087 s           0.087 s
  | Solution of K.-S. eqns.                    :        0.105 s           0.105 s
  | Total energy evaluation                    :        0.000 s           0.000 s

  Partial memory accounting:
  | Current value for overall tracked memory usage on task 0  :           2.642 MB
  | Peak value for overall tracked memory usage on task 0     :           3.659 MB after allocating wave
  | Largest tracked array allocation on task 0 so far         :           2.500 MB  when allocating +KS_eigenvector_complex
  Note:  These values currently only include a subset of arrays which are explicitly tracked.
  The "true" memory usage will be greater.
------------------------------------------------------------

------------------------------------------------------------
          Begin self-consistency iteration #    3

  Date     :  20190514, Time     :  123621.490
------------------------------------------------------------
  Evaluating new KS density using the density matrix
  Evaluating density matrix
  Time summed over all CPUs for getting density from density matrix: real work        0.131 s, elapsed        0.131 s
  Integration grid: deviation in total charge (<rho> - N_e) =  -4.050094E-13
  Pulay mixing of updated and previous charge densities.

  Evaluating partitioned Hartree potential by multipole expansion.
  | Analytical far-field extrapolation by fixed multipoles:
  | Hartree multipole sum: apparent total charge =  -0.356671E-02
  Summing up the Hartree potential.
  Time summed over all CPUs for potential: real work        0.154 s, elapsed        0.154 s
  | RMS charge density error from multipole expansion :   0.251375E-02
  | Average real-space part of the electrostatic potential :     -0.31055414 eV

  Integrating Hamiltonian matrix: batch-based integration.
  Time summed over all CPUs for integration: real work        0.087 s, elapsed        0.087 s

  Updating Kohn-Sham eigenvalues, eigenvectors, occupation numbers, and Fermi level.
  Solving generalized eigenproblem

  Obtaining occupation numbers and chemical potential using ELSI.
  | Chemical potential (Fermi level):    -4.79492234eV
  What follows are estimated values for band gap, HOMO, LUMO, etc.
  | They are estimated on a discrete k-point grid and not necessarily exact.
  | For converged numbers, create a DOS and/or band structure plot on a denser k-grid.

  Highest occupied state (VBM) at     -4.84067989 eV (relative to internal zero)
  | Occupation number:      1.80441026
  | K-point:     459 at    0.333333    0.500000    0.666667 (in units of recip. lattice)

  Lowest unoccupied state (CBM) at    -4.79350773 eV (relative to internal zero)
  | Occupation number:      0.96808419
  | K-point:     465 at    0.333333    0.583333    0.333333 (in units of recip. lattice)

  ESTIMATED overall HOMO-LUMO gap:      0.04717217 eV between HOMO at k-point 459 and LUMO at k-point 465
  | This appears to be an indirect band gap.
  | Smallest direct gap :      0.99670309 eV for k_point 779 at    0.333333    0.583333    0.333333 (in units of recip. lattice)
  However, this system has fractional occupation numbers. Since we use a finite k-point grid,
  this material is metallic within the approximate finite broadening function (occupation_type)
  applied to determine the occupation numbers.

  Total energy components:
  | Sum of eigenvalues            :        -163.87495654 Ha       -4459.26445230 eV
  | XC energy correction          :         -19.61511479 Ha        -533.75443059 eV
  | XC potential correction       :          25.91652608 Ha         705.22455610 eV
  | Free-atom electrostatic energy:        -132.19588221 Ha       -3597.23298019 eV
  | Hartree energy correction     :           0.50803125 Ha          13.82423362 eV
  | Entropy correction            :          -0.00002647 Ha          -0.00072021 eV
  | ---------------------------
  | Total energy                  :        -289.26139621 Ha       -7871.20307335 eV
  | Total energy, T -> 0          :        -289.26142268 Ha       -7871.20379356 eV  <-- do not rely on this value for anything but (periodic) metals
  | Electronic free energy        :        -289.26144915 Ha       -7871.20451377 eV

  Derived energy quantities:
  | Kinetic energy                :         289.22990370 Ha        7870.34611844 eV
  | Electrostatic energy          :        -558.87618512 Ha      -15207.79476120 eV
  | Energy correction for multipole
  | error in Hartree potential    :           0.00025864 Ha           0.00703788 eV
  | Sum of eigenvalues per atom                           :       -4459.26445230 eV
  | Total energy (T->0) per atom                          :       -7871.20379356 eV  <-- do not rely on this value for anything but (periodic) metals
  | Electronic free energy per atom                       :       -7871.20451377 eV

  Self-consistency convergence accuracy:
  | Change of charge density      :  0.7406E-02
  | Change of sum of eigenvalues  : -0.2617E+01 eV
  | Change of total energy        :  0.1784E-02 eV

  End self-consistency iteration #     3       :  max(cpu_time)    wall_clock(cpu1)
  | Time for this iteration                    :        0.506 s           0.506 s
  | Charge density update                      :        0.143 s           0.144 s
  | Density mixing & preconditioning           :        0.015 s           0.015 s
  | Hartree multipole update                   :        0.000 s           0.000 s
  | Hartree multipole summation                :        0.157 s           0.157 s
  | Integration                                :        0.088 s           0.087 s
  | Solution of K.-S. eqns.                    :        0.103 s           0.103 s
  | Total energy evaluation                    :        0.000 s           0.000 s

  Partial memory accounting:
  | Current value for overall tracked memory usage on task 0  :           2.642 MB
  | Peak value for overall tracked memory usage on task 0     :           3.659 MB after allocating wave
  | Largest tracked array allocation on task 0 so far         :           2.500 MB  when allocating +KS_eigenvector_complex
  Note:  These values currently only include a subset of arrays which are explicitly tracked.
  The "true" memory usage will be greater.
------------------------------------------------------------

------------------------------------------------------------
          Begin self-consistency iteration #    4

  Date     :  20190514, Time     :  123621.996
------------------------------------------------------------
  Evaluating new KS density using the density matrix
  Evaluating density matrix
  Time summed over all CPUs for getting density from density matrix: real work        0.132 s, elapsed        0.132 s
  Integration grid: deviation in total charge (<rho> - N_e) =  -4.423129E-13
  Pulay mixing of updated and previous charge densities.

  Evaluating partitioned Hartree potential by multipole expansion.
  | Analytical far-field extrapolation by fixed multipoles:
  | Hartree multipole sum: apparent total charge =  -0.339158E-02
  Summing up the Hartree potential.
  Time summed over all CPUs for potential: real work        0.154 s, elapsed        0.154 s
  | RMS charge density error from multipole expansion :   0.233944E-02
  | Average real-space part of the electrostatic potential :     -0.29892436 eV

  Integrating Hamiltonian matrix: batch-based integration.
  Time summed over all CPUs for integration: real work        0.087 s, elapsed        0.087 s

  Updating Kohn-Sham eigenvalues, eigenvectors, occupation numbers, and Fermi level.
  Solving generalized eigenproblem

  Obtaining occupation numbers and chemical potential using ELSI.
  | Chemical potential (Fermi level):    -4.78061901eV
  What follows are estimated values for band gap, HOMO, LUMO, etc.
  | They are estimated on a discrete k-point grid and not necessarily exact.
  | For converged numbers, create a DOS and/or band structure plot on a denser k-grid.

  Highest occupied state (VBM) at     -4.82616319 eV (relative to internal zero)
  | Occupation number:      1.80231812
  | K-point:     475 at    0.333333    0.666667    0.500000 (in units of recip. lattice)

  Lowest unoccupied state (CBM) at    -4.77920104 eV (relative to internal zero)
  | Occupation number:      0.96800839
  | K-point:     440 at    0.333333    0.333333    0.583333 (in units of recip. lattice)

  ESTIMATED overall HOMO-LUMO gap:      0.04696216 eV between HOMO at k-point 475 and LUMO at k-point 440
  | This appears to be an indirect band gap.
  | Smallest direct gap :      0.99747803 eV for k_point 376 at    0.333333    0.333333    0.583333 (in units of recip. lattice)
  However, this system has fractional occupation numbers. Since we use a finite k-point grid,
  this material is metallic within the approximate finite broadening function (occupation_type)
  applied to determine the occupation numbers.

  Total energy components:
  | Sum of eigenvalues            :        -163.81129153 Ha       -4457.53203931 eV
  | XC energy correction          :         -19.62183309 Ha        -533.93724491 eV
  | XC potential correction       :          25.92543064 Ha         705.46686134 eV
  | Free-atom electrostatic energy:        -132.19588221 Ha       -3597.23298019 eV
  | Hartree energy correction     :           0.44218796 Ha          12.03254650 eV
  | Entropy correction            :          -0.00002647 Ha          -0.00072040 eV
  | ---------------------------
  | Total energy                  :        -289.26138825 Ha       -7871.20285657 eV
  | Total energy, T -> 0          :        -289.26141472 Ha       -7871.20357697 eV  <-- do not rely on this value for anything but (periodic) metals
  | Electronic free energy        :        -289.26144119 Ha       -7871.20429737 eV

  Derived energy quantities:
  | Kinetic energy                :         289.33344622 Ha        7873.16365379 eV
  | Electrostatic energy          :        -558.97300137 Ha      -15210.42926545 eV
  | Energy correction for multipole
  | error in Hartree potential    :           0.00025363 Ha           0.00690167 eV
  | Sum of eigenvalues per atom                           :       -4457.53203931 eV
  | Total energy (T->0) per atom                          :       -7871.20357697 eV  <-- do not rely on this value for anything but (periodic) metals
  | Electronic free energy per atom                       :       -7871.20429737 eV

  Self-consistency convergence accuracy:
  | Change of charge density      :  0.6543E-02
  | Change of sum of eigenvalues  :  0.1732E+01 eV
  | Change of total energy        :  0.2168E-03 eV

  End self-consistency iteration #     4       :  max(cpu_time)    wall_clock(cpu1)
  | Time for this iteration                    :        0.507 s           0.507 s
  | Charge density update                      :        0.145 s           0.145 s
  | Density mixing & preconditioning           :        0.015 s           0.015 s
  | Hartree multipole update                   :        0.000 s           0.001 s
  | Hartree multipole summation                :        0.155 s           0.155 s
  | Integration                                :        0.087 s           0.087 s
  | Solution of K.-S. eqns.                    :        0.104 s           0.104 s
  | Total energy evaluation                    :        0.000 s           0.000 s

  Partial memory accounting:
  | Current value for overall tracked memory usage on task 0  :           2.643 MB
  | Peak value for overall tracked memory usage on task 0     :           3.659 MB after allocating wave
  | Largest tracked array allocation on task 0 so far         :           2.500 MB  when allocating +KS_eigenvector_complex
  Note:  These values currently only include a subset of arrays which are explicitly tracked.
  The "true" memory usage will be greater.
------------------------------------------------------------

------------------------------------------------------------
          Begin self-consistency iteration #    5

  Date     :  20190514, Time     :  123622.503
------------------------------------------------------------
  Evaluating new KS density using the density matrix
  Evaluating density matrix
  Time summed over all CPUs for getting density from density matrix: real work        0.132 s, elapsed        0.132 s
  Integration grid: deviation in total charge (<rho> - N_e) =  -2.504663E-13
  Pulay mixing of updated and previous charge densities.

  Evaluating partitioned Hartree potential by multipole expansion.
  | Analytical far-field extrapolation by fixed multipoles:
  | Hartree multipole sum: apparent total charge =  -0.267508E-02
  Summing up the Hartree potential.
  Time summed over all CPUs for potential: real work        0.153 s, elapsed        0.153 s
  | RMS charge density error from multipole expansion :   0.240900E-02
  | Average real-space part of the electrostatic potential :     -0.31222161 eV

  Integrating Hamiltonian matrix: batch-based integration.
  Time summed over all CPUs for integration: real work        0.089 s, elapsed        0.089 s

  Updating Kohn-Sham eigenvalues, eigenvectors, occupation numbers, and Fermi level.
  Solving generalized eigenproblem

  Obtaining occupation numbers and chemical potential using ELSI.
  | Chemical potential (Fermi level):    -4.78662927eV
  What follows are estimated values for band gap, HOMO, LUMO, etc.
  | They are estimated on a discrete k-point grid and not necessarily exact.
  | For converged numbers, create a DOS and/or band structure plot on a denser k-grid.

  Highest occupied state (VBM) at     -4.83227423 eV (relative to internal zero)
  | Occupation number:      1.80330829
  | K-point:     475 at    0.333333    0.666667    0.500000 (in units of recip. lattice)

  Lowest unoccupied state (CBM) at    -4.78522246 eV (relative to internal zero)
  | Occupation number:      0.96826024
  | K-point:     440 at    0.333333    0.333333    0.583333 (in units of recip. lattice)

  ESTIMATED overall HOMO-LUMO gap:      0.04705177 eV between HOMO at k-point 475 and LUMO at k-point 440
  | This appears to be an indirect band gap.
  | Smallest direct gap :      0.99739757 eV for k_point 376 at    0.333333    0.333333    0.583333 (in units of recip. lattice)
  However, this system has fractional occupation numbers. Since we use a finite k-point grid,
  this material is metallic within the approximate finite broadening function (occupation_type)
  applied to determine the occupation numbers.

  Total energy components:
  | Sum of eigenvalues            :        -163.82576922 Ha       -4457.92599714 eV
  | XC energy correction          :         -19.62030699 Ha        -533.89571753 eV
  | XC potential correction       :          25.92342009 Ha         705.41215151 eV
  | Free-atom electrostatic energy:        -132.19588221 Ha       -3597.23298019 eV
  | Hartree energy correction     :           0.45715195 Ha          12.43973758 eV
  | Entropy correction            :          -0.00002647 Ha          -0.00072019 eV
  | ---------------------------
  | Total energy                  :        -289.26138638 Ha       -7871.20280577 eV
  | Total energy, T -> 0          :        -289.26141285 Ha       -7871.20352596 eV  <-- do not rely on this value for anything but (periodic) metals
  | Electronic free energy        :        -289.26143931 Ha       -7871.20424615 eV

  Derived energy quantities:
  | Kinetic energy                :         289.32118685 Ha        7872.83005945 eV
  | Electrostatic energy          :        -558.96226624 Ha      -15210.13714770 eV
  | Energy correction for multipole
  | error in Hartree potential    :           0.00026260 Ha           0.00714575 eV
  | Sum of eigenvalues per atom                           :       -4457.92599714 eV
  | Total energy (T->0) per atom                          :       -7871.20352596 eV  <-- do not rely on this value for anything but (periodic) metals
  | Electronic free energy per atom                       :       -7871.20424615 eV

  Self-consistency convergence accuracy:
  | Change of charge density      :  0.1163E-02
  | Change of sum of eigenvalues  : -0.3940E+00 eV
  | Change of total energy        :  0.5079E-04 eV

  End self-consistency iteration #     5       :  max(cpu_time)    wall_clock(cpu1)
  | Time for this iteration                    :        0.509 s           0.509 s
  | Charge density update                      :        0.144 s           0.144 s
  | Density mixing & preconditioning           :        0.015 s           0.015 s
  | Hartree multipole update                   :        0.000 s           0.001 s
  | Hartree multipole summation                :        0.155 s           0.155 s
  | Integration                                :        0.089 s           0.089 s
  | Solution of K.-S. eqns.                    :        0.105 s           0.105 s
  | Total energy evaluation                    :        0.000 s           0.000 s

  Partial memory accounting:
  | Current value for overall tracked memory usage on task 0  :           2.643 MB
  | Peak value for overall tracked memory usage on task 0     :           3.659 MB after allocating wave
  | Largest tracked array allocation on task 0 so far         :           2.500 MB  when allocating +KS_eigenvector_complex
  Note:  These values currently only include a subset of arrays which are explicitly tracked.
  The "true" memory usage will be greater.
------------------------------------------------------------

------------------------------------------------------------
          Begin self-consistency iteration #    6

  Date     :  20190514, Time     :  123623.012
------------------------------------------------------------
  Evaluating new KS density using the density matrix
  Evaluating density matrix
  Time summed over all CPUs for getting density from density matrix: real work        0.131 s, elapsed        0.131 s
  Integration grid: deviation in total charge (<rho> - N_e) =  -3.765876E-13
  Pulay mixing of updated and previous charge densities.

  Evaluating partitioned Hartree potential by multipole expansion.
  | Analytical far-field extrapolation by fixed multipoles:
  | Hartree multipole sum: apparent total charge =  -0.108670E-03
  Summing up the Hartree potential.
  Time summed over all CPUs for potential: real work        0.152 s, elapsed        0.152 s
  | RMS charge density error from multipole expansion :   0.237097E-02
  | Average real-space part of the electrostatic potential :     -0.32171887 eV

  Integrating Hamiltonian matrix: batch-based integration.
  Time summed over all CPUs for integration: real work        0.087 s, elapsed        0.087 s

  Updating Kohn-Sham eigenvalues, eigenvectors, occupation numbers, and Fermi level.
  Solving generalized eigenproblem

  Obtaining occupation numbers and chemical potential using ELSI.
  | Chemical potential (Fermi level):    -4.78164369eV
  What follows are estimated values for band gap, HOMO, LUMO, etc.
  | They are estimated on a discrete k-point grid and not necessarily exact.
  | For converged numbers, create a DOS and/or band structure plot on a denser k-grid.

  Highest occupied state (VBM) at     -4.82724842 eV (relative to internal zero)
  | Occupation number:      1.80291346
  | K-point:     244 at    0.166667    0.500000    0.833333 (in units of recip. lattice)

  Lowest unoccupied state (CBM) at    -4.78023696 eV (relative to internal zero)
  | Occupation number:      0.96826189
  | K-point:     356 at    0.250000    0.583333    0.250000 (in units of recip. lattice)

  ESTIMATED overall HOMO-LUMO gap:      0.04701146 eV between HOMO at k-point 244 and LUMO at k-point 356
  | This appears to be an indirect band gap.
  | Smallest direct gap :      0.99755622 eV for k_point 779 at    0.250000    0.583333    0.250000 (in units of recip. lattice)
  However, this system has fractional occupation numbers. Since we use a finite k-point grid,
  this material is metallic within the approximate finite broadening function (occupation_type)
  applied to determine the occupation numbers.

  Total energy components:
  | Sum of eigenvalues            :        -163.81970316 Ha       -4457.76093145 eV
  | XC energy correction          :         -19.61978810 Ha        -533.88159792 eV
  | XC potential correction       :          25.92274223 Ha         705.39370605 eV
  | Free-atom electrostatic energy:        -132.19588221 Ha       -3597.23298019 eV
  | Hartree energy correction     :           0.45124478 Ha          12.27899532 eV
  | Entropy correction            :          -0.00002647 Ha          -0.00072022 eV
  | ---------------------------
  | Total energy                  :        -289.26138647 Ha       -7871.20280819 eV
  | Total energy, T -> 0          :        -289.26141294 Ha       -7871.20352841 eV  <-- do not rely on this value for anything but (periodic) metals
  | Electronic free energy        :        -289.26143940 Ha       -7871.20424863 eV

  Derived energy quantities:
  | Kinetic energy                :         289.31712949 Ha        7872.71965294 eV
  | Electrostatic energy          :        -558.95872785 Ha      -15210.04086322 eV
  | Energy correction for multipole
  | error in Hartree potential    :           0.00026058 Ha           0.00709071 eV
  | Sum of eigenvalues per atom                           :       -4457.76093145 eV
  | Total energy (T->0) per atom                          :       -7871.20352841 eV  <-- do not rely on this value for anything but (periodic) metals
  | Electronic free energy per atom                       :       -7871.20424863 eV

  Self-consistency convergence accuracy:
  | Change of charge density      :  0.7194E-03
  | Change of sum of eigenvalues  :  0.1651E+00 eV
  | Change of total energy        : -0.2420E-05 eV

  End self-consistency iteration #     6       :  max(cpu_time)    wall_clock(cpu1)
  | Time for this iteration                    :        0.503 s           0.503 s
  | Charge density update                      :        0.143 s           0.143 s
  | Density mixing & preconditioning           :        0.014 s           0.014 s
  | Hartree multipole update                   :        0.000 s           0.001 s
  | Hartree multipole summation                :        0.154 s           0.154 s
  | Integration                                :        0.087 s           0.087 s
  | Solution of K.-S. eqns.                    :        0.104 s           0.104 s
  | Total energy evaluation                    :        0.000 s           0.000 s

  Partial memory accounting:
  | Current value for overall tracked memory usage on task 0  :           2.643 MB
  | Peak value for overall tracked memory usage on task 0     :           3.659 MB after allocating wave
  | Largest tracked array allocation on task 0 so far         :           2.500 MB  when allocating +KS_eigenvector_complex
  Note:  These values currently only include a subset of arrays which are explicitly tracked.
  The "true" memory usage will be greater.
------------------------------------------------------------

------------------------------------------------------------
          Begin self-consistency iteration #    7

  Date     :  20190514, Time     :  123623.515
------------------------------------------------------------
  Evaluating new KS density using the density matrix
  Evaluating density matrix
  Time summed over all CPUs for getting density from density matrix: real work        0.131 s, elapsed        0.131 s
  Integration grid: deviation in total charge (<rho> - N_e) =  -5.702105E-13
  Pulay mixing of updated and previous charge densities.

  Evaluating partitioned Hartree potential by multipole expansion.
  | Analytical far-field extrapolation by fixed multipoles:
  | Hartree multipole sum: apparent total charge =  -0.388578E-03
  Summing up the Hartree potential.
  Time summed over all CPUs for potential: real work        0.157 s, elapsed        0.157 s
  | RMS charge density error from multipole expansion :   0.239207E-02
  | Average real-space part of the electrostatic potential :     -0.32294334 eV

  Integrating Hamiltonian matrix: batch-based integration.
  Time summed over all CPUs for integration: real work        0.089 s, elapsed        0.089 s

  Updating Kohn-Sham eigenvalues, eigenvectors, occupation numbers, and Fermi level.
  Solving generalized eigenproblem

  Obtaining occupation numbers and chemical potential using ELSI.
  | Chemical potential (Fermi level):    -4.78379111eV
  What follows are estimated values for band gap, HOMO, LUMO, etc.
  | They are estimated on a discrete k-point grid and not necessarily exact.
  | For converged numbers, create a DOS and/or band structure plot on a denser k-grid.

  Highest occupied state (VBM) at     -4.82942431 eV (relative to internal zero)
  | Occupation number:      1.80319281
  | K-point:     225 at    0.166667    0.333333    0.666667 (in units of recip. lattice)

  Lowest unoccupied state (CBM) at    -4.78238661 eV (relative to internal zero)
  | Occupation number:      0.96831198
  | K-point:     725 at    0.666667    0.000000    0.250000 (in units of recip. lattice)

  ESTIMATED overall HOMO-LUMO gap:      0.04703770 eV between HOMO at k-point 225 and LUMO at k-point 725
  | This appears to be an indirect band gap.
  | Smallest direct gap :      0.99751036 eV for k_point 779 at    0.666667    0.000000    0.250000 (in units of recip. lattice)
  However, this system has fractional occupation numbers. Since we use a finite k-point grid,
  this material is metallic within the approximate finite broadening function (occupation_type)
  applied to determine the occupation numbers.

  Total energy components:
  | Sum of eigenvalues            :        -163.82365460 Ha       -4457.86845554 eV
  | XC energy correction          :         -19.61957692 Ha        -533.87585137 eV
  | XC potential correction       :          25.92246335 Ha         705.38611734 eV
  | Free-atom electrostatic energy:        -132.19588221 Ha       -3597.23298019 eV
  | Hartree energy correction     :           0.45526427 Ha          12.38837113 eV
  | Entropy correction            :          -0.00002647 Ha          -0.00072017 eV
  | ---------------------------
  | Total energy                  :        -289.26138612 Ha       -7871.20279862 eV
  | Total energy, T -> 0          :        -289.26141258 Ha       -7871.20351879 eV  <-- do not rely on this value for anything but (periodic) metals
  | Electronic free energy        :        -289.26143905 Ha       -7871.20423896 eV

  Derived energy quantities:
  | Kinetic energy                :         289.31568970 Ha        7872.68047424 eV
  | Electrostatic energy          :        -558.95749889 Ha      -15210.00742149 eV
  | Energy correction for multipole
  | error in Hartree potential    :           0.00026269 Ha           0.00714809 eV
  | Sum of eigenvalues per atom                           :       -4457.86845554 eV
  | Total energy (T->0) per atom                          :       -7871.20351879 eV  <-- do not rely on this value for anything but (periodic) metals
  | Electronic free energy per atom                       :       -7871.20423896 eV

  Self-consistency convergence accuracy:
  | Change of charge density      :  0.1089E-03
  | Change of sum of eigenvalues  : -0.1075E+00 eV
  | Change of total energy        :  0.9567E-05 eV

  End self-consistency iteration #     7       :  max(cpu_time)    wall_clock(cpu1)
  | Time for this iteration                    :        0.511 s           0.512 s
  | Charge density update                      :        0.144 s           0.145 s
  | Density mixing & preconditioning           :        0.015 s           0.014 s
  | Hartree multipole update                   :        0.000 s           0.001 s
  | Hartree multipole summation                :        0.158 s           0.158 s
  | Integration                                :        0.089 s           0.089 s
  | Solution of K.-S. eqns.                    :        0.104 s           0.104 s
  | Total energy evaluation                    :        0.000 s           0.001 s

  Partial memory accounting:
  | Current value for overall tracked memory usage on task 0  :           2.643 MB
  | Peak value for overall tracked memory usage on task 0     :           3.659 MB after allocating wave
  | Largest tracked array allocation on task 0 so far         :           2.500 MB  when allocating +KS_eigenvector_complex
  Note:  These values currently only include a subset of arrays which are explicitly tracked.
  The "true" memory usage will be greater.
------------------------------------------------------------

------------------------------------------------------------
          Begin self-consistency iteration #    8

  Date     :  20190514, Time     :  123624.027
------------------------------------------------------------
  Evaluating new KS density using the density matrix
  Evaluating density matrix
  Time summed over all CPUs for getting density from density matrix: real work        0.132 s, elapsed        0.132 s
  Integration grid: deviation in total charge (<rho> - N_e) =  -2.415845E-13
  Pulay mixing of updated and previous charge densities.

  Evaluating partitioned Hartree potential by multipole expansion.
  | Analytical far-field extrapolation by fixed multipoles:
  | Hartree multipole sum: apparent total charge =   0.200302E-03
  Summing up the Hartree potential.
  Time summed over all CPUs for potential: real work        0.152 s, elapsed        0.152 s
  | RMS charge density error from multipole expansion :   0.236700E-02
  | Average real-space part of the electrostatic potential :     -0.32292105 eV

  Integrating Hamiltonian matrix: batch-based integration.
  Time summed over all CPUs for integration: real work        0.086 s, elapsed        0.087 s

  Updating Kohn-Sham eigenvalues, eigenvectors, occupation numbers, and Fermi level.
  Solving generalized eigenproblem

  Obtaining occupation numbers and chemical potential using ELSI.
  | Chemical potential (Fermi level):    -4.78121367eV
  What follows are estimated values for band gap, HOMO, LUMO, etc.
  | They are estimated on a discrete k-point grid and not necessarily exact.
  | For converged numbers, create a DOS and/or band structure plot on a denser k-grid.

  Highest occupied state (VBM) at     -4.82681541 eV (relative to internal zero)
  | Occupation number:      1.80288400
  | K-point:     244 at    0.166667    0.500000    0.833333 (in units of recip. lattice)

  Lowest unoccupied state (CBM) at    -4.77980650 eV (relative to internal zero)
  | Occupation number:      0.96825196
  | K-point:     356 at    0.250000    0.583333    0.250000 (in units of recip. lattice)

  ESTIMATED overall HOMO-LUMO gap:      0.04700890 eV between HOMO at k-point 244 and LUMO at k-point 356
  | This appears to be an indirect band gap.
  | Smallest direct gap :      0.99756572 eV for k_point 779 at    0.250000    0.583333    0.250000 (in units of recip. lattice)
  However, this system has fractional occupation numbers. Since we use a finite k-point grid,
  this material is metallic within the approximate finite broadening function (occupation_type)
  applied to determine the occupation numbers.

  Total energy components:
  | Sum of eigenvalues            :        -163.81865135 Ha       -4457.73231028 eV
  | XC energy correction          :         -19.61979742 Ha        -533.88185140 eV
  | XC potential correction       :          25.92275616 Ha         705.39408529 eV
  | Free-atom electrostatic energy:        -132.19588221 Ha       -3597.23298019 eV
  | Hartree energy correction     :           0.45018822 Ha          12.25024480 eV
  | Entropy correction            :          -0.00002647 Ha          -0.00072023 eV
  | ---------------------------
  | Total energy                  :        -289.26138660 Ha       -7871.20281178 eV
  | Total energy, T -> 0          :        -289.26141307 Ha       -7871.20353201 eV  <-- do not rely on this value for anything but (periodic) metals
  | Electronic free energy        :        -289.26143954 Ha       -7871.20425224 eV

  Derived energy quantities:
  | Kinetic energy                :         289.31809213 Ha        7872.74584769 eV
  | Electrostatic energy          :        -558.95968131 Ha      -15210.06680807 eV
  | Energy correction for multipole
  | error in Hartree potential    :           0.00025986 Ha           0.00707103 eV
  | Sum of eigenvalues per atom                           :       -4457.73231028 eV
  | Total energy (T->0) per atom                          :       -7871.20353201 eV  <-- do not rely on this value for anything but (periodic) metals
  | Electronic free energy per atom                       :       -7871.20425224 eV

  Self-consistency convergence accuracy:
  | Change of charge density      :  0.3297E-03
  | Change of sum of eigenvalues  :  0.1361E+00 eV
  | Change of total energy        : -0.1316E-04 eV

  End self-consistency iteration #     8       :  max(cpu_time)    wall_clock(cpu1)
  | Time for this iteration                    :        0.503 s           0.503 s
  | Charge density update                      :        0.144 s           0.144 s
  | Density mixing & preconditioning           :        0.014 s           0.014 s
  | Hartree multipole update                   :        0.000 s           0.001 s
  | Hartree multipole summation                :        0.154 s           0.154 s
  | Integration                                :        0.087 s           0.087 s
  | Solution of K.-S. eqns.                    :        0.103 s           0.103 s
  | Total energy evaluation                    :        0.000 s           0.000 s

  Partial memory accounting:
  | Current value for overall tracked memory usage on task 0  :           2.644 MB
  | Peak value for overall tracked memory usage on task 0     :           3.659 MB after allocating wave
  | Largest tracked array allocation on task 0 so far         :           2.500 MB  when allocating +KS_eigenvector_complex
  Note:  These values currently only include a subset of arrays which are explicitly tracked.
  The "true" memory usage will be greater.
------------------------------------------------------------

------------------------------------------------------------
          Begin self-consistency iteration #    9

  Date     :  20190514, Time     :  123624.530
------------------------------------------------------------
  Evaluating new KS density using the density matrix
  Evaluating density matrix
  Time summed over all CPUs for getting density from density matrix: real work        0.132 s, elapsed        0.132 s
  Integration grid: deviation in total charge (<rho> - N_e) =  -4.973799E-13
  Pulay mixing of updated and previous charge densities.

  Evaluating partitioned Hartree potential by multipole expansion.
  | Analytical far-field extrapolation by fixed multipoles:
  | Hartree multipole sum: apparent total charge =   0.186402E-03
  Summing up the Hartree potential.
  Time summed over all CPUs for potential: real work        0.153 s, elapsed        0.153 s
  | RMS charge density error from multipole expansion :   0.236667E-02
  | Average real-space part of the electrostatic potential :     -0.32283606 eV

  Integrating Hamiltonian matrix: batch-based integration.
  Time summed over all CPUs for integration: real work        0.086 s, elapsed        0.086 s

  Updating Kohn-Sham eigenvalues, eigenvectors, occupation numbers, and Fermi level.
  Solving generalized eigenproblem

  Obtaining occupation numbers and chemical potential using ELSI.
  | Chemical potential (Fermi level):    -4.78120940eV
  What follows are estimated values for band gap, HOMO, LUMO, etc.
  | They are estimated on a discrete k-point grid and not necessarily exact.
  | For converged numbers, create a DOS and/or band structure plot on a denser k-grid.

  Highest occupied state (VBM) at     -4.82681087 eV (relative to internal zero)
  | Occupation number:      1.80288139
  | K-point:     478 at    0.333333    0.666667    0.833333 (in units of recip. lattice)

  Lowest unoccupied state (CBM) at    -4.77980221 eV (relative to internal zero)
  | Occupation number:      0.96825153
  | K-point:     465 at    0.333333    0.583333    0.333333 (in units of recip. lattice)

  ESTIMATED overall HOMO-LUMO gap:      0.04700866 eV between HOMO at k-point 478 and LUMO at k-point 465
  | This appears to be an indirect band gap.
  | Smallest direct gap :      0.99756641 eV for k_point 779 at    0.333333    0.583333    0.333333 (in units of recip. lattice)
  However, this system has fractional occupation numbers. Since we use a finite k-point grid,
  this material is metallic within the approximate finite broadening function (occupation_type)
  applied to determine the occupation numbers.

  Total energy components:
  | Sum of eigenvalues            :        -163.81861960 Ha       -4457.73144627 eV
  | XC energy correction          :         -19.61980373 Ha        -533.88202307 eV
  | XC potential correction       :          25.92276443 Ha         705.39431015 eV
  | Free-atom electrostatic energy:        -132.19588221 Ha       -3597.23298019 eV
  | Hartree energy correction     :           0.45015450 Ha          12.24932729 eV
  | Entropy correction            :          -0.00002647 Ha          -0.00072023 eV
  | ---------------------------
  | Total energy                  :        -289.26138661 Ha       -7871.20281208 eV
  | Total energy, T -> 0          :        -289.26141308 Ha       -7871.20353231 eV  <-- do not rely on this value for anything but (periodic) metals
  | Electronic free energy        :        -289.26143955 Ha       -7871.20425253 eV

  Derived energy quantities:
  | Kinetic energy                :         289.31811137 Ha        7872.74637133 eV
  | Electrostatic energy          :        -558.95969425 Ha      -15210.06716034 eV
  | Energy correction for multipole
  | error in Hartree potential    :           0.00025984 Ha           0.00707066 eV
  | Sum of eigenvalues per atom                           :       -4457.73144627 eV
[...]
  | Hartree multipole update                   :        0.000 s           0.001 s
  | Hartree multipole summation                :        0.154 s           0.154 s
  | Integration                                :        0.086 s           0.086 s
  | Solution of K.-S. eqns.                    :        0.104 s           0.104 s
  | Total energy evaluation                    :        0.000 s           0.000 s

  Partial memory accounting:
  | Current value for overall tracked memory usage on task 0  :           2.644 MB
  | Peak value for overall tracked memory usage on task 0     :           3.659 MB after allocating wave
  | Largest tracked array allocation on task 0 so far         :           2.500 MB  when allocating +KS_eigenvector_complex
  Note:  These values currently only include a subset of arrays which are explicitly tracked.
  The "true" memory usage will be greater.
------------------------------------------------------------

------------------------------------------------------------
          Begin self-consistency iteration #   10

  Date     :  20190514, Time     :  123625.033
------------------------------------------------------------
  Evaluating new KS density using the density matrix
  Evaluating density matrix
  Time summed over all CPUs for getting density from density matrix: real work        0.133 s, elapsed        0.133 s
  Integration grid: deviation in total charge (<rho> - N_e) =  -3.392842E-13
  Pulay mixing of updated and previous charge densities.

  Evaluating partitioned Hartree potential by multipole expansion.
  | Analytical far-field extrapolation by fixed multipoles:
  | Hartree multipole sum: apparent total charge =   0.186374E-03
  Summing up the Hartree potential.
  Time summed over all CPUs for potential: real work        0.154 s, elapsed        0.154 s
  | RMS charge density error from multipole expansion :   0.236680E-02
  | Average real-space part of the electrostatic potential :     -0.32284869 eV

  Integrating Hamiltonian matrix: batch-based integration.
  Time summed over all CPUs for integration: real work        0.089 s, elapsed        0.089 s

  Updating Kohn-Sham eigenvalues, eigenvectors, occupation numbers, and Fermi level.
  Solving generalized eigenproblem

  Obtaining occupation numbers and chemical potential using ELSI.
  | Chemical potential (Fermi level):    -4.78121930eV
  What follows are estimated values for band gap, HOMO, LUMO, etc.
  | They are estimated on a discrete k-point grid and not necessarily exact.
  | For converged numbers, create a DOS and/or band structure plot on a denser k-grid.

  Highest occupied state (VBM) at     -4.82682092 eV (relative to internal zero)
  | Occupation number:      1.80288287
  | K-point:     478 at    0.333333    0.666667    0.833333 (in units of recip. lattice)

  Lowest unoccupied state (CBM) at    -4.77981212 eV (relative to internal zero)
  | Occupation number:      0.96825179
  | K-point:     465 at    0.333333    0.583333    0.333333 (in units of recip. lattice)

  ESTIMATED overall HOMO-LUMO gap:      0.04700880 eV between HOMO at k-point 478 and LUMO at k-point 465
  | This appears to be an indirect band gap.
  | Smallest direct gap :      0.99756612 eV for k_point 779 at    0.333333    0.583333    0.333333 (in units of recip. lattice)
  However, this system has fractional occupation numbers. Since we use a finite k-point grid,
  this material is metallic within the approximate finite broadening function (occupation_type)
  applied to determine the occupation numbers.

  Total energy components:
  | Sum of eigenvalues            :        -163.81864162 Ha       -4457.73204532 eV
  | XC energy correction          :         -19.61980206 Ha        -533.88197776 eV
  | XC potential correction       :          25.92276223 Ha         705.39425044 eV
  | Free-atom electrostatic energy:        -132.19588221 Ha       -3597.23298019 eV
  | Hartree energy correction     :           0.45017705 Ha          12.24994084 eV
  | Entropy correction            :          -0.00002647 Ha          -0.00072023 eV
  | ---------------------------
  | Total energy                  :        -289.26138661 Ha       -7871.20281198 eV
  | Total energy, T -> 0          :        -289.26141308 Ha       -7871.20353221 eV  <-- do not rely on this value for anything but (periodic) metals
  | Electronic free energy        :        -289.26143954 Ha       -7871.20425244 eV

  Derived energy quantities:
  | Kinetic energy                :         289.31810055 Ha        7872.74607699 eV
  | Electrostatic energy          :        -558.95968510 Ha      -15210.06691122 eV
  | Energy correction for multipole
  | error in Hartree potential    :           0.00025985 Ha           0.00707096 eV
  | Sum of eigenvalues per atom                           :       -4457.73204532 eV
  | Total energy (T->0) per atom                          :       -7871.20353221 eV  <-- do not rely on this value for anything but (periodic) metals
  | Electronic free energy per atom                       :       -7871.20425244 eV

  Self-consistency convergence accuracy:
  | Change of charge density      :  0.1945E-05
  | Change of sum of eigenvalues  : -0.5990E-03 eV
  | Change of total energy        :  0.9429E-07 eV

  End self-consistency iteration #    10       :  max(cpu_time)    wall_clock(cpu1)
  | Time for this iteration                    :        0.510 s           0.510 s
  | Charge density update                      :        0.144 s           0.145 s
  | Density mixing & preconditioning           :        0.015 s           0.015 s
  | Hartree multipole update                   :        0.000 s           0.000 s
  | Hartree multipole summation                :        0.156 s           0.156 s
  | Integration                                :        0.089 s           0.089 s
  | Solution of K.-S. eqns.                    :        0.105 s           0.105 s
  | Total energy evaluation                    :        0.000 s           0.000 s

  Partial memory accounting:
  | Current value for overall tracked memory usage on task 0  :           2.644 MB
  | Peak value for overall tracked memory usage on task 0     :           3.659 MB after allocating wave
  | Largest tracked array allocation on task 0 so far         :           2.500 MB  when allocating +KS_eigenvector_complex
  Note:  These values currently only include a subset of arrays which are explicitly tracked.
  The "true" memory usage will be greater.
------------------------------------------------------------

------------------------------------------------------------
          Begin self-consistency iteration #   11

  Date     :  20190514, Time     :  123625.543
------------------------------------------------------------
  Evaluating new KS density using the density matrix
  Evaluating density matrix
  Time summed over all CPUs for getting density from density matrix: real work        0.143 s, elapsed        0.143 s
  Integration grid: deviation in total charge (<rho> - N_e) =  -3.996803E-13
  Pulay mixing of updated and previous charge densities.

  Evaluating partitioned Hartree potential by multipole expansion.
  | Analytical far-field extrapolation by fixed multipoles:
  | Hartree multipole sum: apparent total charge =   0.186373E-03
  Summing up the Hartree potential.
  Time summed over all CPUs for potential: real work        0.159 s, elapsed        0.159 s
  | RMS charge density error from multipole expansion :   0.236683E-02
  | Average real-space part of the electrostatic potential :     -0.32285199 eV

  Integrating Hamiltonian matrix: batch-based integration.
  Time summed over all CPUs for integration: real work        0.089 s, elapsed        0.089 s

  Updating Kohn-Sham eigenvalues, eigenvectors, occupation numbers, and Fermi level.
  Solving generalized eigenproblem

  Obtaining occupation numbers and chemical potential using ELSI.
  | Chemical potential (Fermi level):    -4.78122197eV
  What follows are estimated values for band gap, HOMO, LUMO, etc.
  | They are estimated on a discrete k-point grid and not necessarily exact.
  | For converged numbers, create a DOS and/or band structure plot on a denser k-grid.

  Highest occupied state (VBM) at     -4.82682363 eV (relative to internal zero)
  | Occupation number:      1.80288327
  | K-point:     244 at    0.166667    0.500000    0.833333 (in units of recip. lattice)

  Lowest unoccupied state (CBM) at    -4.77981480 eV (relative to internal zero)
  | Occupation number:      0.96825185
  | K-point:     297 at    0.250000    0.000000    0.666667 (in units of recip. lattice)

  ESTIMATED overall HOMO-LUMO gap:      0.04700884 eV between HOMO at k-point 244 and LUMO at k-point 297
  | This appears to be an indirect band gap.
  | Smallest direct gap :      0.99756603 eV for k_point 779 at    0.250000    0.000000    0.666667 (in units of recip. lattice)
  However, this system has fractional occupation numbers. Since we use a finite k-point grid,
  this material is metallic within the approximate finite broadening function (occupation_type)
  applied to determine the occupation numbers.

  Total energy components:
  | Sum of eigenvalues            :        -163.81864813 Ha       -4457.73222252 eV
  | XC energy correction          :         -19.61980153 Ha        -533.88196332 eV
  | XC potential correction       :          25.92276153 Ha         705.39423139 eV
  | Free-atom electrostatic energy:        -132.19588221 Ha       -3597.23298019 eV
  | Hartree energy correction     :           0.45018373 Ha          12.25012267 eV
  | Entropy correction            :          -0.00002647 Ha          -0.00072023 eV
  | ---------------------------
  | Total energy                  :        -289.26138661 Ha       -7871.20281197 eV
  | Total energy, T -> 0          :        -289.26141307 Ha       -7871.20353219 eV  <-- do not rely on this value for anything but (periodic) metals
  | Electronic free energy        :        -289.26143954 Ha       -7871.20425242 eV

  Derived energy quantities:
  | Kinetic energy                :         289.31809628 Ha        7872.74596065 eV
  | Electrostatic energy          :        -558.95968135 Ha      -15210.06680930 eV
  | Energy correction for multipole
  | error in Hartree potential    :           0.00025986 Ha           0.00707102 eV
  | Sum of eigenvalues per atom                           :       -4457.73222252 eV
  | Total energy (T->0) per atom                          :       -7871.20353219 eV  <-- do not rely on this value for anything but (periodic) metals
  | Electronic free energy per atom                       :       -7871.20425242 eV

  Self-consistency convergence accuracy:
  | Change of charge density      :  0.4211E-06
  | Change of sum of eigenvalues  : -0.1772E-03 eV
  | Change of total energy        :  0.1831E-07 eV

  Preliminary charge convergence reached. Turning off preconditioner.

  Writing Kohn-Sham eigenvalues.
  K-point:       1 at    0.000000    0.000000    0.000000 (in units of recip. lattice)

  State    Occupation    Eigenvalue [Ha]    Eigenvalue [eV]
      1       2.00000         -65.538029        -1783.38051
      2       2.00000          -5.125641         -139.47579
      3       2.00000          -3.540557          -96.34344
      4       2.00000          -3.540557          -96.34344
      5       2.00000          -3.540557          -96.34344
      6       2.00000          -0.466774          -12.70158
      7       0.00000          -0.071642           -1.94947
      8       0.00000          -0.071642           -1.94947
      9       0.00000          -0.071642           -1.94947
     10       0.00000           0.098928            2.69198

  What follows are estimated values for band gap, HOMO, LUMO, etc.
  | They are estimated on a discrete k-point grid and not necessarily exact.
  | For converged numbers, create a DOS and/or band structure plot on a denser k-grid.

  Highest occupied state (VBM) at     -4.82682363 eV (relative to internal zero)
  | Occupation number:      1.80288327
  | K-point:     244 at    0.166667    0.500000    0.833333 (in units of recip. lattice)

  Lowest unoccupied state (CBM) at    -4.77981480 eV (relative to internal zero)
  | Occupation number:      0.96825185
  | K-point:     297 at    0.250000    0.000000    0.666667 (in units of recip. lattice)

  ESTIMATED overall HOMO-LUMO gap:      0.04700884 eV between HOMO at k-point 244 and LUMO at k-point 297
  | This appears to be an indirect band gap.
  | Smallest direct gap :      0.99756603 eV for k_point 779 at    0.250000    0.000000    0.666667 (in units of recip. lattice)
  However, this system has fractional occupation numbers. Since we use a finite k-point grid,
  this material is metallic within the approximate finite broadening function (occupation_type)
  applied to determine the occupation numbers.

  Self-consistency cycle converged.

  End self-consistency iteration #    11       :  max(cpu_time)    wall_clock(cpu1)
  | Time for this iteration                    :        0.530 s           0.530 s
  | Charge density update                      :        0.157 s           0.157 s
  | Density mixing                             :        0.015 s           0.015 s
  | Hartree multipole update                   :        0.000 s           0.000 s
  | Hartree multipole summation                :        0.161 s           0.161 s
  | Integration                                :        0.089 s           0.089 s
  | Solution of K.-S. eqns.                    :        0.108 s           0.108 s
  | Total energy evaluation                    :        0.000 s           0.000 s

  Partial memory accounting:
  | Current value for overall tracked memory usage on task 0  :           2.644 MB
  | Peak value for overall tracked memory usage on task 0     :           3.659 MB after allocating wave
  | Largest tracked array allocation on task 0 so far         :           2.500 MB  when allocating +KS_eigenvector_complex
  Note:  These values currently only include a subset of arrays which are explicitly tracked.
  The "true" memory usage will be greater.
------------------------------------------------------------

  Energy and forces in a compact form:
  | Total energy uncorrected      :         -0.787120281196508E+04 eV
  | Total energy corrected        :         -0.787120353219309E+04 eV  <-- do not rely on this value for anything but (periodic) metals
  | Electronic free energy        :         -0.787120425242108E+04 eV

  ------------------------------------ 
  Start decomposition of the XC Energy 
  ------------------------------------ 
  X and C from original XC functional choice 
  Hartree-Fock Energy :          0.000000000 Ha              0.000000000 eV
  X Energy            :        -18.565621075 Ha           -505.196253545 eV
  C Energy            :         -1.054180458 Ha            -28.685709774 eV
  Total XC Energy     :        -19.619801533 Ha           -533.881963319 eV
  ------------------------------------ 
  LDA X and C from self-consistent density 
  X Energy LDA        :        -18.565621075 Ha           -505.196253545 eV
  C Energy LDA        :         -1.054180458 Ha            -28.685709774 eV
  ------------------------------------ 
  End decomposition of the XC Energy 
  ------------------------------------ 

------------------------------------------------------------

------------------------------------------------------------------------------
  Final output of selected total energy values:

  The following output summarizes some interesting total energy values
  at the end of a run (AFTER all relaxation, molecular dynamics, etc.).

  | Total energy of the DFT / Hartree-Fock s.c.f. calculation      :          -7871.202811965 eV
  | Final zero-broadening corrected energy (caution - metals only) :          -7871.203532193 eV
  | For reference only, the value of 1 Hartree used in FHI-aims is :             27.211384500 eV

  Before relying on these values, please be sure to understand exactly which
  total energy value is referred to by a given number. Different objects may
  all carry the same name 'total energy'. Definitions:

  Total energy of the DFT / Hartree-Fock s.c.f. calculation:
  | Note that this energy does not include ANY quantities calculated after the
  | s.c.f. cycle, in particular not ANY RPA, MP2, etc. many-body perturbation terms.

  Final zero-broadening corrected energy:
  | For metallic systems only, a broadening of the occupation numbers at the Fermi
  | level can be extrapolated back to zero broadening by an electron-gas inspired
  | formula. For all systems that are not real metals, this value can be
  | meaningless and should be avoided.

------------------------------------------------------------------------------
  Methods described in the following list of references were used in this FHI-aims run.
  If you publish the results, please make sure to cite these reference if they apply.
  FHI-aims is an academic code, and for our developers (often, Ph.D. students
  and postdocs), scientific credit in the community is essential.
  Thank you for helping us!

  For any use of FHI-aims, please cite:

    Volker Blum, Ralf Gehrke, Felix Hanke, Paula Havu, Ville Havu,
    Xinguo Ren, Karsten Reuter, and Matthias Scheffler
    'Ab initio molecular simulations with numeric atom-centered orbitals'
    Computer Physics Communications 180, 2175-2196 (2009)
    http://dx.doi.org/10.1016/j.cpc.2009.06.022


  For the real-space grid partitioning and parallelization used in this calculation, please cite:

    Ville Havu, Volker Blum, Paula Havu, and Matthias Scheffler,
    'Efficient O(N) integration for all-electron electronic structure calculation'
    'using numerically tabulated basis functions'
    Journal of Computational Physics 228, 8367-8379 (2009).
    http://dx.doi.org/10.1016/j.jcp.2009.08.008

  Of course, there are many other important community references, e.g., those cited in the
  above references. Our list is limited to references that describe implementations in the
  FHI-aims code. The reason is purely practical (length of this list) - please credit others as well.

------------------------------------------------------------
          Leaving FHI-aims.
          Date     :  20190514, Time     :  123626.077

          Computational steps:
          | Number of self-consistency cycles          :           11
          | Number of SCF (re)initializations          :            1

          Detailed time accounting                     :  max(cpu_time)    wall_clock(cpu1)
          | Total time                                 :        6.126 s           6.126 s
          | Preparation time                           :        0.099 s           0.100 s
          | Boundary condition initalization           :        0.028 s           0.028 s
          | Grid partitioning                          :        0.009 s           0.009 s
          | Preloading free-atom quantities on grid    :        0.001 s           0.001 s
          | Free-atom superposition energy             :        0.009 s           0.009 s
          | Total time for integrations                :        1.117 s           1.118 s
          | Total time for solution of K.-S. equations :        1.383 s           1.383 s
          | Total time for density update              :        1.599 s           1.603 s
          | Total time for mixing & preconditioning    :        0.165 s           0.162 s
          | Total time for Hartree multipole update    :        0.004 s           0.008 s
          | Total time for Hartree multipole sum       :        1.675 s           1.674 s
          | Total time for total energy evaluation     :        0.002 s           0.001 s
          | Total time for scaled ZORA corrections     :        0.000 s           0.000 s

 This is a stub MPI_ALLREDUCE call.
 You should not be here. Check your
 setting on the use_mpi variable, or
 link against true MPI-libraries.
