------------------------------------------------------------
          Invoking FHI-aims ...
          Version 171221_1
          Compiled on 2019/05/06 at 14:26:40 on host ffph0xx.

          When using FHI-aims, please cite the following reference:

          Volker Blum, Ralf Gehrke, Felix Hanke, Paula Havu,
          Ville Havu, Xinguo Ren, Karsten Reuter, and Matthias Scheffler,
          'Ab Initio Molecular Simulations with Numeric Atom-Centered Orbitals',
          Computer Physics Communications 180, 2175-2196 (2009)

          For any questions about FHI-aims, please visit the aimsclub website
          with its forums and wiki. Contributions to both the forums and the
          wiki are warmly encouraged - they are for you, and everyone is welcome there.

------------------------------------------------------------



  Date     :  20190514, Time     :  123545.275
  Time zero on CPU 1             :   0.721000000000000E-03  s.
  Internal wall clock time zero  :           327069345.275  s.

  FHI-aims created a unique identifier for this run for later identification
  aims_uuid : 4FBC7CB0-EB7D-4618-A365-3B767A26826D


  Performing system and environment tests:
  *** Environment variable OMP_NUM_THREADS is not set
  *** For performance reasons you might want to set it to 1
  | Stacksize not measured: no C compiler

  Obtaining array dimensions for all initial allocations:
  
  -----------------------------------------------------------------------
  Parsing control.in (first pass over file, find array dimensions only).
  The contents of control.in will be repeated verbatim below
  unless switched off by setting 'verbatim_writeout .false.' .
  in the first line of control.in .
  -----------------------------------------------------------------------
  
  #--- method ---
  xc pw-lda
  spin none
  relativistic atomic_zora scalar
  #---
  
  #--- k-grid settings ---
  k_grid 12 12 12
  #---
  
  
  
  
  
  
  
  
  
  
  
  #-------------------------------------------------------------------------------
  #--- Species defaults for Si
  #-------------------------------------------------------------------------------
  
  ################################################################################
  #
  #  FHI-aims code project
  #  VB, Fritz-Haber Institut, 2009
  #
  #  Suggested "light" defaults for Si atom (to be pasted into control.in file)
  #  Be sure to double-check any results obtained with these settings for post-processing,
  #  e.g., with the "tight" defaults and larger basis sets.
  #
  ################################################################################
    species        Si
  #     global species definitions
      nucleus             14
      mass                28.0855
  #
      l_hartree           4
  #
      cut_pot             3.5          1.5  1.0
      basis_dep_cutoff    1e-4
  #
      radial_base         42 5.0
      radial_multiplier   1
      angular_grids       specified
        division   0.5866   50
        division   0.9616  110
        division   1.2249  194
        division   1.3795  302
  #      division   1.4810  434
  #      division   1.5529  590
  #      division   1.6284  770
  #      division   1.7077  974
  #      division   2.4068 1202
  #      outer_grid   974
        outer_grid 302
  ################################################################################
  #
  #  Definition of "minimal" basis
  #
  ################################################################################
  #     valence basis states
      valence      3  s   2.
      valence      3  p   2.
  #     ion occupancy
      ion_occ      3  s   1.
      ion_occ      3  p   1.
  ################################################################################
  #
  #  Suggested additional basis functions. For production calculations,
  #  uncomment them one after another (the most important basis functions are
  #  listed first).
  #
  #  Constructed for dimers: 1.75 A, 2.0 A, 2.25 A, 2.75 A, 3.75 A
  #
  ################################################################################
  #  "First tier" - improvements: -571.96 meV to -37.03 meV
       hydro 3 d 4.2
       hydro 2 p 1.4
  #     hydro 4 f 6.2
       ionic 3 s auto
  #  "Second tier" - improvements: -16.76 meV to -3.03 meV
  #     hydro 3 d 9
  #     hydro 5 g 9.4
  #     hydro 4 p 4
  #     hydro 1 s 0.65
  #  "Third tier" - improvements: -3.89 meV to -0.60 meV
  #     ionic 3 d auto
  #     hydro 3 s 2.6
  #     hydro 4 f 8.4
  #     hydro 3 d 3.4
  #     hydro 3 p 7.8
  #  "Fourth tier" - improvements: -0.33 meV to -0.11 meV
  #     hydro 2 p 1.6
  #     hydro 5 g 10.8
  #     hydro 5 f 11.2
  #     hydro 3 d 1
  #     hydro 4 s 4.5
  #  Further basis functions that fell out of the optimization - noise
  #  level... < -0.08 meV
  #     hydro 4 d 6.6
  #     hydro 5 g 16.4
  #     hydro 4 d 9
  
  -----------------------------------------------------------------------
  Completed first pass over input file control.in .
  -----------------------------------------------------------------------
  
  
  -----------------------------------------------------------------------
  Parsing geometry.in (first pass over file, find array dimensions only).
  The contents of geometry.in will be repeated verbatim below
  unless switched off by setting 'verbatim_writeout .false.' .
  in the first line of geometry.in .
  -----------------------------------------------------------------------
  
  lattice_vector  -2.200000   2.200000   2.200000
  lattice_vector   2.200000  -2.200000   2.200000
  lattice_vector   2.200000   2.200000  -2.200000
  atom_frac   0.000000   0.000000   0.000000 Si
  
  -----------------------------------------------------------------------
  Completed first pass over input file geometry.in .
  -----------------------------------------------------------------------
  

  Basic array size parameters:
  | Number of species                 :        1
  | Number of atoms                   :        1
  | Number of lattice vectors         :        3
  | Max. basis fn. angular momentum   :        2
  | Max. atomic/ionic basis occupied n:        3
  | Max. number of basis fn. types    :        3
  | Max. radial fns per species/type  :        5
  | Max. logarithmic grid size        :     1346
  | Max. radial integration grid size :       42
  | Max. angular integration grid size:      302
  | Max. angular grid division number :        8
  | Radial grid for Hartree potential :     1346
  | Number of spin channels           :        1

------------------------------------------------------------
          Reading file control.in.
------------------------------------------------------------
  XC: Using Perdew-Wang parametrisation of Ceperley-Alder LDA.
  Spin treatment: No spin polarisation.
  Scalar relativistic treatment of kinetic energy: on-site free-atom approximation to ZORA.
  Found k-point grid:        12        12        12

  Reading configuration options for species Si                  .
  | Found nuclear charge :  14.0000
  | Found atomic mass :    28.085500000000000      amu
  | Found l_max for Hartree potential  :   4
  | Found cutoff potl. onset [A], width [A], scale factor :    3.50000    1.50000    1.00000
  | Threshold for basis-dependent cutoff potential is   0.100000E-03
  | Found data for basic radial integration grid :    42 points, outermost radius =    5.000 A
  | Found multiplier for basic radial grid :   1
  | Found angular grid specification: user-specified.
  | Specified grid contains     5 separate shells.
  | Check grid settings after all constraints further below.
  | Found free-atom valence shell :  3 s   2.000
  | Found free-atom valence shell :  3 p   2.000
  | Found free-ion valence shell :  3 s   1.000
  | Found free-ion valence shell :  3 p   1.000
  | Found hydrogenic basis function :  3 d   4.200
  | Found hydrogenic basis function :  2 p   1.400
  | Found ionic basis function :  3 s , default cutoff radius.
  Species Si                  : Missing cutoff potential type.
  Defaulting to exp(1/x)/(1-x)^2 type cutoff potential.
  Species Si: No 'logarithmic' tag. Using default grid for free atom:
  | Default logarithmic grid data [bohr] : 0.1000E-03 0.1000E+03 0.1012E+01
  | Will include ionic basis functions of  2.0-fold positive Si                   ion.
  Species Si: On-site basis accuracy parameter (for Gram-Schmidt orthonormalisation) not specified.
  Using default value basis_acc =  0.1000000E-03.
  Species Si                  : Using default innermost maximum threshold i_radial=  2 for radial functions.
  Species Si                  : Default cutoff onset for free atom density etc. : 0.35000000E+01 AA.
  Species Si                  : Basic radial grid will be enhanced according to radial_multiplier =   1, to contain    42 grid points.

  Finished reading input file 'control.in'. Consistency checks are next.

  MPI_IN_PLACE appears to work with this MPI implementation.
  | Keeping use_mpi_in_place .true. (see manual).
  Target number of points in a grid batch is not set. Defaulting to  100
  Method for grid partitioning is not set. Defaulting to 'maxmin' partitioning.
  Batch size limit is not set. Defaulting to    200
  By default, will store active basis functions for each batch.
  If in need of memory, prune_basis_once .false. can be used to disable this option.
  communication_type for Hartree potential was not specified.
  Defaulting to calc_hartree .
 * Attention: 
 * You may want to set distributed_spline_storage to .true. in order to save memory.
 * This doesn't harm performance and is perfectly ok unless:
 * - you get error messages in postprocessing (about missing atoms in get_rho_multipole_spl)
 * - you need full spline storage in hirshfeld_analysis
  Defaulting to Pulay charge density mixer.
  Pulay mixer: Number of relevant iterations not set.
  Defaulting to    8 iterations.
  Pulay mixer: Number of initial linear mixing iterations not set.
  Defaulting to    0 iterations.
  Work space size for distributed Hartree potential not set.
  Defaulting to   0.200000E+03 MB.
  Mixing parameter for charge density mixing has not been set.
  Using default: charge_mix_param =     0.0500.
  The mixing parameter will be adjusted in iteration number     2 of the first full s.c.f. cycle only.
  Algorithm-dependent basis array size parameters:
  | n_max_pulay                         :        8
 * Notice: The s.c.f. convergence criterion sc_accuracy_rho was not provided.
 * We used to stop in this case, and ask the user to provide reasonable
 * scf convergence criteria. However, this led some users to employ criteria
 * that led to extremely long run times, e.g., for simple relaxation.
 * We now preset a default value for sc_accuracy_rho if it is not set.
 * You may still wish to check if this setting is too tight or too loose for your needs.
 * Based on n_atoms, FHI-aims chose sc_accuracy_rho =  0.100000E-05 .
  Maximum number of self-consistency iterations not provided.
  Presetting  1000 iterations.
  Presetting      1001 iterations before the initial mixing cycle
  is restarted anyway using the sc_init_iter criterion / keyword.
  Presetting a factor      1.000 between actual scf density residual
  and density convergence criterion sc_accuracy_rho below which sc_init_iter
  takes no effect.
 * No s.c.f. convergence criteria (sc_accuracy_*) were provided in control.in.
 * The run will proceed with a reasonable default guess, but please check whether.
 * the s.c.f. cycles seem to take too much or too little time.
  Calculation of forces was not defined in control.in. No forces will be calculated.
  Geometry relaxation not requested: no relaxation will be performed.
  No accuracy limit for integral partition fn. given. Defaulting to  0.1000E-14.
  No threshold value for u(r) in integrations given. Defaulting to  0.1000E-05.
  No occupation type (smearing scheme) given. Defaulting to Gaussian broadening, width =  0.1000E-01 eV.
  The width will be adjusted in iteration number     2 of the first full s.c.f. cycle only.
  S.C.F. convergence parameters will be adjusted in iteration number     2 of the first full s.c.f. cycle only.
  No accuracy for occupation numbers given. Defaulting to  0.1000E-12.
  No threshold value for occupation numbers given. Defaulting to  0.0000E+00.
  No accuracy for fermi level given. Defaulting to  0.1000E-19.
  Maximum # of iterations to find E_F not set. Defaulting to  200.
  Preferred method for the eigenvalue solver ('KS_method') not specified in 'control.in'.
  Defaulting to serial version, 'lapack_fast'.
  Will not use alltoall communication since running on < 1024 CPUs.
  Threshold for basis singularities not set.
  Default threshold for basis singularities:  0.1000E-04
  partition_type (choice of integration weights) for integrals was not specified.
  | Using a version of the partition function of Stratmann and coworkers ('stratmann_smoother').
  | At each grid point, the set of atoms used to build the partition table is smoothly restricted to
  | only those atoms whose free-atom density would be non-zero at that grid point.
  Partitioning for Hartree potential was not defined. Using partition_type for integrals.
  | Adjusted default value of keyword multip_moments_threshold to:       0.10000000E-11
  | This value may affect high angular momentum components of the Hartree potential in periodic systems.
  Angular momentum expansion for Kerker preconditioner not set explicitly.
  | Using default value of   0
  No explicit requirement for turning off preconditioner.
  | By default, it will be turned off when the charge convergence reaches
  | sc_accuracy_rho  =   0.100000E-05
  No special mixing parameter while Kerker preconditioner is on.
  Using default: charge_mix_param =     0.0500.
  No q(lm)/r^(l+1) cutoff set for long-range Hartree potential.
  | Using default value of  0.100000E-09 .
  | Verify using the multipole_threshold keyword.
  Defaulting to new monopole extrapolation.
  Density update method: automatic selection selected.
  Using density matrix based charge density update.
  Using density matrix based charge density update.
  Using packed matrix style: index .
  Defaulting to use time-reversal symmetry for k-point grid.
------------------------------------------------------------


------------------------------------------------------------
          Reading geometry description geometry.in.
------------------------------------------------------------
  Input structure read successfully.
  The structure contains        1 atoms,  and a total of         14.000 electrons.

  Input geometry:
  | Unit cell:
  |       -2.20000000        2.20000000        2.20000000
  |        2.20000000       -2.20000000        2.20000000
  |        2.20000000        2.20000000       -2.20000000
  | Atomic structure:
  |       Atom                x [A]            y [A]            z [A]
  |    1: Species Si            0.00000000        0.00000000        0.00000000

  Lattice parameters for 3D lattice (in Angstroms) :     3.810512    3.810512    3.810512
  Angle(s) between unit vectors (in degrees)      :   109.471221  109.471221  109.471221

  |

  | The smallest distance between any two atoms is         3.81051178 AA.
  |
  | The first atom of this pair is atom number                      1 .
  | The second atom of this pair is atom number                     1 .
  | Wigner-Seitz cell of the first atom image           0     0     1 .
  | (The Wigner-Seitz cell of the second atom is 0 0 0  by definition.)

  Quantities derived from the lattice vectors:
  | Reciprocal lattice vector 1:  0.000000  1.427997  1.427997
  | Reciprocal lattice vector 2:  1.427997  0.000000  1.427997
  | Reciprocal lattice vector 3:  1.427997  1.427997  0.000000
  | Unit cell volume                               :   0.425920E+02  A^3

  Range separation radius for Ewald summation (hartree_convergence_parameter):      5.00000000 bohr.

  Fractional coordinates:
                         L1                L2                L3
       atom_frac         0.00000000        0.00000000        0.00000000  Si

  Number of empty states per atom not set in control.in - providing a guess from actual geometry.
  | Total number of empty states used during s.c.f. cycle:        3
  If you use a very high smearing, use empty_states (per atom!) in control.in to increase this value.

  Structure-dependent array size parameters: 
  | Maximum number of distinct radial functions  :        8
  | Maximum number of basis functions            :       18
  | Number of Kohn-Sham states (occupied + empty):       10
------------------------------------------------------------

------------------------------------------------------------
          Preparing all fixed parts of the calculation.
------------------------------------------------------------
  Determining machine precision:
     2.2250738585072014E-308
  Setting up grids for atomic and cluster calculations.

  Creating wave function, potential, and density for free atoms.

  Species: Si

  List of occupied orbitals and eigenvalues:
    n    l              occ      energy [Ha]    energy [eV]
    1    0           2.0000       -65.491668     -1782.1190
    2    0           2.0000        -5.087967      -138.4506
    3    0           2.0000        -0.391471       -10.6525
    2    1           6.0000        -3.502246       -95.3010
    3    1           2.0000        -0.143943        -3.9169

  Creating fixed part of basis set: Ionic, confined, hydrogenic.

  Si                   ion:

  List of free ionic orbitals and eigenvalues:
    n    l      energy [Ha]    energy [eV]
    1    0       -66.364436     -1805.8682
    2    0        -5.935799      -161.5213
    3    0        -1.078166       -29.3384
    2    1        -4.351123      -118.4001
    3    1        -0.781733       -21.2720


  List of ionic basis orbitals and eigenvalues:
    n    l      energy [Ha]    energy [eV]    outer radius [A]
    3    0        -1.078146       -29.3378       4.214062


  Si                   hydrogenic:

  List of hydrogenic basis orbitals: 
    n    l      effective z      eigenvalue [eV]  inner max. [A]     outer max. [A]     outer radius [A]   
    3    2         4.200000       -26.6624           1.139231           1.139231           4.534782
    2    1         1.400000        -6.4613           1.472672           1.472672           4.590560


  Adding cutoff potential to free-atom effective potential.
  Creating atomic-like basis functions for current effective potential.

  Species Si                  :

  List of atomic basis orbitals and eigenvalues:
    n    l      energy [Ha]    energy [eV]    outer radius [A]
    1    0       -65.491668     -1782.1190       0.789468
    2    0        -5.087967      -138.4506       2.815114
    3    0        -0.391471       -10.6525       4.534782
    2    1        -3.502246       -95.3010       3.259919
    3    1        -0.143943        -3.9169       4.590560

  Assembling full basis from fixed parts.
  | Species Si :   atomic orbital   1 s accepted.
  | Species Si :   atomic orbital   2 s accepted.
  | Species Si :    ionic orbital   3 s accepted.
  | Species Si :   atomic orbital   3 s accepted.
  | Species Si :   atomic orbital   2 p accepted.
  | Species Si :   atomic orbital   3 p accepted.
  | Species Si :    hydro orbital   2 p accepted.
  | Species Si :    hydro orbital   3 d accepted.

  Basis size parameters after reduction:
  | Total number of radial functions:        8
  | Total number of basis functions :       18

  Per-task memory consumption for arrays in subroutine allocate_ext:
  |           2.757468MB.
  Testing on-site integration grid accuracy.
  |  Species  Function  <phi|h_atom|phi> (log., in eV)  <phi|h_atom|phi> (rad., in eV)
           1        1              -1782.1189727076              -1782.1182429251
           1        2               -138.4506350693               -138.4506310079
           1        3                -10.3030408815                -10.3029120678
           1        4                  5.0238999146                  4.9457540310 ***
           1        5                -95.3009689499                -95.3009689315
           1        6                 -3.9266496564                 -3.9420918374
           1        7                  6.3453628447                  6.1632372158 ***
           1        8                  6.2883050744                  6.2861881409
 * Note: Onsite integrals marked "***" above are less accurate than
 * onsite_accuracy_threshold =    0.03000 eV. Usually, this is harmless.
 * When in doubt, tighten the "radial" and/or "radial_multiplier" flags to check.

  Preparing densities etc. for the partition functions (integrals / Hartree potential).

  Preparations completed.
  max(cpu_time)          :      0.100 s.
  Wall clock time (cpu1) :      0.100 s.
------------------------------------------------------------

------------------------------------------------------------
          Begin self-consistency loop: Initialization.

          Date     :  20190514, Time     :  123545.377
------------------------------------------------------------

  Initializing index lists of integration centers etc. from given atomic structure:
  Mapping all atomic coordinates to central unit cell.

  Initializing the k-points
          Using symmetry for reducing the k-points
  | k-points reduced from:     1728 to      868
  | Number of k-points                             :       868
  The eigenvectors in the calculations are COMPLEX.
  | K-points in task   0:       868
  | Number of basis functions in the Hamiltonian integrals :       724
  | Number of basis functions in a single unit cell        :        18
  | Number of centers in hartree potential         :       531
  | Number of centers in hartree multipole         :       137
  | Number of centers in electron density summation:        65
  | Number of centers in basis integrals           :        89
  | Number of centers in integrals                 :        51
  | Number of centers in hamiltonian               :        65
  | Consuming        895 KiB for k_phase.
  | Number of super-cells (origin) [n_cells]                     :        2197
  | Number of super-cells (after PM_index) [n_cells]             :          66
  | Number of super-cells in hamiltonian [n_cells_in_hamiltonian]:          66
  | Size of matrix packed + index [n_hamiltonian_matrix_size] :        9478
  Partitioning the integration grid into batches with maxmin method.
  | Maximal weight for a single point:     1.000
  | Minimal weight for a single point:     0.485
  | Number of batches:       64
  | Maximal batch size:      91
  | Minimal batch size:      84
  | Average batch size:      87.562
  | Standard deviation of batch sizes:       1.694
  Initializing partition tables, free-atom densities, potentials, etc. across the integration grid (initialize_grid_storage).
  | initialize_grid_storage: Actual outermost partition radius vs. multipole_radius_free
  | (-- VB: in principle, multipole_radius_free should be larger, hence this output)
  | Species        1: Confinement radius =              4.999999999999999 AA, multipole_radius_free =              5.000694715736543 AA.
  | Species        1: outer_partition_radius set to              5.000694715736543 AA .
  | Original list of interatomic distances with          89 x         89 entries is created.
  | Net number of integration points:     5604
  | of which are non-zero points    :     5232
  | Numerical average free-atom electrostatic potential    :     -6.17646424 eV
  Renormalizing the initial density to the exact electron count on the 3D integration grid.
  | Initial density: Formal number of electrons (from input files) :      14.0000000000
  | Integrated number of electrons on 3D grid     :      14.0000485239
  | Charge integration error                      :       0.0000485239
  | Normalization factor for density and gradient :       0.9999965340
  Obtaining max. number of non-zero basis functions in each batch (get_n_compute_maxes).
  | Maximal number of non-zero basis functions:      246 in task     0
  Allocating        2.500 MB for KS_eigenvector_complex
  Integrating Hamiltonian matrix: batch-based integration.
  Time summed over all CPUs for integration: real work        0.093 s, elapsed        0.093 s
  Integrating overlap matrix.
  Time summed over all CPUs for integration: real work        0.065 s, elapsed        0.065 s
  Decreasing sparse matrix size:
   Tolerance:   9.9999998245167004E-014
   Hamiltonian matrix
  | Array has     7155 nonzero elements out of     9478 elements
  | Sparsity factor is 0.245
   Overlap matrix
  | Array has     7067 nonzero elements out of     9478 elements
  | Sparsity factor is 0.254
  New size of hamiltonian matrix:        7294

  Updating Kohn-Sham eigenvalues, eigenvectors, occupation numbers, and Fermi level.
  Solving generalized eigenproblem
  Transforming overlap matrix and checking for singularities.
  Overlap matrix is nonsingular at first k-point:
  | Lowest eigenvalue:  0.166317E-01

  Obtaining occupation numbers and chemical potential using ELSI.
  | Chemical potential (Fermi level):    -4.62177689eV
  Writing Kohn-Sham eigenvalues.
  K-point:       1 at    0.000000    0.000000    0.000000 (in units of recip. lattice)

  State    Occupation    Eigenvalue [Ha]    Eigenvalue [eV]
      1       2.00000         -65.491674        -1782.11913
      2       2.00000          -5.088029         -138.45231
      3       2.00000          -3.502308          -95.30266
      4       2.00000          -3.502308          -95.30266
      5       2.00000          -3.502308          -95.30266
      6       2.00000          -0.460701          -12.53630
      7       0.00000          -0.055608           -1.51317
      8       0.00000          -0.055608           -1.51317
      9       0.00000          -0.055608           -1.51317
     10       0.00000           0.116099            3.15921

  What follows are estimated values for band gap, HOMO, LUMO, etc.
  | They are estimated on a discrete k-point grid and not necessarily exact.
  | For converged numbers, create a DOS and/or band structure plot on a denser k-grid.

  Highest occupied state (VBM) at     -4.62952955 eV (relative to internal zero)
  | Occupation number:      1.72709258
  | K-point:     204 at    0.166667    0.166667    0.333333 (in units of recip. lattice)

  Lowest unoccupied state (CBM) at    -4.61764032 eV (relative to internal zero)
  | Occupation number:      0.55854840
  | K-point:     554 at    0.416667    0.416667    0.250000 (in units of recip. lattice)

  ESTIMATED overall HOMO-LUMO gap:      0.01188923 eV between HOMO at k-point 204 and LUMO at k-point 554
  | This appears to be an indirect band gap.
  | Smallest direct gap :      0.07103529 eV for k_point 565 at    0.416667    0.416667    0.250000 (in units of recip. lattice)
  However, this system has fractional occupation numbers. Since we use a finite k-point grid,
  this material is metallic within the approximate finite broadening function (occupation_type)
  applied to determine the occupation numbers.
  Calculating total energy contributions from superposition of free atom densities.

  Total energy components:
  | Sum of eigenvalues            :        -163.38681961 Ha       -4445.98157065 eV
  | XC energy correction          :         -19.65937765 Ha        -534.95888421 eV
  | XC potential correction       :          25.97485184 Ha         706.81168080 eV
  | Free-atom electrostatic energy:        -132.19377077 Ha       -3597.17552501 eV
  | Hartree energy correction     :          -0.00000000 Ha          -0.00000000 eV
  | Entropy correction            :          -0.00000401 Ha          -0.00010909 eV
  | ---------------------------
  | Total energy                  :        -289.26511619 Ha       -7871.30429907 eV
  | Total energy, T -> 0          :        -289.26512020 Ha       -7871.30440816 eV  <-- do not rely on this value for anything but (periodic) metals
  | Electronic free energy        :        -289.26512421 Ha       -7871.30451724 eV

  Derived energy quantities:
  | Kinetic energy                :         289.54895090 Ha        7879.02783450 eV
  | Electrostatic energy          :        -559.15468944 Ha      -15215.37324936 eV
  | Energy correction for multipole
  | error in Hartree potential    :           0.00000000 Ha           0.00000000 eV
  | Sum of eigenvalues per atom                           :       -4445.98157065 eV
  | Total energy (T->0) per atom                          :       -7871.30440816 eV  <-- do not rely on this value for anything but (periodic) metals
  | Electronic free energy per atom                       :       -7871.30451724 eV
  Initialize hartree_potential_storage
  Max. number of atoms included in rho_multipole:            1

  End scf initialization - timings             :  max(cpu_time)    wall_clock(cpu1)
  | Time for scf. initialization               :        0.473 s           0.472 s
  | Boundary condition initialization          :        0.035 s           0.035 s
  | Integration                                :        0.158 s           0.158 s
  | Solution of K.-S. eqns.                    :        0.232 s           0.232 s
  | Grid partitioning                          :        0.011 s           0.010 s
  | Preloading free-atom quantities on grid    :        0.001 s           0.001 s
  | Free-atom superposition energy             :        0.008 s           0.008 s
  | Total energy evaluation                    :        0.000 s           0.000 s

  Partial memory accounting:
  | Current value for overall tracked memory usage on task 0  :           2.646 MB
  | Peak value for overall tracked memory usage on task 0     :           3.711 MB after allocating wave
  | Largest tracked array allocation on task 0 so far         :           2.500 MB  when allocating +KS_eigenvector_complex
  Note:  These values currently only include a subset of arrays which are explicitly tracked.
  The "true" memory usage will be greater.
------------------------------------------------------------

------------------------------------------------------------
          Begin self-consistency iteration #    1

  Date     :  20190514, Time     :  123545.850
------------------------------------------------------------
  Evaluating new KS density using the density matrix
  Evaluating density matrix
  Time summed over all CPUs for getting density from density matrix: real work        0.141 s, elapsed        0.141 s
  Integration grid: deviation in total charge (<rho> - N_e) =  -3.534950E-13
  Pulay mixing of updated and previous charge densities.

  Evaluating partitioned Hartree potential by multipole expansion.
  | Analytical far-field extrapolation by fixed multipoles:
  | Hartree multipole sum: apparent total charge =  -0.822165E-04
  Summing up the Hartree potential.
  | Estimated reciprocal-space cutoff momentum G_max:         1.84432723 bohr^-1 .
  | Reciprocal lattice points for long-range Hartree potential:      18
  Time summed over all CPUs for potential: real work        0.126 s, elapsed        0.126 s
  | RMS charge density error from multipole expansion :   0.546235E-04
  | Average real-space part of the electrostatic potential :     -0.01249475 eV

  Integrating Hamiltonian matrix: batch-based integration.
  Time summed over all CPUs for integration: real work        0.093 s, elapsed        0.093 s

  Updating Kohn-Sham eigenvalues, eigenvectors, occupation numbers, and Fermi level.
  Solving generalized eigenproblem

  Obtaining occupation numbers and chemical potential using ELSI.
  | Chemical potential (Fermi level):    -4.63128426eV
  Writing Kohn-Sham eigenvalues.
  K-point:       1 at    0.000000    0.000000    0.000000 (in units of recip. lattice)

  State    Occupation    Eigenvalue [Ha]    Eigenvalue [eV]
      1       2.00000         -65.494235        -1782.18882
      2       2.00000          -5.089832         -138.50138
      3       2.00000          -3.504166          -95.35320
      4       2.00000          -3.504166          -95.35320
      5       2.00000          -3.504166          -95.35320
      6       2.00000          -0.461128          -12.54792
      7       0.00000          -0.056135           -1.52751
      8       0.00000          -0.056135           -1.52751
      9       0.00000          -0.056135           -1.52751
     10       0.00000           0.115610            3.14590

  What follows are estimated values for band gap, HOMO, LUMO, etc.
  | They are estimated on a discrete k-point grid and not necessarily exact.
  | For converged numbers, create a DOS and/or band structure plot on a denser k-grid.

  Highest occupied state (VBM) at     -4.63860355 eV (relative to internal zero)
  | Occupation number:      1.69937942
  | K-point:     418 at    0.333333    0.166667    0.166667 (in units of recip. lattice)

  Lowest unoccupied state (CBM) at    -4.62696432 eV (relative to internal zero)
  | Occupation number:      0.54124483
  | K-point:     765 at    0.750000    0.083333    0.583333 (in units of recip. lattice)

  ESTIMATED overall HOMO-LUMO gap:      0.01163923 eV between HOMO at k-point 418 and LUMO at k-point 765
  | This appears to be an indirect band gap.
  | Smallest direct gap :      0.07090191 eV for k_point 565 at    0.750000    0.083333    0.583333 (in units of recip. lattice)
  However, this system has fractional occupation numbers. Since we use a finite k-point grid,
  this material is metallic within the approximate finite broadening function (occupation_type)
  applied to determine the occupation numbers.

  Total energy components:
  | Sum of eigenvalues            :        -163.40837746 Ha       -4446.56818972 eV
  | XC energy correction          :         -19.65753443 Ha        -534.90872763 eV
  | XC potential correction       :          25.97242014 Ha         706.74551090 eV
  | Free-atom electrostatic energy:        -132.19377077 Ha       -3597.17552501 eV
  | Hartree energy correction     :           0.02226190 Ha           0.60577717 eV
  | Entropy correction            :          -0.00000404 Ha          -0.00010988 eV
  | ---------------------------
  | Total energy                  :        -289.26500062 Ha       -7871.30115430 eV
  | Total energy, T -> 0          :        -289.26500466 Ha       -7871.30126417 eV  <-- do not rely on this value for anything but (periodic) metals
  | Electronic free energy        :        -289.26500870 Ha       -7871.30137405 eV

  Derived energy quantities:
  | Kinetic energy                :         289.53181330 Ha        7878.56149668 eV
  | Electrostatic energy          :        -559.13927949 Ha      -15214.95392335 eV
  | Energy correction for multipole
  | error in Hartree potential    :           0.00000604 Ha           0.00016439 eV
  | Sum of eigenvalues per atom                           :       -4446.56818972 eV
  | Total energy (T->0) per atom                          :       -7871.30126417 eV  <-- do not rely on this value for anything but (periodic) metals
  | Electronic free energy per atom                       :       -7871.30137405 eV

  Self-consistency convergence accuracy:
  | Change of charge density      :  0.3027E-01
  | Change of sum of eigenvalues  : -0.5866E+00 eV
  | Change of total energy        :  0.3145E-02 eV

  End self-consistency iteration #     1       :  max(cpu_time)    wall_clock(cpu1)
  | Time for this iteration                    :        0.503 s           0.502 s
  | Charge density update                      :        0.152 s           0.152 s
  | Density mixing & preconditioning           :        0.018 s           0.018 s
  | Hartree multipole update                   :        0.001 s           0.001 s
  | Hartree multipole summation                :        0.128 s           0.128 s
  | Integration                                :        0.093 s           0.093 s
  | Solution of K.-S. eqns.                    :        0.110 s           0.110 s
  | Total energy evaluation                    :        0.000 s           0.000 s

  Partial memory accounting:
  | Current value for overall tracked memory usage on task 0  :           2.646 MB
  | Peak value for overall tracked memory usage on task 0     :           3.711 MB after allocating wave
  | Largest tracked array allocation on task 0 so far         :           2.500 MB  when allocating +KS_eigenvector_complex
  Note:  These values currently only include a subset of arrays which are explicitly tracked.
  The "true" memory usage will be greater.
------------------------------------------------------------

------------------------------------------------------------
          Begin self-consistency iteration #    2

  Date     :  20190514, Time     :  123546.352
------------------------------------------------------------
  Evaluating new KS density using the density matrix
  Evaluating density matrix
  Time summed over all CPUs for getting density from density matrix: real work        0.140 s, elapsed        0.140 s
  Integration grid: deviation in total charge (<rho> - N_e) =  -3.534950E-13
  Pulay mixing of updated and previous charge densities.

  Evaluating partitioned Hartree potential by multipole expansion.
  | Analytical far-field extrapolation by fixed multipoles:
  | Hartree multipole sum: apparent total charge =  -0.248732E-02
  Summing up the Hartree potential.
  Time summed over all CPUs for potential: real work        0.161 s, elapsed        0.161 s
  | RMS charge density error from multipole expansion :   0.105648E-02
  | Average real-space part of the electrostatic potential :     -0.23465197 eV

  Integrating Hamiltonian matrix: batch-based integration.
  Time summed over all CPUs for integration: real work        0.093 s, elapsed        0.093 s

  Updating Kohn-Sham eigenvalues, eigenvectors, occupation numbers, and Fermi level.
  Solving generalized eigenproblem

  Obtaining occupation numbers and chemical potential using ELSI.
  | Chemical potential (Fermi level):    -4.80291732eV
  What follows are estimated values for band gap, HOMO, LUMO, etc.
  | They are estimated on a discrete k-point grid and not necessarily exact.
  | For converged numbers, create a DOS and/or band structure plot on a denser k-grid.

  Highest occupied state (VBM) at     -4.82600976 eV (relative to internal zero)
  | Occupation number:      1.99890831
  | K-point:     574 at    0.416667    0.583333    0.500000 (in units of recip. lattice)

  Lowest unoccupied state (CBM) at    -4.80086849 eV (relative to internal zero)
  | Occupation number:      0.77200883
  | K-point:     418 at    0.333333    0.166667    0.166667 (in units of recip. lattice)

  ESTIMATED overall HOMO-LUMO gap:      0.02514127 eV between HOMO at k-point 574 and LUMO at k-point 418
  | This appears to be an indirect band gap.
  | Smallest direct gap :      0.06862559 eV for k_point 662 at    0.333333    0.166667    0.166667 (in units of recip. lattice)
  However, this system has fractional occupation numbers. Since we use a finite k-point grid,
  this material is metallic within the approximate finite broadening function (occupation_type)
  applied to determine the occupation numbers.

  Checking to see if s.c.f. parameters should be adjusted.
  Adjusted the Pulay mixing parameter (charge_mix_param) for an expected low-gap system. New value:   0.020000 .
  Adjusted the occupation broadening width for an expected low-gap system. New value:      0.05000000 eV.

  Total energy components:
  | Sum of eigenvalues            :        -163.78745761 Ha       -4456.88348522 eV
  | XC energy correction          :         -19.62482418 Ha        -534.01863655 eV
  | XC potential correction       :          25.92926478 Ha         705.57119362 eV
  | Free-atom electrostatic energy:        -132.19377077 Ha       -3597.17552501 eV
  | Hartree energy correction     :           0.41298529 Ha          11.23790143 eV
  | Entropy correction            :          -0.00003848 Ha          -0.00104699 eV
  | ---------------------------
  | Total energy                  :        -289.26380250 Ha       -7871.26855173 eV
  | Total energy, T -> 0          :        -289.26384097 Ha       -7871.26959872 eV  <-- do not rely on this value for anything but (periodic) metals
  | Electronic free energy        :        -289.26387945 Ha       -7871.27064571 eV

  Derived energy quantities:
  | Kinetic energy                :         289.25070126 Ha        7870.91204887 eV
  | Electrostatic energy          :        -558.88967958 Ha      -15208.16196405 eV
  | Energy correction for multipole
  | error in Hartree potential    :           0.00012970 Ha           0.00352927 eV
  | Sum of eigenvalues per atom                           :       -4456.88348522 eV
  | Total energy (T->0) per atom                          :       -7871.26959872 eV  <-- do not rely on this value for anything but (periodic) metals
  | Electronic free energy per atom                       :       -7871.27064571 eV

  Self-consistency convergence accuracy:
  | Change of charge density      :  0.2879E-01
  | Change of sum of eigenvalues  : -0.1032E+02 eV
  | Change of total energy        :  0.3260E-01 eV

  End self-consistency iteration #     2       :  max(cpu_time)    wall_clock(cpu1)
  | Time for this iteration                    :        0.538 s           0.538 s
  | Charge density update                      :        0.151 s           0.152 s
  | Density mixing & preconditioning           :        0.018 s           0.018 s
  | Hartree multipole update                   :        0.000 s           0.001 s
  | Hartree multipole summation                :        0.162 s           0.162 s
  | Integration                                :        0.093 s           0.093 s
  | Solution of K.-S. eqns.                    :        0.112 s           0.112 s
  | Total energy evaluation                    :        0.000 s           0.000 s

  Partial memory accounting:
  | Current value for overall tracked memory usage on task 0  :           2.647 MB
  | Peak value for overall tracked memory usage on task 0     :           3.711 MB after allocating wave
  | Largest tracked array allocation on task 0 so far         :           2.500 MB  when allocating +KS_eigenvector_complex
  Note:  These values currently only include a subset of arrays which are explicitly tracked.
  The "true" memory usage will be greater.
------------------------------------------------------------

------------------------------------------------------------
          Begin self-consistency iteration #    3

  Date     :  20190514, Time     :  123546.890
------------------------------------------------------------
  Evaluating new KS density using the density matrix
  Evaluating density matrix
  Time summed over all CPUs for getting density from density matrix: real work        0.141 s, elapsed        0.141 s
  Integration grid: deviation in total charge (<rho> - N_e) =  -3.996803E-13
  Pulay mixing of updated and previous charge densities.

  Evaluating partitioned Hartree potential by multipole expansion.
  | Analytical far-field extrapolation by fixed multipoles:
  | Hartree multipole sum: apparent total charge =  -0.323083E-02
  Summing up the Hartree potential.
  Time summed over all CPUs for potential: real work        0.165 s, elapsed        0.165 s
  | RMS charge density error from multipole expansion :   0.133676E-02
  | Average real-space part of the electrostatic potential :     -0.28475250 eV

  Integrating Hamiltonian matrix: batch-based integration.
  Time summed over all CPUs for integration: real work        0.093 s, elapsed        0.093 s

  Updating Kohn-Sham eigenvalues, eigenvectors, occupation numbers, and Fermi level.
  Solving generalized eigenproblem

  Obtaining occupation numbers and chemical potential using ELSI.
  | Chemical potential (Fermi level):    -4.84964789eV
  What follows are estimated values for band gap, HOMO, LUMO, etc.
  | They are estimated on a discrete k-point grid and not necessarily exact.
  | For converged numbers, create a DOS and/or band structure plot on a denser k-grid.

  Highest occupied state (VBM) at     -4.86048350 eV (relative to internal zero)
  | Occupation number:      1.24075876
  | K-point:     672 at    0.500000    0.500000    0.583333 (in units of recip. lattice)

  Lowest unoccupied state (CBM) at    -4.83471840 eV (relative to internal zero)
  | Occupation number:      0.67282809
  | K-point:     189 at    0.166667    0.000000    0.666667 (in units of recip. lattice)

  ESTIMATED overall HOMO-LUMO gap:      0.02576510 eV between HOMO at k-point 672 and LUMO at k-point 189
  | This appears to be an indirect band gap.
  | Smallest direct gap :      0.06823463 eV for k_point 672 at    0.166667    0.000000    0.666667 (in units of recip. lattice)
  However, this system has fractional occupation numbers. Since we use a finite k-point grid,
  this material is metallic within the approximate finite broadening function (occupation_type)
  applied to determine the occupation numbers.

  Total energy components:
  | Sum of eigenvalues            :        -163.82674814 Ha       -4457.95263503 eV
  | XC energy correction          :         -19.62306839 Ha        -533.97085890 eV
  | XC potential correction       :          25.92699121 Ha         705.50932677 eV
  | Free-atom electrostatic energy:        -132.19377077 Ha       -3597.17552501 eV
  | Hartree energy correction     :           0.45284812 Ha          12.32262420 eV
  | Entropy correction            :          -0.00003516 Ha          -0.00095663 eV
  | ---------------------------
  | Total energy                  :        -289.26374797 Ha       -7871.26706797 eV
  | Total energy, T -> 0          :        -289.26378313 Ha       -7871.26802460 eV  <-- do not rely on this value for anything but (periodic) metals
  | Electronic free energy        :        -289.26381828 Ha       -7871.26898123 eV

  Derived energy quantities:
  | Kinetic energy                :         289.28473534 Ha        7871.83816330 eV
  | Electrostatic energy          :        -558.92541493 Ha      -15209.13437238 eV
  | Energy correction for multipole
  | error in Hartree potential    :           0.00016798 Ha           0.00457106 eV
  | Sum of eigenvalues per atom                           :       -4457.95263503 eV
  | Total energy (T->0) per atom                          :       -7871.26802460 eV  <-- do not rely on this value for anything but (periodic) metals
  | Electronic free energy per atom                       :       -7871.26898123 eV

  Self-consistency convergence accuracy:
  | Change of charge density      :  0.7270E-02
  | Change of sum of eigenvalues  : -0.1069E+01 eV
  | Change of total energy        :  0.1484E-02 eV

  End self-consistency iteration #     3       :  max(cpu_time)    wall_clock(cpu1)
  | Time for this iteration                    :        0.542 s           0.543 s
  | Charge density update                      :        0.152 s           0.152 s
  | Density mixing & preconditioning           :        0.018 s           0.019 s
  | Hartree multipole update                   :        0.000 s           0.000 s
  | Hartree multipole summation                :        0.167 s           0.167 s
  | Integration                                :        0.093 s           0.093 s
  | Solution of K.-S. eqns.                    :        0.111 s           0.111 s
  | Total energy evaluation                    :        0.000 s           0.001 s

  Partial memory accounting:
  | Current value for overall tracked memory usage on task 0  :           2.647 MB
  | Peak value for overall tracked memory usage on task 0     :           3.711 MB after allocating wave
  | Largest tracked array allocation on task 0 so far         :           2.500 MB  when allocating +KS_eigenvector_complex
  Note:  These values currently only include a subset of arrays which are explicitly tracked.
  The "true" memory usage will be greater.
------------------------------------------------------------

------------------------------------------------------------
          Begin self-consistency iteration #    4

  Date     :  20190514, Time     :  123547.433
------------------------------------------------------------
  Evaluating new KS density using the density matrix
  Evaluating density matrix
  Time summed over all CPUs for getting density from density matrix: real work        0.141 s, elapsed        0.141 s
  Integration grid: deviation in total charge (<rho> - N_e) =  -2.735590E-13
  Pulay mixing of updated and previous charge densities.

  Evaluating partitioned Hartree potential by multipole expansion.
  | Analytical far-field extrapolation by fixed multipoles:
  | Hartree multipole sum: apparent total charge =  -0.344110E-02
  Summing up the Hartree potential.
  Time summed over all CPUs for potential: real work        0.165 s, elapsed        0.165 s
  | RMS charge density error from multipole expansion :   0.143724E-02
  | Average real-space part of the electrostatic potential :     -0.29917425 eV

  Integrating Hamiltonian matrix: batch-based integration.
  Time summed over all CPUs for integration: real work        0.094 s, elapsed        0.094 s

  Updating Kohn-Sham eigenvalues, eigenvectors, occupation numbers, and Fermi level.
  Solving generalized eigenproblem

  Obtaining occupation numbers and chemical potential using ELSI.
  | Chemical potential (Fermi level):    -4.85709596eV
  What follows are estimated values for band gap, HOMO, LUMO, etc.
  | They are estimated on a discrete k-point grid and not necessarily exact.
  | For converged numbers, create a DOS and/or band structure plot on a denser k-grid.

  Highest occupied state (VBM) at     -4.86802641 eV (relative to internal zero)
  | Occupation number:      1.24280005
  | K-point:     672 at    0.500000    0.500000    0.583333 (in units of recip. lattice)

  Lowest unoccupied state (CBM) at    -4.84276514 eV (relative to internal zero)
  | Occupation number:      0.68523002
  | K-point:     189 at    0.166667    0.000000    0.666667 (in units of recip. lattice)

  ESTIMATED overall HOMO-LUMO gap:      0.02526127 eV between HOMO at k-point 672 and LUMO at k-point 189
  | This appears to be an indirect band gap.
  | Smallest direct gap :      0.06815894 eV for k_point 672 at    0.166667    0.000000    0.666667 (in units of recip. lattice)
  However, this system has fractional occupation numbers. Since we use a finite k-point grid,
  this material is metallic within the approximate finite broadening function (occupation_type)
  applied to determine the occupation numbers.

  Total energy components:
  | Sum of eigenvalues            :        -163.82175982 Ha       -4457.81689605 eV
  | XC energy correction          :         -19.62445712 Ha        -534.00864840 eV
  | XC potential correction       :          25.92885080 Ha         705.55992867 eV
  | Free-atom electrostatic energy:        -132.19377077 Ha       -3597.17552501 eV
  | Hartree energy correction     :           0.44739267 Ha          12.17417386 eV
  | Entropy correction            :          -0.00003520 Ha          -0.00095781 eV
  | ---------------------------
  | Total energy                  :        -289.26374426 Ha       -7871.26696693 eV
  | Total energy, T -> 0          :        -289.26377946 Ha       -7871.26792475 eV  <-- do not rely on this value for anything but (periodic) metals
  | Electronic free energy        :        -289.26381466 Ha       -7871.26888256 eV

  Derived energy quantities:
  | Kinetic energy                :         289.32792857 Ha        7873.01351094 eV
  | Electrostatic energy          :        -558.96721571 Ha      -15210.27182947 eV
  | Energy correction for multipole
  | error in Hartree potential    :           0.00018156 Ha           0.00494063 eV
  | Sum of eigenvalues per atom                           :       -4457.81689605 eV
  | Total energy (T->0) per atom                          :       -7871.26792475 eV  <-- do not rely on this value for anything but (periodic) metals
  | Electronic free energy per atom                       :       -7871.26888256 eV

  Self-consistency convergence accuracy:
  | Change of charge density      :  0.2739E-02
  | Change of sum of eigenvalues  :  0.1357E+00 eV
  | Change of total energy        :  0.1010E-03 eV

  End self-consistency iteration #     4       :  max(cpu_time)    wall_clock(cpu1)
  | Time for this iteration                    :        0.544 s           0.543 s
  | Charge density update                      :        0.152 s           0.152 s
  | Density mixing & preconditioning           :        0.017 s           0.017 s
  | Hartree multipole update                   :        0.000 s           0.000 s
  | Hartree multipole summation                :        0.167 s           0.167 s
  | Integration                                :        0.094 s           0.094 s
  | Solution of K.-S. eqns.                    :        0.113 s           0.113 s
  | Total energy evaluation                    :        0.000 s           0.000 s

  Partial memory accounting:
  | Current value for overall tracked memory usage on task 0  :           2.648 MB
  | Peak value for overall tracked memory usage on task 0     :           3.711 MB after allocating wave
  | Largest tracked array allocation on task 0 so far         :           2.500 MB  when allocating +KS_eigenvector_complex
  Note:  These values currently only include a subset of arrays which are explicitly tracked.
  The "true" memory usage will be greater.
------------------------------------------------------------

------------------------------------------------------------
          Begin self-consistency iteration #    5

  Date     :  20190514, Time     :  123547.976
------------------------------------------------------------
  Evaluating new KS density using the density matrix
  Evaluating density matrix
  Time summed over all CPUs for getting density from density matrix: real work        0.141 s, elapsed        0.141 s
  Integration grid: deviation in total charge (<rho> - N_e) =  -3.712586E-13
  Pulay mixing of updated and previous charge densities.

  Evaluating partitioned Hartree potential by multipole expansion.
  | Analytical far-field extrapolation by fixed multipoles:
  | Hartree multipole sum: apparent total charge =  -0.278043E-02
  Summing up the Hartree potential.
  Time summed over all CPUs for potential: real work        0.165 s, elapsed        0.165 s
  | RMS charge density error from multipole expansion :   0.143349E-02
  | Average real-space part of the electrostatic potential :     -0.30165495 eV

  Integrating Hamiltonian matrix: batch-based integration.
  Time summed over all CPUs for integration: real work        0.094 s, elapsed        0.094 s

  Updating Kohn-Sham eigenvalues, eigenvectors, occupation numbers, and Fermi level.
  Solving generalized eigenproblem

  Obtaining occupation numbers and chemical potential using ELSI.
  | Chemical potential (Fermi level):    -4.85595394eV
  What follows are estimated values for band gap, HOMO, LUMO, etc.
  | They are estimated on a discrete k-point grid and not necessarily exact.
  | For converged numbers, create a DOS and/or band structure plot on a denser k-grid.

  Highest occupied state (VBM) at     -4.86685975 eV (relative to internal zero)
  | Occupation number:      1.24226980
  | K-point:     672 at    0.500000    0.500000    0.583333 (in units of recip. lattice)

  Lowest unoccupied state (CBM) at    -4.84157670 eV (relative to internal zero)
  | Occupation number:      0.68426510
  | K-point:     189 at    0.166667    0.000000    0.666667 (in units of recip. lattice)

  ESTIMATED overall HOMO-LUMO gap:      0.02528305 eV between HOMO at k-point 672 and LUMO at k-point 189
  | This appears to be an indirect band gap.
  | Smallest direct gap :      0.06816471 eV for k_point 672 at    0.166667    0.000000    0.666667 (in units of recip. lattice)
  However, this system has fractional occupation numbers. Since we use a finite k-point grid,
  this material is metallic within the approximate finite broadening function (occupation_type)
  applied to determine the occupation numbers.

  Total energy components:
  | Sum of eigenvalues            :        -163.82214141 Ha       -4457.82727962 eV
  | XC energy correction          :         -19.62408535 Ha        -533.99853198 eV
  | XC potential correction       :          25.92835998 Ha         705.54657277 eV
  | Free-atom electrostatic energy:        -132.19377077 Ha       -3597.17552501 eV
  | Hartree energy correction     :           0.44789317 Ha          12.18779329 eV
  | Entropy correction            :          -0.00003519 Ha          -0.00095768 eV
  | ---------------------------
  | Total energy                  :        -289.26374439 Ha       -7871.26697055 eV
  | Total energy, T -> 0          :        -289.26377959 Ha       -7871.26792823 eV  <-- do not rely on this value for anything but (periodic) metals
  | Electronic free energy        :        -289.26381478 Ha       -7871.26888592 eV

  Derived energy quantities:
  | Kinetic energy                :         289.32244466 Ha        7872.86428620 eV
  | Electrostatic energy          :        -558.96210370 Ha      -15210.13272477 eV
  | Energy correction for multipole
  | error in Hartree potential    :           0.00018100 Ha           0.00492538 eV
  | Sum of eigenvalues per atom                           :       -4457.82727962 eV
  | Total energy (T->0) per atom                          :       -7871.26792823 eV  <-- do not rely on this value for anything but (periodic) metals
  | Electronic free energy per atom                       :       -7871.26888592 eV

  Self-consistency convergence accuracy:
  | Change of charge density      :  0.9094E-03
  | Change of sum of eigenvalues  : -0.1038E-01 eV
  | Change of total energy        : -0.3620E-05 eV

  End self-consistency iteration #     5       :  max(cpu_time)    wall_clock(cpu1)
  | Time for this iteration                    :        0.543 s           0.543 s
  | Charge density update                      :        0.152 s           0.153 s
  | Density mixing & preconditioning           :        0.017 s           0.017 s
  | Hartree multipole update                   :        0.000 s           0.000 s
  | Hartree multipole summation                :        0.166 s           0.167 s
  | Integration                                :        0.094 s           0.094 s
  | Solution of K.-S. eqns.                    :        0.112 s           0.112 s
  | Total energy evaluation                    :        0.000 s           0.000 s

  Partial memory accounting:
  | Current value for overall tracked memory usage on task 0  :           2.648 MB
  | Peak value for overall tracked memory usage on task 0     :           3.711 MB after allocating wave
  | Largest tracked array allocation on task 0 so far         :           2.500 MB  when allocating +KS_eigenvector_complex
  Note:  These values currently only include a subset of arrays which are explicitly tracked.
  The "true" memory usage will be greater.
------------------------------------------------------------

------------------------------------------------------------
          Begin self-consistency iteration #    6

  Date     :  20190514, Time     :  123548.519
------------------------------------------------------------
  Evaluating new KS density using the density matrix
  Evaluating density matrix
  Time summed over all CPUs for getting density from density matrix: real work        0.141 s, elapsed        0.141 s
  Integration grid: deviation in total charge (<rho> - N_e) =  -3.428369E-13
  Pulay mixing of updated and previous charge densities.

  Evaluating partitioned Hartree potential by multipole expansion.
  | Analytical far-field extrapolation by fixed multipoles:
  | Hartree multipole sum: apparent total charge =  -0.224945E-03
  Summing up the Hartree potential.
  Time summed over all CPUs for potential: real work        0.167 s, elapsed        0.167 s
  | RMS charge density error from multipole expansion :   0.145863E-02
  | Average real-space part of the electrostatic potential :     -0.31683586 eV

  Integrating Hamiltonian matrix: batch-based integration.
  Time summed over all CPUs for integration: real work        0.092 s, elapsed        0.092 s

  Updating Kohn-Sham eigenvalues, eigenvectors, occupation numbers, and Fermi level.
  Solving generalized eigenproblem

  Obtaining occupation numbers and chemical potential using ELSI.
  | Chemical potential (Fermi level):    -4.85407716eV
  What follows are estimated values for band gap, HOMO, LUMO, etc.
  | They are estimated on a discrete k-point grid and not necessarily exact.
  | For converged numbers, create a DOS and/or band structure plot on a denser k-grid.

  Highest occupied state (VBM) at     -4.86491743 eV (relative to internal zero)
  | Occupation number:      1.24085909
  | K-point:     565 at    0.416667    0.500000    0.500000 (in units of recip. lattice)

  Lowest unoccupied state (CBM) at    -4.83972780 eV (relative to internal zero)
  | Occupation number:      0.68484444
  | K-point:     201 at    0.166667    0.166667    0.000000 (in units of recip. lattice)

  ESTIMATED overall HOMO-LUMO gap:      0.02518964 eV between HOMO at k-point 565 and LUMO at k-point 201
  | This appears to be an indirect band gap.
  | Smallest direct gap :      0.06816064 eV for k_point 565 at    0.166667    0.166667    0.000000 (in units of recip. lattice)
  However, this system has fractional occupation numbers. Since we use a finite k-point grid,
  this material is metallic within the approximate finite broadening function (occupation_type)
  applied to determine the occupation numbers.

  Total energy components:
  | Sum of eigenvalues            :        -163.82140828 Ha       -4457.80732991 eV
  | XC energy correction          :         -19.62316550 Ha        -533.97350163 eV
  | XC potential correction       :          25.92715552 Ha         705.51379784 eV
  | Free-atom electrostatic energy:        -132.19377077 Ha       -3597.17552501 eV
  | Hartree energy correction     :           0.44744521 Ha          12.17560355 eV
  | Entropy correction            :          -0.00003519 Ha          -0.00095757 eV
  | ---------------------------
  | Total energy                  :        -289.26374383 Ha       -7871.26695517 eV
  | Total energy, T -> 0          :        -289.26377902 Ha       -7871.26791274 eV  <-- do not rely on this value for anything but (periodic) metals
  | Electronic free energy        :        -289.26381421 Ha       -7871.26887030 eV

  Derived energy quantities:
  | Kinetic energy                :         289.31733659 Ha        7872.72528843 eV
  | Electrostatic energy          :        -558.95791491 Ha      -15210.01874197 eV
  | Energy correction for multipole
  | error in Hartree potential    :           0.00018385 Ha           0.00500274 eV
  | Sum of eigenvalues per atom                           :       -4457.80732991 eV
  | Total energy (T->0) per atom                          :       -7871.26791274 eV  <-- do not rely on this value for anything but (periodic) metals
  | Electronic free energy per atom                       :       -7871.26887030 eV

  Self-consistency convergence accuracy:
  | Change of charge density      :  0.5771E-03
  | Change of sum of eigenvalues  :  0.1995E-01 eV
  | Change of total energy        :  0.1538E-04 eV

  End self-consistency iteration #     6       :  max(cpu_time)    wall_clock(cpu1)
  | Time for this iteration                    :        0.542 s           0.543 s
  | Charge density update                      :        0.153 s           0.153 s
  | Density mixing & preconditioning           :        0.017 s           0.017 s
  | Hartree multipole update                   :        0.000 s           0.001 s
  | Hartree multipole summation                :        0.168 s           0.168 s
  | Integration                                :        0.092 s           0.092 s
  | Solution of K.-S. eqns.                    :        0.112 s           0.112 s
  | Total energy evaluation                    :        0.000 s           0.000 s

  Partial memory accounting:
  | Current value for overall tracked memory usage on task 0  :           2.648 MB
  | Peak value for overall tracked memory usage on task 0     :           3.711 MB after allocating wave
  | Largest tracked array allocation on task 0 so far         :           2.500 MB  when allocating +KS_eigenvector_complex
  Note:  These values currently only include a subset of arrays which are explicitly tracked.
  The "true" memory usage will be greater.
------------------------------------------------------------

------------------------------------------------------------
          Begin self-consistency iteration #    7

  Date     :  20190514, Time     :  123549.062
------------------------------------------------------------
  Evaluating new KS density using the density matrix
  Evaluating density matrix
  Time summed over all CPUs for getting density from density matrix: real work        0.139 s, elapsed        0.139 s
  Integration grid: deviation in total charge (<rho> - N_e) =  -2.682299E-13
  Pulay mixing of updated and previous charge densities.

  Evaluating partitioned Hartree potential by multipole expansion.
  | Analytical far-field extrapolation by fixed multipoles:
  | Hartree multipole sum: apparent total charge =   0.924899E-04
  Summing up the Hartree potential.
  Time summed over all CPUs for potential: real work        0.162 s, elapsed        0.162 s
  | RMS charge density error from multipole expansion :   0.145066E-02
  | Average real-space part of the electrostatic potential :     -0.31822870 eV

  Integrating Hamiltonian matrix: batch-based integration.
  Time summed over all CPUs for integration: real work        0.092 s, elapsed        0.092 s

  Updating Kohn-Sham eigenvalues, eigenvectors, occupation numbers, and Fermi level.
  Solving generalized eigenproblem

  Obtaining occupation numbers and chemical potential using ELSI.
  | Chemical potential (Fermi level):    -4.85379005eV
  What follows are estimated values for band gap, HOMO, LUMO, etc.
  | They are estimated on a discrete k-point grid and not necessarily exact.
  | For converged numbers, create a DOS and/or band structure plot on a denser k-grid.

  Highest occupied state (VBM) at     -4.86464887 eV (relative to internal zero)
  | Occupation number:      1.24125846
  | K-point:     672 at    0.500000    0.500000    0.583333 (in units of recip. lattice)

  Lowest unoccupied state (CBM) at    -4.83941434 eV (relative to internal zero)
  | Occupation number:      0.68429694
  | K-point:     189 at    0.166667    0.000000    0.666667 (in units of recip. lattice)

  ESTIMATED overall HOMO-LUMO gap:      0.02523453 eV between HOMO at k-point 672 and LUMO at k-point 189
  | This appears to be an indirect band gap.
  | Smallest direct gap :      0.06816502 eV for k_point 566 at    0.166667    0.000000    0.666667 (in units of recip. lattice)
  However, this system has fractional occupation numbers. Since we use a finite k-point grid,
  this material is metallic within the approximate finite broadening function (occupation_type)
  applied to determine the occupation numbers.

  Total energy components:
  | Sum of eigenvalues            :        -163.82078973 Ha       -4457.79049835 eV
  | XC energy correction          :         -19.62313394 Ha        -533.97264263 eV
  | XC potential correction       :          25.92711544 Ha         705.51270731 eV
  | Free-atom electrostatic energy:        -132.19377077 Ha       -3597.17552501 eV
  | Hartree energy correction     :           0.44683505 Ha          12.15900045 eV
  | Entropy correction            :          -0.00003519 Ha          -0.00095756 eV
  | ---------------------------
  | Total energy                  :        -289.26374394 Ha       -7871.26695823 eV
  | Total energy, T -> 0          :        -289.26377913 Ha       -7871.26791580 eV  <-- do not rely on this value for anything but (periodic) metals
  | Electronic free energy        :        -289.26381432 Ha       -7871.26887336 eV

  Derived energy quantities:
  | Kinetic energy                :         289.31776568 Ha        7872.73696459 eV
  | Electrostatic energy          :        -558.95837568 Ha      -15210.03128020 eV
  | Energy correction for multipole
  | error in Hartree potential    :           0.00018327 Ha           0.00498716 eV
  | Sum of eigenvalues per atom                           :       -4457.79049835 eV
  | Total energy (T->0) per atom                          :       -7871.26791580 eV  <-- do not rely on this value for anything but (periodic) metals
  | Electronic free energy per atom                       :       -7871.26887336 eV

  Self-consistency convergence accuracy:
  | Change of charge density      :  0.7930E-04
  | Change of sum of eigenvalues  :  0.1683E-01 eV
  | Change of total energy        : -0.3064E-05 eV

  End self-consistency iteration #     7       :  max(cpu_time)    wall_clock(cpu1)
  | Time for this iteration                    :        0.536 s           0.536 s
  | Charge density update                      :        0.151 s           0.151 s
  | Density mixing & preconditioning           :        0.017 s           0.017 s
  | Hartree multipole update                   :        0.000 s           0.001 s
  | Hartree multipole summation                :        0.164 s           0.163 s
  | Integration                                :        0.092 s           0.092 s
  | Solution of K.-S. eqns.                    :        0.111 s           0.111 s
  | Total energy evaluation                    :        0.000 s           0.000 s

  Partial memory accounting:
  | Current value for overall tracked memory usage on task 0  :           2.648 MB
  | Peak value for overall tracked memory usage on task 0     :           3.711 MB after allocating wave
  | Largest tracked array allocation on task 0 so far         :           2.500 MB  when allocating +KS_eigenvector_complex
  Note:  These values currently only include a subset of arrays which are explicitly tracked.
  The "true" memory usage will be greater.
------------------------------------------------------------

------------------------------------------------------------
          Begin self-consistency iteration #    8

  Date     :  20190514, Time     :  123549.598
------------------------------------------------------------
  Evaluating new KS density using the density matrix
  Evaluating density matrix
  Time summed over all CPUs for getting density from density matrix: real work        0.140 s, elapsed        0.140 s
  Integration grid: deviation in total charge (<rho> - N_e) =  -3.161915E-13
  Pulay mixing of updated and previous charge densities.

  Evaluating partitioned Hartree potential by multipole expansion.
  | Analytical far-field extrapolation by fixed multipoles:
  | Hartree multipole sum: apparent total charge =   0.923989E-04
  Summing up the Hartree potential.
  Time summed over all CPUs for potential: real work        0.166 s, elapsed        0.166 s
  | RMS charge density error from multipole expansion :   0.145086E-02
  | Average real-space part of the electrostatic potential :     -0.31827453 eV

  Integrating Hamiltonian matrix: batch-based integration.
  Time summed over all CPUs for integration: real work        0.094 s, elapsed        0.094 s

  Updating Kohn-Sham eigenvalues, eigenvectors, occupation numbers, and Fermi level.
  Solving generalized eigenproblem

  Obtaining occupation numbers and chemical potential using ELSI.
  | Chemical potential (Fermi level):    -4.85382521eV
  What follows are estimated values for band gap, HOMO, LUMO, etc.
  | They are estimated on a discrete k-point grid and not necessarily exact.
  | For converged numbers, create a DOS and/or band structure plot on a denser k-grid.

  Highest occupied state (VBM) at     -4.86468503 eV (relative to internal zero)
  | Occupation number:      1.24127999
  | K-point:     672 at    0.500000    0.500000    0.583333 (in units of recip. lattice)

  Lowest unoccupied state (CBM) at    -4.83945296 eV (relative to internal zero)
  | Occupation number:      0.68436894
  | K-point:     189 at    0.166667    0.000000    0.666667 (in units of recip. lattice)

  ESTIMATED overall HOMO-LUMO gap:      0.02523207 eV between HOMO at k-point 672 and LUMO at k-point 189
  | This appears to be an indirect band gap.
  | Smallest direct gap :      0.06816457 eV for k_point 566 at    0.166667    0.000000    0.666667 (in units of recip. lattice)
  However, this system has fractional occupation numbers. Since we use a finite k-point grid,
  this material is metallic within the approximate finite broadening function (occupation_type)
  applied to determine the occupation numbers.

  Total energy components:
  | Sum of eigenvalues            :        -163.82087749 Ha       -4457.79288664 eV
  | XC energy correction          :         -19.62312593 Ha        -533.97242477 eV
  | XC potential correction       :          25.92710487 Ha         705.51241951 eV
  | Free-atom electrostatic energy:        -132.19377077 Ha       -3597.17552501 eV
  | Hartree energy correction     :           0.44692540 Ha          12.16145888 eV
  | Entropy correction            :          -0.00003519 Ha          -0.00095757 eV
  | ---------------------------
  | Total energy                  :        -289.26374393 Ha       -7871.26695803 eV
  | Total energy, T -> 0          :        -289.26377912 Ha       -7871.26791560 eV  <-- do not rely on this value for anything but (periodic) metals
  | Electronic free energy        :        -289.26381431 Ha       -7871.26887318 eV

  Derived energy quantities:
  | Kinetic energy                :         289.31768038 Ha        7872.73464360 eV
  | Electrostatic energy          :        -558.95829839 Ha      -15210.02917686 eV
  | Energy correction for multipole
  | error in Hartree potential    :           0.00018330 Ha           0.00498792 eV
  | Sum of eigenvalues per atom                           :       -4457.79288664 eV
  | Total energy (T->0) per atom                          :       -7871.26791560 eV  <-- do not rely on this value for anything but (periodic) metals
  | Electronic free energy per atom                       :       -7871.26887318 eV

  Self-consistency convergence accuracy:
  | Change of charge density      :  0.1142E-04
  | Change of sum of eigenvalues  : -0.2388E-02 eV
  | Change of total energy        :  0.2009E-06 eV

  End self-consistency iteration #     8       :  max(cpu_time)    wall_clock(cpu1)
  | Time for this iteration                    :        0.537 s           0.537 s
  | Charge density update                      :        0.151 s           0.151 s
  | Density mixing & preconditioning           :        0.017 s           0.017 s
  | Hartree multipole update                   :        0.000 s           0.000 s
  | Hartree multipole summation                :        0.167 s           0.168 s
  | Integration                                :        0.094 s           0.094 s
  | Solution of K.-S. eqns.                    :        0.107 s           0.106 s
  | Total energy evaluation                    :        0.000 s           0.001 s

  Partial memory accounting:
  | Current value for overall tracked memory usage on task 0  :           2.649 MB
  | Peak value for overall tracked memory usage on task 0     :           3.711 MB after allocating wave
  | Largest tracked array allocation on task 0 so far         :           2.500 MB  when allocating +KS_eigenvector_complex
  Note:  These values currently only include a subset of arrays which are explicitly tracked.
  The "true" memory usage will be greater.
------------------------------------------------------------

------------------------------------------------------------
          Begin self-consistency iteration #    9

  Date     :  20190514, Time     :  123550.135
------------------------------------------------------------
  Evaluating new KS density using the density matrix
  Evaluating density matrix
  Time summed over all CPUs for getting density from density matrix: real work        0.140 s, elapsed        0.140 s
  Integration grid: deviation in total charge (<rho> - N_e) =  -3.446132E-13
  Pulay mixing of updated and previous charge densities.

  Evaluating partitioned Hartree potential by multipole expansion.
  | Analytical far-field extrapolation by fixed multipoles:
  | Hartree multipole sum: apparent total charge =   0.942963E-04
  Summing up the Hartree potential.
  Time summed over all CPUs for potential: real work        0.165 s, elapsed        0.165 s
  | RMS charge density error from multipole expansion :   0.145082E-02
  | Average real-space part of the electrostatic potential :     -0.31828251 eV

  Integrating Hamiltonian matrix: batch-based integration.
  Time summed over all CPUs for integration: real work        0.093 s, elapsed        0.093 s

  Updating Kohn-Sham eigenvalues, eigenvectors, occupation numbers, and Fermi level.
  Solving generalized eigenproblem

  Obtaining occupation numbers and chemical potential using ELSI.
  | Chemical potential (Fermi level):    -4.85382434eV
  What follows are estimated values for band gap, HOMO, LUMO, etc.
  | They are estimated on a discrete k-point grid and not necessarily exact.
  | For converged numbers, create a DOS and/or band structure plot on a denser k-grid.

  Highest occupied state (VBM) at     -4.86468435 eV (relative to internal zero)
  | Occupation number:      1.24128412
  | K-point:     662 at    0.500000    0.416667    0.500000 (in units of recip. lattice)

  Lowest unoccupied state (CBM) at    -4.83945219 eV (relative to internal zero)
  | Occupation number:      0.68437098
  | K-point:     496 at    0.333333    0.833333    0.833333 (in units of recip. lattice)

  ESTIMATED overall HOMO-LUMO gap:      0.02523216 eV between HOMO at k-point 662 and LUMO at k-point 496
  | This appears to be an indirect band gap.
  | Smallest direct gap :      0.06816459 eV for k_point 662 at    0.333333    0.833333    0.833333 (in units of recip. lattice)
  However, this system has fractional occupation numbers. Since we use a finite k-point grid,
  this material is metallic within the approximate finite broadening function (occupation_type)
  applied to determine the occupation numbers.

  Total energy components:
  | Sum of eigenvalues            :        -163.82089442 Ha       -4457.79334714 eV
  | XC energy correction          :         -19.62312303 Ha        -533.97234598 eV
  | XC potential correction       :          25.92710103 Ha         705.51231523 eV
  | Free-atom electrostatic energy:        -132.19377077 Ha       -3597.17552501 eV
  | Hartree energy correction     :           0.44694326 Ha          12.16194483 eV
  | Entropy correction            :          -0.00003519 Ha          -0.00095757 eV
  | ---------------------------
  | Total energy                  :        -289.26374393 Ha       -7871.26695807 eV
  | Total energy, T -> 0          :        -289.26377912 Ha       -7871.26791564 eV  <-- do not rely on this value for anything but (periodic) metals
  | Electronic free energy        :        -289.26381431 Ha       -7871.26887322 eV

  Derived energy quantities:
  | Kinetic energy                :         289.31764237 Ha        7872.73360928 eV
  | Electrostatic energy          :        -558.95826327 Ha      -15210.02822137 eV
  | Energy correction for multipole
  | error in Hartree potential    :           0.00018330 Ha           0.00498783 eV
  | Sum of eigenvalues per atom                           :       -4457.79334714 eV
[...]
  | Hartree multipole update                   :        0.000 s           0.000 s
  | Hartree multipole summation                :        0.167 s           0.167 s
  | Integration                                :        0.093 s           0.093 s
  | Solution of K.-S. eqns.                    :        0.107 s           0.107 s
  | Total energy evaluation                    :        0.000 s           0.000 s

  Partial memory accounting:
  | Current value for overall tracked memory usage on task 0  :           2.649 MB
  | Peak value for overall tracked memory usage on task 0     :           3.711 MB after allocating wave
  | Largest tracked array allocation on task 0 so far         :           2.500 MB  when allocating +KS_eigenvector_complex
  Note:  These values currently only include a subset of arrays which are explicitly tracked.
  The "true" memory usage will be greater.
------------------------------------------------------------

------------------------------------------------------------
          Begin self-consistency iteration #   10

  Date     :  20190514, Time     :  123550.672
------------------------------------------------------------
  Evaluating new KS density using the density matrix
  Evaluating density matrix
  Time summed over all CPUs for getting density from density matrix: real work        0.142 s, elapsed        0.142 s
  Integration grid: deviation in total charge (<rho> - N_e) =  -3.055334E-13
  Pulay mixing of updated and previous charge densities.

  Evaluating partitioned Hartree potential by multipole expansion.
  | Analytical far-field extrapolation by fixed multipoles:
  | Hartree multipole sum: apparent total charge =   0.918498E-04
  Summing up the Hartree potential.
  Time summed over all CPUs for potential: real work        0.164 s, elapsed        0.164 s
  | RMS charge density error from multipole expansion :   0.145089E-02
  | Average real-space part of the electrostatic potential :     -0.31828898 eV

  Integrating Hamiltonian matrix: batch-based integration.
  Time summed over all CPUs for integration: real work        0.092 s, elapsed        0.092 s

  Updating Kohn-Sham eigenvalues, eigenvectors, occupation numbers, and Fermi level.
  Solving generalized eigenproblem

  Obtaining occupation numbers and chemical potential using ELSI.
  | Chemical potential (Fermi level):    -4.85384163eV
  What follows are estimated values for band gap, HOMO, LUMO, etc.
  | They are estimated on a discrete k-point grid and not necessarily exact.
  | For converged numbers, create a DOS and/or band structure plot on a denser k-grid.

  Highest occupied state (VBM) at     -4.86470214 eV (relative to internal zero)
  | Occupation number:      1.24129495
  | K-point:     566 at    0.416667    0.500000    0.583333 (in units of recip. lattice)

  Lowest unoccupied state (CBM) at    -4.83947101 eV (relative to internal zero)
  | Occupation number:      0.68440277
  | K-point:     255 at    0.166667    0.666667    0.000000 (in units of recip. lattice)

  ESTIMATED overall HOMO-LUMO gap:      0.02523114 eV between HOMO at k-point 566 and LUMO at k-point 255
  | This appears to be an indirect band gap.
  | Smallest direct gap :      0.06816440 eV for k_point 566 at    0.166667    0.666667    0.000000 (in units of recip. lattice)
  However, this system has fractional occupation numbers. Since we use a finite k-point grid,
  this material is metallic within the approximate finite broadening function (occupation_type)
  applied to determine the occupation numbers.

  Total energy components:
  | Sum of eigenvalues            :        -163.82093520 Ha       -4457.79445698 eV
  | XC energy correction          :         -19.62312016 Ha        -533.97226768 eV
  | XC potential correction       :          25.92709722 Ha         705.51221150 eV
  | Free-atom electrostatic energy:        -132.19377077 Ha       -3597.17552501 eV
  | Hartree energy correction     :           0.44698498 Ha          12.16308017 eV
  | Entropy correction            :          -0.00003519 Ha          -0.00095758 eV
  | ---------------------------
  | Total energy                  :        -289.26374393 Ha       -7871.26695800 eV
  | Total energy, T -> 0          :        -289.26377912 Ha       -7871.26791558 eV  <-- do not rely on this value for anything but (periodic) metals
  | Electronic free energy        :        -289.26381431 Ha       -7871.26887315 eV

  Derived energy quantities:
  | Kinetic energy                :         289.31760869 Ha        7872.73269277 eV
  | Electrostatic energy          :        -558.95823247 Ha      -15210.02738309 eV
  | Energy correction for multipole
  | error in Hartree potential    :           0.00018331 Ha           0.00498812 eV
  | Sum of eigenvalues per atom                           :       -4457.79445698 eV
  | Total energy (T->0) per atom                          :       -7871.26791558 eV  <-- do not rely on this value for anything but (periodic) metals
  | Electronic free energy per atom                       :       -7871.26887315 eV

  Self-consistency convergence accuracy:
  | Change of charge density      :  0.2504E-05
  | Change of sum of eigenvalues  : -0.1110E-02 eV
  | Change of total energy        :  0.6940E-07 eV

  End self-consistency iteration #    10       :  max(cpu_time)    wall_clock(cpu1)
  | Time for this iteration                    :        0.535 s           0.535 s
  | Charge density update                      :        0.153 s           0.153 s
  | Density mixing & preconditioning           :        0.017 s           0.017 s
  | Hartree multipole update                   :        0.000 s           0.001 s
  | Hartree multipole summation                :        0.166 s           0.166 s
  | Integration                                :        0.093 s           0.092 s
  | Solution of K.-S. eqns.                    :        0.106 s           0.106 s
  | Total energy evaluation                    :        0.000 s           0.000 s

  Partial memory accounting:
  | Current value for overall tracked memory usage on task 0  :           2.649 MB
  | Peak value for overall tracked memory usage on task 0     :           3.711 MB after allocating wave
  | Largest tracked array allocation on task 0 so far         :           2.500 MB  when allocating +KS_eigenvector_complex
  Note:  These values currently only include a subset of arrays which are explicitly tracked.
  The "true" memory usage will be greater.
------------------------------------------------------------

------------------------------------------------------------
          Begin self-consistency iteration #   11

  Date     :  20190514, Time     :  123551.207
------------------------------------------------------------
  Evaluating new KS density using the density matrix
  Evaluating density matrix
  Time summed over all CPUs for getting density from density matrix: real work        0.141 s, elapsed        0.141 s
  Integration grid: deviation in total charge (<rho> - N_e) =  -3.375078E-13
  Pulay mixing of updated and previous charge densities.

  Evaluating partitioned Hartree potential by multipole expansion.
  | Analytical far-field extrapolation by fixed multipoles:
  | Hartree multipole sum: apparent total charge =   0.924755E-04
  Summing up the Hartree potential.
  Time summed over all CPUs for potential: real work        0.165 s, elapsed        0.165 s
  | RMS charge density error from multipole expansion :   0.145087E-02
  | Average real-space part of the electrostatic potential :     -0.31828820 eV

  Integrating Hamiltonian matrix: batch-based integration.
  Time summed over all CPUs for integration: real work        0.092 s, elapsed        0.092 s

  Updating Kohn-Sham eigenvalues, eigenvectors, occupation numbers, and Fermi level.
  Solving generalized eigenproblem

  Obtaining occupation numbers and chemical potential using ELSI.
  | Chemical potential (Fermi level):    -4.85383829eV
  What follows are estimated values for band gap, HOMO, LUMO, etc.
  | They are estimated on a discrete k-point grid and not necessarily exact.
  | For converged numbers, create a DOS and/or band structure plot on a denser k-grid.

  Highest occupied state (VBM) at     -4.86469873 eV (relative to internal zero)
  | Occupation number:      1.24129345
  | K-point:     662 at    0.500000    0.416667    0.500000 (in units of recip. lattice)

  Lowest unoccupied state (CBM) at    -4.83946738 eV (relative to internal zero)
  | Occupation number:      0.68439688
  | K-point:     496 at    0.333333    0.833333    0.833333 (in units of recip. lattice)

  ESTIMATED overall HOMO-LUMO gap:      0.02523135 eV between HOMO at k-point 662 and LUMO at k-point 496
  | This appears to be an indirect band gap.
  | Smallest direct gap :      0.06816443 eV for k_point 662 at    0.333333    0.833333    0.833333 (in units of recip. lattice)
  However, this system has fractional occupation numbers. Since we use a finite k-point grid,
  this material is metallic within the approximate finite broadening function (occupation_type)
  applied to determine the occupation numbers.

  Total energy components:
  | Sum of eigenvalues            :        -163.82092922 Ha       -4457.79429419 eV
  | XC energy correction          :         -19.62312042 Ha        -533.97227479 eV
  | XC potential correction       :          25.92709757 Ha         705.51222093 eV
  | Free-atom electrostatic energy:        -132.19377077 Ha       -3597.17552501 eV
  | Hartree energy correction     :           0.44697891 Ha          12.16291505 eV
  | Entropy correction            :          -0.00003519 Ha          -0.00095758 eV
  | ---------------------------
  | Total energy                  :        -289.26374393 Ha       -7871.26695801 eV
  | Total energy, T -> 0          :        -289.26377912 Ha       -7871.26791559 eV  <-- do not rely on this value for anything but (periodic) metals
  | Electronic free energy        :        -289.26381431 Ha       -7871.26887317 eV

  Derived energy quantities:
  | Kinetic energy                :         289.31761175 Ha        7872.73277587 eV
  | Electrostatic energy          :        -558.95823526 Ha      -15210.02745909 eV
  | Energy correction for multipole
  | error in Hartree potential    :           0.00018331 Ha           0.00498804 eV
  | Sum of eigenvalues per atom                           :       -4457.79429419 eV
  | Total energy (T->0) per atom                          :       -7871.26791559 eV  <-- do not rely on this value for anything but (periodic) metals
  | Electronic free energy per atom                       :       -7871.26887317 eV

  Self-consistency convergence accuracy:
  | Change of charge density      :  0.4452E-06
  | Change of sum of eigenvalues  :  0.1628E-03 eV
  | Change of total energy        : -0.1365E-07 eV

  Preliminary charge convergence reached. Turning off preconditioner.

  Writing Kohn-Sham eigenvalues.
  K-point:       1 at    0.000000    0.000000    0.000000 (in units of recip. lattice)

  State    Occupation    Eigenvalue [Ha]    Eigenvalue [eV]
      1       2.00000         -65.537857        -1783.37583
      2       2.00000          -5.125458         -139.47080
      3       2.00000          -3.540369          -96.33833
      4       2.00000          -3.540369          -96.33833
      5       2.00000          -3.540369          -96.33833
      6       2.00000          -0.470512          -12.80327
      7       0.00000          -0.067560           -1.83841
      8       0.00000          -0.067560           -1.83841
      9       0.00000          -0.067560           -1.83841
     10       0.00000           0.105158            2.86149

  What follows are estimated values for band gap, HOMO, LUMO, etc.
  | They are estimated on a discrete k-point grid and not necessarily exact.
  | For converged numbers, create a DOS and/or band structure plot on a denser k-grid.

  Highest occupied state (VBM) at     -4.86469873 eV (relative to internal zero)
  | Occupation number:      1.24129345
  | K-point:     662 at    0.500000    0.416667    0.500000 (in units of recip. lattice)

  Lowest unoccupied state (CBM) at    -4.83946738 eV (relative to internal zero)
  | Occupation number:      0.68439688
  | K-point:     496 at    0.333333    0.833333    0.833333 (in units of recip. lattice)

  ESTIMATED overall HOMO-LUMO gap:      0.02523135 eV between HOMO at k-point 662 and LUMO at k-point 496
  | This appears to be an indirect band gap.
  | Smallest direct gap :      0.06816443 eV for k_point 662 at    0.333333    0.833333    0.833333 (in units of recip. lattice)
  However, this system has fractional occupation numbers. Since we use a finite k-point grid,
  this material is metallic within the approximate finite broadening function (occupation_type)
  applied to determine the occupation numbers.

  Self-consistency cycle converged.

  End self-consistency iteration #    11       :  max(cpu_time)    wall_clock(cpu1)
  | Time for this iteration                    :        0.536 s           0.536 s
  | Charge density update                      :        0.152 s           0.153 s
  | Density mixing                             :        0.017 s           0.017 s
  | Hartree multipole update                   :        0.000 s           0.000 s
  | Hartree multipole summation                :        0.167 s           0.167 s
  | Integration                                :        0.093 s           0.092 s
  | Solution of K.-S. eqns.                    :        0.106 s           0.107 s
  | Total energy evaluation                    :        0.000 s           0.000 s

  Partial memory accounting:
  | Current value for overall tracked memory usage on task 0  :           2.649 MB
  | Peak value for overall tracked memory usage on task 0     :           3.711 MB after allocating wave
  | Largest tracked array allocation on task 0 so far         :           2.500 MB  when allocating +KS_eigenvector_complex
  Note:  These values currently only include a subset of arrays which are explicitly tracked.
  The "true" memory usage will be greater.
------------------------------------------------------------

  Energy and forces in a compact form:
  | Total energy uncorrected      :         -0.787126695801457E+04 eV
  | Total energy corrected        :         -0.787126791559043E+04 eV  <-- do not rely on this value for anything but (periodic) metals
  | Electronic free energy        :         -0.787126887316630E+04 eV

  ------------------------------------ 
  Start decomposition of the XC Energy 
  ------------------------------------ 
  X and C from original XC functional choice 
  Hartree-Fock Energy :          0.000000000 Ha              0.000000000 eV
  X Energy            :        -18.568576211 Ha           -505.276666882 eV
  C Energy            :         -1.054544208 Ha            -28.695607913 eV
  Total XC Energy     :        -19.623120418 Ha           -533.972274794 eV
  ------------------------------------ 
  LDA X and C from self-consistent density 
  X Energy LDA        :        -18.568576211 Ha           -505.276666882 eV
  C Energy LDA        :         -1.054544208 Ha            -28.695607913 eV
  ------------------------------------ 
  End decomposition of the XC Energy 
  ------------------------------------ 

------------------------------------------------------------

------------------------------------------------------------------------------
  Final output of selected total energy values:

  The following output summarizes some interesting total energy values
  at the end of a run (AFTER all relaxation, molecular dynamics, etc.).

  | Total energy of the DFT / Hartree-Fock s.c.f. calculation      :          -7871.266958015 eV
  | Final zero-broadening corrected energy (caution - metals only) :          -7871.267915590 eV
  | For reference only, the value of 1 Hartree used in FHI-aims is :             27.211384500 eV

  Before relying on these values, please be sure to understand exactly which
  total energy value is referred to by a given number. Different objects may
  all carry the same name 'total energy'. Definitions:

  Total energy of the DFT / Hartree-Fock s.c.f. calculation:
  | Note that this energy does not include ANY quantities calculated after the
  | s.c.f. cycle, in particular not ANY RPA, MP2, etc. many-body perturbation terms.

  Final zero-broadening corrected energy:
  | For metallic systems only, a broadening of the occupation numbers at the Fermi
  | level can be extrapolated back to zero broadening by an electron-gas inspired
  | formula. For all systems that are not real metals, this value can be
  | meaningless and should be avoided.

------------------------------------------------------------------------------
  Methods described in the following list of references were used in this FHI-aims run.
  If you publish the results, please make sure to cite these reference if they apply.
  FHI-aims is an academic code, and for our developers (often, Ph.D. students
  and postdocs), scientific credit in the community is essential.
  Thank you for helping us!

  For any use of FHI-aims, please cite:

    Volker Blum, Ralf Gehrke, Felix Hanke, Paula Havu, Ville Havu,
    Xinguo Ren, Karsten Reuter, and Matthias Scheffler
    'Ab initio molecular simulations with numeric atom-centered orbitals'
    Computer Physics Communications 180, 2175-2196 (2009)
    http://dx.doi.org/10.1016/j.cpc.2009.06.022


  For the real-space grid partitioning and parallelization used in this calculation, please cite:

    Ville Havu, Volker Blum, Paula Havu, and Matthias Scheffler,
    'Efficient O(N) integration for all-electron electronic structure calculation'
    'using numerically tabulated basis functions'
    Journal of Computational Physics 228, 8367-8379 (2009).
    http://dx.doi.org/10.1016/j.jcp.2009.08.008

  Of course, there are many other important community references, e.g., those cited in the
  above references. Our list is limited to references that describe implementations in the
  FHI-aims code. The reason is purely practical (length of this list) - please credit others as well.

------------------------------------------------------------
          Leaving FHI-aims.
          Date     :  20190514, Time     :  123551.748

          Computational steps:
          | Number of self-consistency cycles          :           11
          | Number of SCF (re)initializations          :            1

          Detailed time accounting                     :  max(cpu_time)    wall_clock(cpu1)
          | Total time                                 :        6.472 s           6.473 s
          | Preparation time                           :        0.100 s           0.100 s
          | Boundary condition initalization           :        0.035 s           0.035 s
          | Grid partitioning                          :        0.011 s           0.010 s
          | Preloading free-atom quantities on grid    :        0.001 s           0.001 s
          | Free-atom superposition energy             :        0.008 s           0.008 s
          | Total time for integrations                :        1.181 s           1.180 s
          | Total time for solution of K.-S. equations :        1.438 s           1.439 s
          | Total time for density update              :        1.674 s           1.674 s
          | Total time for mixing & preconditioning    :        0.192 s           0.192 s
          | Total time for Hartree multipole update    :        0.004 s           0.005 s
          | Total time for Hartree multipole sum       :        1.789 s           1.790 s
          | Total time for total energy evaluation     :        0.002 s           0.002 s
          | Total time for scaled ZORA corrections     :        0.000 s           0.000 s

 This is a stub MPI_ALLREDUCE call.
 You should not be here. Check your
 setting on the use_mpi variable, or
 link against true MPI-libraries.
