------------------------------------------------------------
          Invoking FHI-aims ...
          Version 171221_1
          Compiled on 2019/05/06 at 14:26:40 on host ffph0xx.

          When using FHI-aims, please cite the following reference:

          Volker Blum, Ralf Gehrke, Felix Hanke, Paula Havu,
          Ville Havu, Xinguo Ren, Karsten Reuter, and Matthias Scheffler,
          'Ab Initio Molecular Simulations with Numeric Atom-Centered Orbitals',
          Computer Physics Communications 180, 2175-2196 (2009)

          For any questions about FHI-aims, please visit the aimsclub website
          with its forums and wiki. Contributions to both the forums and the
          wiki are warmly encouraged - they are for you, and everyone is welcome there.

------------------------------------------------------------



  Date     :  20190514, Time     :  105018.046
  Time zero on CPU 1             :   0.605000000000000E-03  s.
  Internal wall clock time zero  :           327063018.046  s.

  FHI-aims created a unique identifier for this run for later identification
  aims_uuid : 7FC4F230-3FC0-4E3C-AAF6-D26EB3067F7A


  Performing system and environment tests:
  *** Environment variable OMP_NUM_THREADS is not set
  *** For performance reasons you might want to set it to 1
  | Stacksize not measured: no C compiler

  Obtaining array dimensions for all initial allocations:
  
  -----------------------------------------------------------------------
  Parsing control.in (first pass over file, find array dimensions only).
  The contents of control.in will be repeated verbatim below
  unless switched off by setting 'verbatim_writeout .false.' .
  in the first line of control.in .
  -----------------------------------------------------------------------
  
  #--- method ---
  xc pw-lda
  spin none
  relativistic atomic_zora scalar
  #---
  
  #--- k-grid settings ---
  k_grid 12 12 12
  #---
  
  
  
  
  
  
  
  
  
  
  
  #-------------------------------------------------------------------------------
  #--- Species defaults for Si
  #-------------------------------------------------------------------------------
  
  ################################################################################
  #
  #  FHI-aims code project
  #  VB, Fritz-Haber Institut, 2009
  #
  #  Suggested "light" defaults for Si atom (to be pasted into control.in file)
  #  Be sure to double-check any results obtained with these settings for post-processing,
  #  e.g., with the "tight" defaults and larger basis sets.
  #
  ################################################################################
    species        Si
  #     global species definitions
      nucleus             14
      mass                28.0855
  #
      l_hartree           4
  #
      cut_pot             3.5          1.5  1.0
      basis_dep_cutoff    1e-4
  #
      radial_base         42 5.0
      radial_multiplier   1
      angular_grids       specified
        division   0.5866   50
        division   0.9616  110
        division   1.2249  194
        division   1.3795  302
  #      division   1.4810  434
  #      division   1.5529  590
  #      division   1.6284  770
  #      division   1.7077  974
  #      division   2.4068 1202
  #      outer_grid   974
        outer_grid 302
  ################################################################################
  #
  #  Definition of "minimal" basis
  #
  ################################################################################
  #     valence basis states
      valence      3  s   2.
      valence      3  p   2.
  #     ion occupancy
      ion_occ      3  s   1.
      ion_occ      3  p   1.
  ################################################################################
  #
  #  Suggested additional basis functions. For production calculations,
  #  uncomment them one after another (the most important basis functions are
  #  listed first).
  #
  #  Constructed for dimers: 1.75 A, 2.0 A, 2.25 A, 2.75 A, 3.75 A
  #
  ################################################################################
  #  "First tier" - improvements: -571.96 meV to -37.03 meV
       hydro 3 d 4.2
       hydro 2 p 1.4
  #     hydro 4 f 6.2
       ionic 3 s auto
  #  "Second tier" - improvements: -16.76 meV to -3.03 meV
  #     hydro 3 d 9
  #     hydro 5 g 9.4
  #     hydro 4 p 4
  #     hydro 1 s 0.65
  #  "Third tier" - improvements: -3.89 meV to -0.60 meV
  #     ionic 3 d auto
  #     hydro 3 s 2.6
  #     hydro 4 f 8.4
  #     hydro 3 d 3.4
  #     hydro 3 p 7.8
  #  "Fourth tier" - improvements: -0.33 meV to -0.11 meV
  #     hydro 2 p 1.6
  #     hydro 5 g 10.8
  #     hydro 5 f 11.2
  #     hydro 3 d 1
  #     hydro 4 s 4.5
  #  Further basis functions that fell out of the optimization - noise
  #  level... < -0.08 meV
  #     hydro 4 d 6.6
  #     hydro 5 g 16.4
  #     hydro 4 d 9
  
  -----------------------------------------------------------------------
  Completed first pass over input file control.in .
  -----------------------------------------------------------------------
  
  
  -----------------------------------------------------------------------
  Parsing geometry.in (first pass over file, find array dimensions only).
  The contents of geometry.in will be repeated verbatim below
  unless switched off by setting 'verbatim_writeout .false.' .
  in the first line of geometry.in .
  -----------------------------------------------------------------------
  
  lattice_vector  -2.800000   2.800000   2.800000
  lattice_vector   2.800000  -2.800000   2.800000
  lattice_vector   2.800000   2.800000  -2.800000
  atom_frac   0.000000   0.000000   0.000000 Si
  
  -----------------------------------------------------------------------
  Completed first pass over input file geometry.in .
  -----------------------------------------------------------------------
  

  Basic array size parameters:
  | Number of species                 :        1
  | Number of atoms                   :        1
  | Number of lattice vectors         :        3
  | Max. basis fn. angular momentum   :        2
  | Max. atomic/ionic basis occupied n:        3
  | Max. number of basis fn. types    :        3
  | Max. radial fns per species/type  :        5
  | Max. logarithmic grid size        :     1346
  | Max. radial integration grid size :       42
  | Max. angular integration grid size:      302
  | Max. angular grid division number :        8
  | Radial grid for Hartree potential :     1346
  | Number of spin channels           :        1

------------------------------------------------------------
          Reading file control.in.
------------------------------------------------------------
  XC: Using Perdew-Wang parametrisation of Ceperley-Alder LDA.
  Spin treatment: No spin polarisation.
  Scalar relativistic treatment of kinetic energy: on-site free-atom approximation to ZORA.
  Found k-point grid:        12        12        12

  Reading configuration options for species Si                  .
  | Found nuclear charge :  14.0000
  | Found atomic mass :    28.085500000000000      amu
  | Found l_max for Hartree potential  :   4
  | Found cutoff potl. onset [A], width [A], scale factor :    3.50000    1.50000    1.00000
  | Threshold for basis-dependent cutoff potential is   0.100000E-03
  | Found data for basic radial integration grid :    42 points, outermost radius =    5.000 A
  | Found multiplier for basic radial grid :   1
  | Found angular grid specification: user-specified.
  | Specified grid contains     5 separate shells.
  | Check grid settings after all constraints further below.
  | Found free-atom valence shell :  3 s   2.000
  | Found free-atom valence shell :  3 p   2.000
  | Found free-ion valence shell :  3 s   1.000
  | Found free-ion valence shell :  3 p   1.000
  | Found hydrogenic basis function :  3 d   4.200
  | Found hydrogenic basis function :  2 p   1.400
  | Found ionic basis function :  3 s , default cutoff radius.
  Species Si                  : Missing cutoff potential type.
  Defaulting to exp(1/x)/(1-x)^2 type cutoff potential.
  Species Si: No 'logarithmic' tag. Using default grid for free atom:
  | Default logarithmic grid data [bohr] : 0.1000E-03 0.1000E+03 0.1012E+01
  | Will include ionic basis functions of  2.0-fold positive Si                   ion.
  Species Si: On-site basis accuracy parameter (for Gram-Schmidt orthonormalisation) not specified.
  Using default value basis_acc =  0.1000000E-03.
  Species Si                  : Using default innermost maximum threshold i_radial=  2 for radial functions.
  Species Si                  : Default cutoff onset for free atom density etc. : 0.35000000E+01 AA.
  Species Si                  : Basic radial grid will be enhanced according to radial_multiplier =   1, to contain    42 grid points.

  Finished reading input file 'control.in'. Consistency checks are next.

  MPI_IN_PLACE appears to work with this MPI implementation.
  | Keeping use_mpi_in_place .true. (see manual).
  Target number of points in a grid batch is not set. Defaulting to  100
  Method for grid partitioning is not set. Defaulting to 'maxmin' partitioning.
  Batch size limit is not set. Defaulting to    200
  By default, will store active basis functions for each batch.
  If in need of memory, prune_basis_once .false. can be used to disable this option.
  communication_type for Hartree potential was not specified.
  Defaulting to calc_hartree .
 * Attention: 
 * You may want to set distributed_spline_storage to .true. in order to save memory.
 * This doesn't harm performance and is perfectly ok unless:
 * - you get error messages in postprocessing (about missing atoms in get_rho_multipole_spl)
 * - you need full spline storage in hirshfeld_analysis
  Defaulting to Pulay charge density mixer.
  Pulay mixer: Number of relevant iterations not set.
  Defaulting to    8 iterations.
  Pulay mixer: Number of initial linear mixing iterations not set.
  Defaulting to    0 iterations.
  Work space size for distributed Hartree potential not set.
  Defaulting to   0.200000E+03 MB.
  Mixing parameter for charge density mixing has not been set.
  Using default: charge_mix_param =     0.0500.
  The mixing parameter will be adjusted in iteration number     2 of the first full s.c.f. cycle only.
  Algorithm-dependent basis array size parameters:
  | n_max_pulay                         :        8
 * Notice: The s.c.f. convergence criterion sc_accuracy_rho was not provided.
 * We used to stop in this case, and ask the user to provide reasonable
 * scf convergence criteria. However, this led some users to employ criteria
 * that led to extremely long run times, e.g., for simple relaxation.
 * We now preset a default value for sc_accuracy_rho if it is not set.
 * You may still wish to check if this setting is too tight or too loose for your needs.
 * Based on n_atoms, FHI-aims chose sc_accuracy_rho =  0.100000E-05 .
  Maximum number of self-consistency iterations not provided.
  Presetting  1000 iterations.
  Presetting      1001 iterations before the initial mixing cycle
  is restarted anyway using the sc_init_iter criterion / keyword.
  Presetting a factor      1.000 between actual scf density residual
  and density convergence criterion sc_accuracy_rho below which sc_init_iter
  takes no effect.
 * No s.c.f. convergence criteria (sc_accuracy_*) were provided in control.in.
 * The run will proceed with a reasonable default guess, but please check whether.
 * the s.c.f. cycles seem to take too much or too little time.
  Calculation of forces was not defined in control.in. No forces will be calculated.
  Geometry relaxation not requested: no relaxation will be performed.
  No accuracy limit for integral partition fn. given. Defaulting to  0.1000E-14.
  No threshold value for u(r) in integrations given. Defaulting to  0.1000E-05.
  No occupation type (smearing scheme) given. Defaulting to Gaussian broadening, width =  0.1000E-01 eV.
  The width will be adjusted in iteration number     2 of the first full s.c.f. cycle only.
  S.C.F. convergence parameters will be adjusted in iteration number     2 of the first full s.c.f. cycle only.
  No accuracy for occupation numbers given. Defaulting to  0.1000E-12.
  No threshold value for occupation numbers given. Defaulting to  0.0000E+00.
  No accuracy for fermi level given. Defaulting to  0.1000E-19.
  Maximum # of iterations to find E_F not set. Defaulting to  200.
  Preferred method for the eigenvalue solver ('KS_method') not specified in 'control.in'.
  Defaulting to serial version, 'lapack_fast'.
  Will not use alltoall communication since running on < 1024 CPUs.
  Threshold for basis singularities not set.
  Default threshold for basis singularities:  0.1000E-04
  partition_type (choice of integration weights) for integrals was not specified.
  | Using a version of the partition function of Stratmann and coworkers ('stratmann_smoother').
  | At each grid point, the set of atoms used to build the partition table is smoothly restricted to
  | only those atoms whose free-atom density would be non-zero at that grid point.
  Partitioning for Hartree potential was not defined. Using partition_type for integrals.
  | Adjusted default value of keyword multip_moments_threshold to:       0.10000000E-11
  | This value may affect high angular momentum components of the Hartree potential in periodic systems.
  Angular momentum expansion for Kerker preconditioner not set explicitly.
  | Using default value of   0
  No explicit requirement for turning off preconditioner.
  | By default, it will be turned off when the charge convergence reaches
  | sc_accuracy_rho  =   0.100000E-05
  No special mixing parameter while Kerker preconditioner is on.
  Using default: charge_mix_param =     0.0500.
  No q(lm)/r^(l+1) cutoff set for long-range Hartree potential.
  | Using default value of  0.100000E-09 .
  | Verify using the multipole_threshold keyword.
  Defaulting to new monopole extrapolation.
  Density update method: automatic selection selected.
  Using density matrix based charge density update.
  Using density matrix based charge density update.
  Using packed matrix style: index .
  Defaulting to use time-reversal symmetry for k-point grid.
------------------------------------------------------------


------------------------------------------------------------
          Reading geometry description geometry.in.
------------------------------------------------------------
  Input structure read successfully.
  The structure contains        1 atoms,  and a total of         14.000 electrons.

  Input geometry:
  | Unit cell:
  |       -2.80000000        2.80000000        2.80000000
  |        2.80000000       -2.80000000        2.80000000
  |        2.80000000        2.80000000       -2.80000000
  | Atomic structure:
  |       Atom                x [A]            y [A]            z [A]
  |    1: Species Si            0.00000000        0.00000000        0.00000000

  Lattice parameters for 3D lattice (in Angstroms) :     4.849742    4.849742    4.849742
  Angle(s) between unit vectors (in degrees)      :   109.471221  109.471221  109.471221

  |

  | The smallest distance between any two atoms is         4.84974226 AA.
  |
  | The first atom of this pair is atom number                      1 .
  | The second atom of this pair is atom number                     1 .
  | Wigner-Seitz cell of the first atom image           0     0     1 .
  | (The Wigner-Seitz cell of the second atom is 0 0 0  by definition.)

  Quantities derived from the lattice vectors:
  | Reciprocal lattice vector 1: -0.000000  1.121997  1.121997
  | Reciprocal lattice vector 2:  1.121997 -0.000000  1.121997
  | Reciprocal lattice vector 3:  1.121997  1.121997 -0.000000
  | Unit cell volume                               :   0.878080E+02  A^3

  Range separation radius for Ewald summation (hartree_convergence_parameter):      5.00000000 bohr.

  Fractional coordinates:
                         L1                L2                L3
       atom_frac         0.00000000        0.00000000        0.00000000  Si

  Number of empty states per atom not set in control.in - providing a guess from actual geometry.
  | Total number of empty states used during s.c.f. cycle:        3
  If you use a very high smearing, use empty_states (per atom!) in control.in to increase this value.

  Structure-dependent array size parameters: 
  | Maximum number of distinct radial functions  :        8
  | Maximum number of basis functions            :       18
  | Number of Kohn-Sham states (occupied + empty):       10
------------------------------------------------------------

------------------------------------------------------------
          Preparing all fixed parts of the calculation.
------------------------------------------------------------
  Determining machine precision:
     2.2250738585072014E-308
  Setting up grids for atomic and cluster calculations.

  Creating wave function, potential, and density for free atoms.

  Species: Si

  List of occupied orbitals and eigenvalues:
    n    l              occ      energy [Ha]    energy [eV]
    1    0           2.0000       -65.491668     -1782.1190
    2    0           2.0000        -5.087967      -138.4506
    3    0           2.0000        -0.391471       -10.6525
    2    1           6.0000        -3.502246       -95.3010
    3    1           2.0000        -0.143943        -3.9169

  Creating fixed part of basis set: Ionic, confined, hydrogenic.

  Si                   ion:

  List of free ionic orbitals and eigenvalues:
    n    l      energy [Ha]    energy [eV]
    1    0       -66.364436     -1805.8682
    2    0        -5.935799      -161.5213
    3    0        -1.078166       -29.3384
    2    1        -4.351123      -118.4001
    3    1        -0.781733       -21.2720


  List of ionic basis orbitals and eigenvalues:
    n    l      energy [Ha]    energy [eV]    outer radius [A]
    3    0        -1.078146       -29.3378       4.214062


  Si                   hydrogenic:

  List of hydrogenic basis orbitals: 
    n    l      effective z      eigenvalue [eV]  inner max. [A]     outer max. [A]     outer radius [A]   
    3    2         4.200000       -26.6624           1.139231           1.139231           4.534782
    2    1         1.400000        -6.4613           1.472672           1.472672           4.590560


  Adding cutoff potential to free-atom effective potential.
  Creating atomic-like basis functions for current effective potential.

  Species Si                  :

  List of atomic basis orbitals and eigenvalues:
    n    l      energy [Ha]    energy [eV]    outer radius [A]
    1    0       -65.491668     -1782.1190       0.789468
    2    0        -5.087967      -138.4506       2.815114
    3    0        -0.391471       -10.6525       4.534782
    2    1        -3.502246       -95.3010       3.259919
    3    1        -0.143943        -3.9169       4.590560

  Assembling full basis from fixed parts.
  | Species Si :   atomic orbital   1 s accepted.
  | Species Si :   atomic orbital   2 s accepted.
  | Species Si :    ionic orbital   3 s accepted.
  | Species Si :   atomic orbital   3 s accepted.
  | Species Si :   atomic orbital   2 p accepted.
  | Species Si :   atomic orbital   3 p accepted.
  | Species Si :    hydro orbital   2 p accepted.
  | Species Si :    hydro orbital   3 d accepted.

  Basis size parameters after reduction:
  | Total number of radial functions:        8
  | Total number of basis functions :       18

  Per-task memory consumption for arrays in subroutine allocate_ext:
  |           2.757468MB.
  Testing on-site integration grid accuracy.
  |  Species  Function  <phi|h_atom|phi> (log., in eV)  <phi|h_atom|phi> (rad., in eV)
           1        1              -1782.1189727076              -1782.1182429251
           1        2               -138.4506350693               -138.4506310079
           1        3                -10.3030408815                -10.3029120678
           1        4                  5.0238999146                  4.9457540310 ***
           1        5                -95.3009689499                -95.3009689315
           1        6                 -3.9266496564                 -3.9420918374
           1        7                  6.3453628447                  6.1632372158 ***
           1        8                  6.2883050744                  6.2861881409
 * Note: Onsite integrals marked "***" above are less accurate than
 * onsite_accuracy_threshold =    0.03000 eV. Usually, this is harmless.
 * When in doubt, tighten the "radial" and/or "radial_multiplier" flags to check.

  Preparing densities etc. for the partition functions (integrals / Hartree potential).

  Preparations completed.
  max(cpu_time)          :      0.111 s.
  Wall clock time (cpu1) :      0.112 s.
------------------------------------------------------------

------------------------------------------------------------
          Begin self-consistency loop: Initialization.

          Date     :  20190514, Time     :  105018.159
------------------------------------------------------------

  Initializing index lists of integration centers etc. from given atomic structure:
  Mapping all atomic coordinates to central unit cell.

  Initializing the k-points
          Using symmetry for reducing the k-points
  | k-points reduced from:     1728 to      868
  | Number of k-points                             :       868
  The eigenvectors in the calculations are COMPLEX.
  | K-points in task   0:       868
  | Number of basis functions in the Hamiltonian integrals :       406
  | Number of basis functions in a single unit cell        :        18
  | Number of centers in hartree potential         :       259
  | Number of centers in hartree multipole         :        59
  | Number of centers in electron density summation:        51
  | Number of centers in basis integrals           :        59
  | Number of centers in integrals                 :        27
  | Number of centers in hamiltonian               :        51
  | Consuming        705 KiB for k_phase.
  | Number of super-cells (origin) [n_cells]                     :        1331
  | Number of super-cells (after PM_index) [n_cells]             :          52
  | Number of super-cells in hamiltonian [n_cells_in_hamiltonian]:          52
  | Size of matrix packed + index [n_hamiltonian_matrix_size] :        5886
  Partitioning the integration grid into batches with maxmin method.
  | Maximal weight for a single point:     1.000
  | Minimal weight for a single point:     0.170
  | Number of batches:       64
  | Maximal batch size:      90
  | Minimal batch size:      85
  | Average batch size:      87.562
  | Standard deviation of batch sizes:       1.499
  Initializing partition tables, free-atom densities, potentials, etc. across the integration grid (initialize_grid_storage).
  | initialize_grid_storage: Actual outermost partition radius vs. multipole_radius_free
  | (-- VB: in principle, multipole_radius_free should be larger, hence this output)
  | Species        1: Confinement radius =              4.999999999999999 AA, multipole_radius_free =              5.000694715736543 AA.
  | Species        1: outer_partition_radius set to              5.000694715736543 AA .
  | Original list of interatomic distances with          59 x         59 entries is created.
  | Net number of integration points:     5604
  | of which are non-zero points    :     5518
  | Numerical average free-atom electrostatic potential    :     -2.99567894 eV
  Renormalizing the initial density to the exact electron count on the 3D integration grid.
  | Initial density: Formal number of electrons (from input files) :      14.0000000000
  | Integrated number of electrons on 3D grid     :      13.9994150307
  | Charge integration error                      :      -0.0005849693
  | Normalization factor for density and gradient :       1.0000417853
  Obtaining max. number of non-zero basis functions in each batch (get_n_compute_maxes).
  | Maximal number of non-zero basis functions:      145 in task     0
  Allocating        2.500 MB for KS_eigenvector_complex
  Integrating Hamiltonian matrix: batch-based integration.
  Time summed over all CPUs for integration: real work        0.035 s, elapsed        0.035 s
  Integrating overlap matrix.
  Time summed over all CPUs for integration: real work        0.023 s, elapsed        0.023 s
  Decreasing sparse matrix size:
   Tolerance:   9.9999998245167004E-014
   Hamiltonian matrix
  | Array has     2519 nonzero elements out of     5886 elements
  | Sparsity factor is 0.572
   Overlap matrix
  | Array has     2215 nonzero elements out of     5886 elements
  | Sparsity factor is 0.624
  New size of hamiltonian matrix:        2658

  Updating Kohn-Sham eigenvalues, eigenvectors, occupation numbers, and Fermi level.
  Solving generalized eigenproblem
  Transforming overlap matrix and checking for singularities.
  Overlap matrix is nonsingular at first k-point:
  | Lowest eigenvalue:  0.317615E+00

  Obtaining occupation numbers and chemical potential using ELSI.
  | Chemical potential (Fermi level):    -4.22262192eV
  Writing Kohn-Sham eigenvalues.
  K-point:       1 at    0.000000    0.000000    0.000000 (in units of recip. lattice)

  State    Occupation    Eigenvalue [Ha]    Eigenvalue [eV]
      1       2.00000         -65.491741        -1782.12095
      2       2.00000          -5.087990         -138.45125
      3       2.00000          -3.502269          -95.30160
      4       2.00000          -3.502269          -95.30160
      5       2.00000          -3.502269          -95.30160
      6       2.00000          -0.404608          -11.00993
      7       0.00000          -0.117951           -3.20962
      8       0.00000          -0.117951           -3.20962
      9       0.00000          -0.117951           -3.20962
     10       0.00000           0.047168            1.28351

  What follows are estimated values for band gap, HOMO, LUMO, etc.
  | They are estimated on a discrete k-point grid and not necessarily exact.
  | For converged numbers, create a DOS and/or band structure plot on a denser k-grid.

  Highest occupied state (VBM) at     -4.22933484 eV (relative to internal zero)
  | Occupation number:      1.65755689
  | K-point:     705 at    0.583333    0.416667    0.583333 (in units of recip. lattice)

  Lowest unoccupied state (CBM) at    -4.22131190 eV (relative to internal zero)
  | Occupation number:      0.85302051
  | K-point:     312 at    0.250000    0.166667    0.333333 (in units of recip. lattice)

  ESTIMATED overall HOMO-LUMO gap:      0.00802294 eV between HOMO at k-point 705 and LUMO at k-point 312
  | This appears to be an indirect band gap.
  | Smallest direct gap :      0.19781353 eV for k_point 708 at    0.250000    0.166667    0.333333 (in units of recip. lattice)
  However, this system has fractional occupation numbers. Since we use a finite k-point grid,
  this material is metallic within the approximate finite broadening function (occupation_type)
  applied to determine the occupation numbers.
  Calculating total energy contributions from superposition of free atom densities.

  Total energy components:
  | Sum of eigenvalues            :        -163.29702892 Ha       -4443.53824152 eV
  | XC energy correction          :         -19.62570974 Ha        -534.04273382 eV
  | XC potential correction       :          25.93096735 Ha         705.61752297 eV
  | Free-atom electrostatic energy:        -132.20687133 Ha       -3597.53200943 eV
  | Hartree energy correction     :          -0.00000000 Ha          -0.00000000 eV
  | Entropy correction            :          -0.00000278 Ha          -0.00007564 eV
  | ---------------------------
  | Total energy                  :        -289.19864264 Ha       -7869.49546180 eV
  | Total energy, T -> 0          :        -289.19864542 Ha       -7869.49553744 eV  <-- do not rely on this value for anything but (periodic) metals
  | Electronic free energy        :        -289.19864820 Ha       -7869.49561309 eV

  Derived energy quantities:
  | Kinetic energy                :         289.56879714 Ha        7879.56787819 eV
  | Electrostatic energy          :        -559.14173004 Ha      -15215.02060617 eV
  | Energy correction for multipole
  | error in Hartree potential    :           0.00000000 Ha           0.00000000 eV
  | Sum of eigenvalues per atom                           :       -4443.53824152 eV
  | Total energy (T->0) per atom                          :       -7869.49553744 eV  <-- do not rely on this value for anything but (periodic) metals
  | Electronic free energy per atom                       :       -7869.49561309 eV
  Initialize hartree_potential_storage
  Max. number of atoms included in rho_multipole:            1

  End scf initialization - timings             :  max(cpu_time)    wall_clock(cpu1)
  | Time for scf. initialization               :        0.344 s           0.344 s
  | Boundary condition initialization          :        0.039 s           0.039 s
  | Integration                                :        0.057 s           0.058 s
  | Solution of K.-S. eqns.                    :        0.216 s           0.216 s
  | Grid partitioning                          :        0.009 s           0.009 s
  | Preloading free-atom quantities on grid    :        0.001 s           0.001 s
  | Free-atom superposition energy             :        0.007 s           0.008 s
  | Total energy evaluation                    :        0.000 s           0.000 s

  Partial memory accounting:
  | Current value for overall tracked memory usage on task 0  :           2.553 MB
  | Peak value for overall tracked memory usage on task 0     :           3.099 MB after allocating wave
  | Largest tracked array allocation on task 0 so far         :           2.500 MB  when allocating +KS_eigenvector_complex
  Note:  These values currently only include a subset of arrays which are explicitly tracked.
  The "true" memory usage will be greater.
------------------------------------------------------------

------------------------------------------------------------
          Begin self-consistency iteration #    1

  Date     :  20190514, Time     :  105018.503
------------------------------------------------------------
  Evaluating new KS density using the density matrix
  Evaluating density matrix
  Time summed over all CPUs for getting density from density matrix: real work        0.055 s, elapsed        0.055 s
  Integration grid: deviation in total charge (<rho> - N_e) =  -1.971756E-13
  Pulay mixing of updated and previous charge densities.

  Evaluating partitioned Hartree potential by multipole expansion.
  | Analytical far-field extrapolation by fixed multipoles:
  | Hartree multipole sum: apparent total charge =  -0.774829E-03
  Summing up the Hartree potential.
  | Estimated reciprocal-space cutoff momentum G_max:         1.84432723 bohr^-1 .
  | Reciprocal lattice points for long-range Hartree potential:      54
  Time summed over all CPUs for potential: real work        0.067 s, elapsed        0.067 s
  | RMS charge density error from multipole expansion :   0.350873E-04
  | Average real-space part of the electrostatic potential :     -0.00875626 eV

  Integrating Hamiltonian matrix: batch-based integration.
  Time summed over all CPUs for integration: real work        0.036 s, elapsed        0.036 s

  Updating Kohn-Sham eigenvalues, eigenvectors, occupation numbers, and Fermi level.
  Solving generalized eigenproblem

  Obtaining occupation numbers and chemical potential using ELSI.
  | Chemical potential (Fermi level):    -4.23671493eV
  Writing Kohn-Sham eigenvalues.
  K-point:       1 at    0.000000    0.000000    0.000000 (in units of recip. lattice)

  State    Occupation    Eigenvalue [Ha]    Eigenvalue [eV]
      1       2.00000         -65.492990        -1782.15494
      2       2.00000          -5.089374         -138.48890
      3       2.00000          -3.503664          -95.33954
      4       2.00000          -3.503664          -95.33954
      5       2.00000          -3.503664          -95.33954
      6       2.00000          -0.405281          -11.02826
      7       0.00000          -0.118555           -3.22605
      8       0.00000          -0.118555           -3.22605
      9       0.00000          -0.118555           -3.22605
     10       0.00000           0.046633            1.26894

  What follows are estimated values for band gap, HOMO, LUMO, etc.
  | They are estimated on a discrete k-point grid and not necessarily exact.
  | For converged numbers, create a DOS and/or band structure plot on a denser k-grid.

  Highest occupied state (VBM) at     -4.24373470 eV (relative to internal zero)
  | Occupation number:      1.67916594
  | K-point:     557 at    0.416667    0.416667    0.583333 (in units of recip. lattice)

  Lowest unoccupied state (CBM) at    -4.23527746 eV (relative to internal zero)
  | Occupation number:      0.83890918
  | K-point:     428 at    0.333333    0.250000    0.250000 (in units of recip. lattice)

  ESTIMATED overall HOMO-LUMO gap:      0.00845724 eV between HOMO at k-point 557 and LUMO at k-point 428
  | This appears to be an indirect band gap.
  | Smallest direct gap :      0.19741376 eV for k_point 654 at    0.333333    0.250000    0.250000 (in units of recip. lattice)
  However, this system has fractional occupation numbers. Since we use a finite k-point grid,
  this material is metallic within the approximate finite broadening function (occupation_type)
  applied to determine the occupation numbers.

  Total energy components:
  | Sum of eigenvalues            :        -163.31307485 Ha       -4443.97487372 eV
  | XC energy correction          :         -19.62353089 Ha        -533.98344429 eV
  | XC potential correction       :          25.92809955 Ha         705.53948615 eV
  | Free-atom electrostatic energy:        -132.20687133 Ha       -3597.53200943 eV
  | Hartree energy correction     :           0.01683202 Ha           0.45802268 eV
  | Entropy correction            :          -0.00000276 Ha          -0.00007522 eV
  | ---------------------------
  | Total energy                  :        -289.19854551 Ha       -7869.49281861 eV
  | Total energy, T -> 0          :        -289.19854827 Ha       -7869.49289382 eV  <-- do not rely on this value for anything but (periodic) metals
  | Electronic free energy        :        -289.19855103 Ha       -7869.49296904 eV

  Derived energy quantities:
  | Kinetic energy                :         289.57150843 Ha        7879.64165611 eV
  | Electrostatic energy          :        -559.14652305 Ha      -15215.15103042 eV
  | Energy correction for multipole
  | error in Hartree potential    :           0.00000139 Ha           0.00003770 eV
  | Sum of eigenvalues per atom                           :       -4443.97487372 eV
  | Total energy (T->0) per atom                          :       -7869.49289382 eV  <-- do not rely on this value for anything but (periodic) metals
  | Electronic free energy per atom                       :       -7869.49296904 eV

  Self-consistency convergence accuracy:
  | Change of charge density      :  0.2874E-01
  | Change of sum of eigenvalues  : -0.4366E+00 eV
  | Change of total energy        :  0.2643E-02 eV

  End self-consistency iteration #     1       :  max(cpu_time)    wall_clock(cpu1)
  | Time for this iteration                    :        0.281 s           0.281 s
  | Charge density update                      :        0.063 s           0.063 s
  | Density mixing & preconditioning           :        0.013 s           0.013 s
  | Hartree multipole update                   :        0.000 s           0.000 s
  | Hartree multipole summation                :        0.069 s           0.069 s
  | Integration                                :        0.035 s           0.036 s
  | Solution of K.-S. eqns.                    :        0.100 s           0.099 s
  | Total energy evaluation                    :        0.000 s           0.001 s

  Partial memory accounting:
  | Current value for overall tracked memory usage on task 0  :           2.553 MB
  | Peak value for overall tracked memory usage on task 0     :           3.099 MB after allocating wave
  | Largest tracked array allocation on task 0 so far         :           2.500 MB  when allocating +KS_eigenvector_complex
  Note:  These values currently only include a subset of arrays which are explicitly tracked.
  The "true" memory usage will be greater.
------------------------------------------------------------

------------------------------------------------------------
          Begin self-consistency iteration #    2

  Date     :  20190514, Time     :  105018.784
------------------------------------------------------------
  Evaluating new KS density using the density matrix
  Evaluating density matrix
  Time summed over all CPUs for getting density from density matrix: real work        0.049 s, elapsed        0.049 s
  Integration grid: deviation in total charge (<rho> - N_e) =  -4.547474E-13
  Pulay mixing of updated and previous charge densities.

  Evaluating partitioned Hartree potential by multipole expansion.
  | Analytical far-field extrapolation by fixed multipoles:
  | Hartree multipole sum: apparent total charge =  -0.457250E-02
  Summing up the Hartree potential.
  Time summed over all CPUs for potential: real work        0.070 s, elapsed        0.070 s
  | RMS charge density error from multipole expansion :   0.727401E-03
  | Average real-space part of the electrostatic potential :     -0.22135026 eV

  Integrating Hamiltonian matrix: batch-based integration.
  Time summed over all CPUs for integration: real work        0.034 s, elapsed        0.034 s

  Updating Kohn-Sham eigenvalues, eigenvectors, occupation numbers, and Fermi level.
  Solving generalized eigenproblem

  Obtaining occupation numbers and chemical potential using ELSI.
  | Chemical potential (Fermi level):    -4.54777580eV
  What follows are estimated values for band gap, HOMO, LUMO, etc.
  | They are estimated on a discrete k-point grid and not necessarily exact.
  | For converged numbers, create a DOS and/or band structure plot on a denser k-grid.

  Highest occupied state (VBM) at     -4.56341758 eV (relative to internal zero)
  | Occupation number:      1.97303907
  | K-point:     575 at    0.416667    0.583333    0.583333 (in units of recip. lattice)

  Lowest unoccupied state (CBM) at    -4.54285022 eV (relative to internal zero)
  | Occupation number:      0.48606484
  | K-point:     311 at    0.250000    0.166667    0.250000 (in units of recip. lattice)

  ESTIMATED overall HOMO-LUMO gap:      0.02056736 eV between HOMO at k-point 575 and LUMO at k-point 311
  | This appears to be an indirect band gap.
  | Smallest direct gap :      0.18633301 eV for k_point 675 at    0.250000    0.166667    0.250000 (in units of recip. lattice)
  However, this system has fractional occupation numbers. Since we use a finite k-point grid,
  this material is metallic within the approximate finite broadening function (occupation_type)
  applied to determine the occupation numbers.

  Checking to see if s.c.f. parameters should be adjusted.
  Adjusted the Pulay mixing parameter (charge_mix_param) for an expected low-gap system. New value:   0.020000 .
  Adjusted the occupation broadening width for an expected low-gap system. New value:      0.05000000 eV.

  Total energy components:
  | Sum of eigenvalues            :        -163.79159289 Ha       -4456.99601197 eV
  | XC energy correction          :         -19.58168350 Ha        -532.84471898 eV
  | XC potential correction       :          25.87301416 Ha         704.04053657 eV
  | Free-atom electrostatic energy:        -132.20687133 Ha       -3597.53200943 eV
  | Hartree energy correction     :           0.50997348 Ha          13.87708448 eV
  | Entropy correction            :          -0.00006899 Ha          -0.00187743 eV
  | ---------------------------
  | Total energy                  :        -289.19716008 Ha       -7869.45511933 eV
  | Total energy, T -> 0          :        -289.19722908 Ha       -7869.45699676 eV  <-- do not rely on this value for anything but (periodic) metals
  | Electronic free energy        :        -289.19729807 Ha       -7869.45887419 eV

  Derived energy quantities:
  | Kinetic energy                :         289.27670062 Ha        7871.61952744 eV
  | Electrostatic energy          :        -558.89217720 Ha      -15208.22992780 eV
  | Energy correction for multipole
  | error in Hartree potential    :           0.00003800 Ha           0.00103391 eV
  | Sum of eigenvalues per atom                           :       -4456.99601197 eV
  | Total energy (T->0) per atom                          :       -7869.45699676 eV  <-- do not rely on this value for anything but (periodic) metals
  | Electronic free energy per atom                       :       -7869.45887419 eV

  Self-consistency convergence accuracy:
  | Change of charge density      :  0.2742E-01
  | Change of sum of eigenvalues  : -0.1302E+02 eV
  | Change of total energy        :  0.3770E-01 eV

  End self-consistency iteration #     2       :  max(cpu_time)    wall_clock(cpu1)
  | Time for this iteration                    :        0.276 s           0.275 s
  | Charge density update                      :        0.057 s           0.057 s
  | Density mixing & preconditioning           :        0.009 s           0.009 s
  | Hartree multipole update                   :        0.001 s           0.002 s
  | Hartree multipole summation                :        0.072 s           0.072 s
  | Integration                                :        0.034 s           0.034 s
  | Solution of K.-S. eqns.                    :        0.101 s           0.101 s
  | Total energy evaluation                    :        0.000 s           0.000 s

  Partial memory accounting:
  | Current value for overall tracked memory usage on task 0  :           2.554 MB
  | Peak value for overall tracked memory usage on task 0     :           3.099 MB after allocating wave
  | Largest tracked array allocation on task 0 so far         :           2.500 MB  when allocating +KS_eigenvector_complex
  Note:  These values currently only include a subset of arrays which are explicitly tracked.
  The "true" memory usage will be greater.
------------------------------------------------------------

------------------------------------------------------------
          Begin self-consistency iteration #    3

  Date     :  20190514, Time     :  105019.059
------------------------------------------------------------
  Evaluating new KS density using the density matrix
  Evaluating density matrix
  Time summed over all CPUs for getting density from density matrix: real work        0.053 s, elapsed        0.053 s
  Integration grid: deviation in total charge (<rho> - N_e) =  -2.238210E-13
  Pulay mixing of updated and previous charge densities.

  Evaluating partitioned Hartree potential by multipole expansion.
  | Analytical far-field extrapolation by fixed multipoles:
  | Hartree multipole sum: apparent total charge =  -0.589608E-02
  Summing up the Hartree potential.
  Time summed over all CPUs for potential: real work        0.080 s, elapsed        0.080 s
  | RMS charge density error from multipole expansion :   0.997154E-03
  | Average real-space part of the electrostatic potential :     -0.30022579 eV

  Integrating Hamiltonian matrix: batch-based integration.
  Time summed over all CPUs for integration: real work        0.037 s, elapsed        0.037 s

  Updating Kohn-Sham eigenvalues, eigenvectors, occupation numbers, and Fermi level.
  Solving generalized eigenproblem

  Obtaining occupation numbers and chemical potential using ELSI.
  | Chemical potential (Fermi level):    -4.67756532eV
  What follows are estimated values for band gap, HOMO, LUMO, etc.
  | They are estimated on a discrete k-point grid and not necessarily exact.
  | For converged numbers, create a DOS and/or band structure plot on a denser k-grid.

  Highest occupied state (VBM) at     -4.68656747 eV (relative to internal zero)
  | Occupation number:      1.20098279
  | K-point:     705 at    0.583333    0.416667    0.583333 (in units of recip. lattice)

  Lowest unoccupied state (CBM) at    -4.66094904 eV (relative to internal zero)
  | Occupation number:      0.63836960
  | K-point:     312 at    0.250000    0.166667    0.333333 (in units of recip. lattice)

  ESTIMATED overall HOMO-LUMO gap:      0.02561844 eV between HOMO at k-point 705 and LUMO at k-point 312
  | This appears to be an indirect band gap.
  | Smallest direct gap :      0.18174661 eV for k_point 567 at    0.250000    0.166667    0.333333 (in units of recip. lattice)
  However, this system has fractional occupation numbers. Since we use a finite k-point grid,
  this material is metallic within the approximate finite broadening function (occupation_type)
  applied to determine the occupation numbers.

  Total energy components:
  | Sum of eigenvalues            :        -163.98654525 Ha       -4462.30093560 eV
  | XC energy correction          :         -19.56488296 Ha        -532.38755298 eV
  | XC potential correction       :          25.85087882 Ha         703.43820336 eV
  | Free-atom electrostatic energy:        -132.20687133 Ha       -3597.53200943 eV
  | Hartree energy correction     :           0.71014323 Ha          19.32398039 eV
  | Entropy correction            :          -0.00006976 Ha          -0.00189833 eV
  | ---------------------------
  | Total energy                  :        -289.19727749 Ha       -7869.45831426 eV
  | Total energy, T -> 0          :        -289.19734726 Ha       -7869.46021259 eV  <-- do not rely on this value for anything but (periodic) metals
  | Electronic free energy        :        -289.19741702 Ha       -7869.46211093 eV

  Derived energy quantities:
  | Kinetic energy                :         289.13860923 Ha        7867.86186960 eV
  | Electrostatic energy          :        -558.77100376 Ha      -15204.93263087 eV
  | Energy correction for multipole
  | error in Hartree potential    :           0.00005160 Ha           0.00140419 eV
  | Sum of eigenvalues per atom                           :       -4462.30093560 eV
  | Total energy (T->0) per atom                          :       -7869.46021259 eV  <-- do not rely on this value for anything but (periodic) metals
  | Electronic free energy per atom                       :       -7869.46211093 eV

  Self-consistency convergence accuracy:
  | Change of charge density      :  0.8449E-02
  | Change of sum of eigenvalues  : -0.5305E+01 eV
  | Change of total energy        : -0.3195E-02 eV

  End self-consistency iteration #     3       :  max(cpu_time)    wall_clock(cpu1)
  | Time for this iteration                    :        0.295 s           0.296 s
  | Charge density update                      :        0.060 s           0.060 s
  | Density mixing & preconditioning           :        0.011 s           0.012 s
  | Hartree multipole update                   :        0.000 s           0.000 s
  | Hartree multipole summation                :        0.082 s           0.082 s
  | Integration                                :        0.037 s           0.037 s
  | Solution of K.-S. eqns.                    :        0.104 s           0.104 s
  | Total energy evaluation                    :        0.000 s           0.000 s

  Partial memory accounting:
  | Current value for overall tracked memory usage on task 0  :           2.555 MB
  | Peak value for overall tracked memory usage on task 0     :           3.099 MB after allocating wave
  | Largest tracked array allocation on task 0 so far         :           2.500 MB  when allocating +KS_eigenvector_complex
  Note:  These values currently only include a subset of arrays which are explicitly tracked.
  The "true" memory usage will be greater.
------------------------------------------------------------

------------------------------------------------------------
          Begin self-consistency iteration #    4

  Date     :  20190514, Time     :  105019.355
------------------------------------------------------------
  Evaluating new KS density using the density matrix
  Evaluating density matrix
  Time summed over all CPUs for getting density from density matrix: real work        0.053 s, elapsed        0.053 s
  Integration grid: deviation in total charge (<rho> - N_e) =  -3.286260E-13
  Pulay mixing of updated and previous charge densities.

  Evaluating partitioned Hartree potential by multipole expansion.
  | Analytical far-field extrapolation by fixed multipoles:
  | Hartree multipole sum: apparent total charge =  -0.622702E-02
  Summing up the Hartree potential.
  Time summed over all CPUs for potential: real work        0.134 s, elapsed        0.134 s
  | RMS charge density error from multipole expansion :   0.917346E-03
  | Average real-space part of the electrostatic potential :     -0.29074269 eV

  Integrating Hamiltonian matrix: batch-based integration.
  Time summed over all CPUs for integration: real work        0.034 s, elapsed        0.034 s

  Updating Kohn-Sham eigenvalues, eigenvectors, occupation numbers, and Fermi level.
  Solving generalized eigenproblem

  Obtaining occupation numbers and chemical potential using ELSI.
  | Chemical potential (Fermi level):    -4.63090845eV
  What follows are estimated values for band gap, HOMO, LUMO, etc.
  | They are estimated on a discrete k-point grid and not necessarily exact.
  | For converged numbers, create a DOS and/or band structure plot on a denser k-grid.

  Highest occupied state (VBM) at     -4.63782734 eV (relative to internal zero)
  | Occupation number:      1.15515159
  | K-point:     705 at    0.583333    0.416667    0.583333 (in units of recip. lattice)

  Lowest unoccupied state (CBM) at    -4.61605873 eV (relative to internal zero)
  | Occupation number:      0.67447557
  | K-point:     321 at    0.250000    0.250000    0.333333 (in units of recip. lattice)

  ESTIMATED overall HOMO-LUMO gap:      0.02176861 eV between HOMO at k-point 705 and LUMO at k-point 321
  | This appears to be an indirect band gap.
  | Smallest direct gap :      0.18436582 eV for k_point 467 at    0.250000    0.250000    0.333333 (in units of recip. lattice)
  However, this system has fractional occupation numbers. Since we use a finite k-point grid,
  this material is metallic within the approximate finite broadening function (occupation_type)
  applied to determine the occupation numbers.

  Total energy components:
  | Sum of eigenvalues            :        -163.84378793 Ha       -4458.41631130 eV
  | XC energy correction          :         -19.57845474 Ha        -532.75685983 eV
  | XC potential correction       :          25.86885500 Ha         703.92736005 eV
  | Free-atom electrostatic energy:        -132.20687133 Ha       -3597.53200943 eV
  | Hartree energy correction     :           0.56313378 Ha          15.32364981 eV
  | Entropy correction            :          -0.00006884 Ha          -0.00187311 eV
  | ---------------------------
  | Total energy                  :        -289.19712522 Ha       -7869.45417071 eV
  | Total energy, T -> 0          :        -289.19719406 Ha       -7869.45604382 eV  <-- do not rely on this value for anything but (periodic) metals
  | Electronic free energy        :        -289.19726289 Ha       -7869.45791692 eV

  Derived energy quantities:
  | Kinetic energy                :         289.34267371 Ha        7873.41474667 eV
  | Electrostatic energy          :        -558.96134420 Ha      -15210.11205755 eV
  | Energy correction for multipole
  | error in Hartree potential    :           0.00007502 Ha           0.00204137 eV
  | Sum of eigenvalues per atom                           :       -4458.41631130 eV
  | Total energy (T->0) per atom                          :       -7869.45604382 eV  <-- do not rely on this value for anything but (periodic) metals
  | Electronic free energy per atom                       :       -7869.45791692 eV

  Self-consistency convergence accuracy:
  | Change of charge density      :  0.1884E-01
  | Change of sum of eigenvalues  :  0.3885E+01 eV
  | Change of total energy        :  0.4144E-02 eV

  End self-consistency iteration #     4       :  max(cpu_time)    wall_clock(cpu1)
  | Time for this iteration                    :        0.339 s           0.339 s
  | Charge density update                      :        0.060 s           0.060 s
  | Density mixing & preconditioning           :        0.012 s           0.012 s
  | Hartree multipole update                   :        0.000 s           0.001 s
  | Hartree multipole summation                :        0.135 s           0.135 s
  | Integration                                :        0.034 s           0.034 s
  | Solution of K.-S. eqns.                    :        0.096 s           0.096 s
  | Total energy evaluation                    :        0.000 s           0.001 s

  Partial memory accounting:
  | Current value for overall tracked memory usage on task 0  :           2.555 MB
  | Peak value for overall tracked memory usage on task 0     :           3.099 MB after allocating wave
  | Largest tracked array allocation on task 0 so far         :           2.500 MB  when allocating +KS_eigenvector_complex
  Note:  These values currently only include a subset of arrays which are explicitly tracked.
  The "true" memory usage will be greater.
------------------------------------------------------------

------------------------------------------------------------
          Begin self-consistency iteration #    5

  Date     :  20190514, Time     :  105019.694
------------------------------------------------------------
  Evaluating new KS density using the density matrix
  Evaluating density matrix
  Time summed over all CPUs for getting density from density matrix: real work        0.049 s, elapsed        0.049 s
  Integration grid: deviation in total charge (<rho> - N_e) =  -2.948752E-13
  Pulay mixing of updated and previous charge densities.

  Evaluating partitioned Hartree potential by multipole expansion.
  | Analytical far-field extrapolation by fixed multipoles:
  | Hartree multipole sum: apparent total charge =  -0.598473E-02
  Summing up the Hartree potential.
  Time summed over all CPUs for potential: real work        0.103 s, elapsed        0.103 s
  | RMS charge density error from multipole expansion :   0.889246E-03
  | Average real-space part of the electrostatic potential :     -0.28203222 eV

  Integrating Hamiltonian matrix: batch-based integration.
  Time summed over all CPUs for integration: real work        0.033 s, elapsed        0.033 s

  Updating Kohn-Sham eigenvalues, eigenvectors, occupation numbers, and Fermi level.
  Solving generalized eigenproblem

  Obtaining occupation numbers and chemical potential using ELSI.
  | Chemical potential (Fermi level):    -4.61847514eV
  What follows are estimated values for band gap, HOMO, LUMO, etc.
  | They are estimated on a discrete k-point grid and not necessarily exact.
  | For converged numbers, create a DOS and/or band structure plot on a denser k-grid.

  Highest occupied state (VBM) at     -4.62516272 eV (relative to internal zero)
  | Occupation number:      1.15002740
  | K-point:     705 at    0.583333    0.416667    0.583333 (in units of recip. lattice)

  Lowest unoccupied state (CBM) at    -4.60386635 eV (relative to internal zero)
  | Occupation number:      0.67946081
  | K-point:     319 at    0.250000    0.250000    0.166667 (in units of recip. lattice)

  ESTIMATED overall HOMO-LUMO gap:      0.02129637 eV between HOMO at k-point 705 and LUMO at k-point 319
  | This appears to be an indirect band gap.
  | Smallest direct gap :      0.18481723 eV for k_point 675 at    0.250000    0.250000    0.166667 (in units of recip. lattice)
  However, this system has fractional occupation numbers. Since we use a finite k-point grid,
  this material is metallic within the approximate finite broadening function (occupation_type)
  applied to determine the occupation numbers.

  Total energy components:
  | Sum of eigenvalues            :        -163.82608835 Ha       -4457.93468117 eV
  | XC energy correction          :         -19.57990414 Ha        -532.79629995 eV
  | XC potential correction       :          25.87076151 Ha         703.97923886 eV
  | Free-atom electrostatic energy:        -132.20687133 Ha       -3597.53200943 eV
  | Hartree energy correction     :           0.54498782 Ha          14.82987313 eV
  | Entropy correction            :          -0.00006873 Ha          -0.00187023 eV
  | ---------------------------
  | Total energy                  :        -289.19711449 Ha       -7869.45387855 eV
  | Total energy, T -> 0          :        -289.19718321 Ha       -7869.45574878 eV  <-- do not rely on this value for anything but (periodic) metals
  | Electronic free energy        :        -289.19725194 Ha       -7869.45761900 eV

  Derived energy quantities:
  | Kinetic energy                :         289.35122595 Ha        7873.64746489 eV
  | Electrostatic energy          :        -558.96843630 Ha      -15210.30504350 eV
  | Energy correction for multipole
  | error in Hartree potential    :           0.00007267 Ha           0.00197744 eV
  | Sum of eigenvalues per atom                           :       -4457.93468117 eV
  | Total energy (T->0) per atom                          :       -7869.45574878 eV  <-- do not rely on this value for anything but (periodic) metals
  | Electronic free energy per atom                       :       -7869.45761900 eV

  Self-consistency convergence accuracy:
  | Change of charge density      :  0.4183E-02
  | Change of sum of eigenvalues  :  0.4816E+00 eV
  | Change of total energy        :  0.2922E-03 eV

  End self-consistency iteration #     5       :  max(cpu_time)    wall_clock(cpu1)
  | Time for this iteration                    :        0.302 s           0.302 s
  | Charge density update                      :        0.054 s           0.054 s
  | Density mixing & preconditioning           :        0.012 s           0.012 s
  | Hartree multipole update                   :        0.000 s           0.001 s
  | Hartree multipole summation                :        0.104 s           0.104 s
  | Integration                                :        0.033 s           0.033 s
  | Solution of K.-S. eqns.                    :        0.097 s           0.098 s
  | Total energy evaluation                    :        0.000 s           0.000 s

  Partial memory accounting:
  | Current value for overall tracked memory usage on task 0  :           2.555 MB
  | Peak value for overall tracked memory usage on task 0     :           3.099 MB after allocating wave
  | Largest tracked array allocation on task 0 so far         :           2.500 MB  when allocating +KS_eigenvector_complex
  Note:  These values currently only include a subset of arrays which are explicitly tracked.
  The "true" memory usage will be greater.
------------------------------------------------------------

------------------------------------------------------------
          Begin self-consistency iteration #    6

  Date     :  20190514, Time     :  105019.996
------------------------------------------------------------
  Evaluating new KS density using the density matrix
  Evaluating density matrix
  Time summed over all CPUs for getting density from density matrix: real work        0.050 s, elapsed        0.050 s
  Integration grid: deviation in total charge (<rho> - N_e) =  -3.215206E-13
  Pulay mixing of updated and previous charge densities.

  Evaluating partitioned Hartree potential by multipole expansion.
  | Analytical far-field extrapolation by fixed multipoles:
  | Hartree multipole sum: apparent total charge =  -0.982273E-03
  Summing up the Hartree potential.
  Time summed over all CPUs for potential: real work        0.109 s, elapsed        0.109 s
  | RMS charge density error from multipole expansion :   0.883861E-03
  | Average real-space part of the electrostatic potential :     -0.29515910 eV

  Integrating Hamiltonian matrix: batch-based integration.
  Time summed over all CPUs for integration: real work        0.046 s, elapsed        0.046 s

  Updating Kohn-Sham eigenvalues, eigenvectors, occupation numbers, and Fermi level.
  Solving generalized eigenproblem

  Obtaining occupation numbers and chemical potential using ELSI.
  | Chemical potential (Fermi level):    -4.61020260eV
  What follows are estimated values for band gap, HOMO, LUMO, etc.
  | They are estimated on a discrete k-point grid and not necessarily exact.
  | For converged numbers, create a DOS and/or band structure plot on a denser k-grid.

  Highest occupied state (VBM) at     -4.61672604 eV (relative to internal zero)
  | Occupation number:      1.14638716
  | K-point:     705 at    0.583333    0.416667    0.583333 (in units of recip. lattice)

  Lowest unoccupied state (CBM) at    -4.59573329 eV (relative to internal zero)
  | Occupation number:      0.68235328
  | K-point:     428 at    0.333333    0.250000    0.250000 (in units of recip. lattice)

  ESTIMATED overall HOMO-LUMO gap:      0.02099275 eV between HOMO at k-point 705 and LUMO at k-point 428
  | This appears to be an indirect band gap.
  | Smallest direct gap :      0.18521975 eV for k_point 664 at    0.333333    0.250000    0.250000 (in units of recip. lattice)
  However, this system has fractional occupation numbers. Since we use a finite k-point grid,
  this material is metallic within the approximate finite broadening function (occupation_type)
  applied to determine the occupation numbers.

  Total energy components:
  | Sum of eigenvalues            :        -163.80367755 Ha       -4457.32485231 eV
  | XC energy correction          :         -19.58058814 Ha        -532.81491270 eV
  | XC potential correction       :          25.87169174 Ha         704.00455172 eV
  | Free-atom electrostatic energy:        -132.20687133 Ha       -3597.53200943 eV
  | Hartree energy correction     :           0.52233648 Ha          14.21349883 eV
  | Entropy correction            :          -0.00006861 Ha          -0.00186702 eV
  | ---------------------------
  | Total energy                  :        -289.19710880 Ha       -7869.45372388 eV
  | Total energy, T -> 0          :        -289.19717741 Ha       -7869.45559090 eV  <-- do not rely on this value for anything but (periodic) metals
  | Electronic free energy        :        -289.19724602 Ha       -7869.45745791 eV

  Derived energy quantities:
  | Kinetic energy                :         289.36842733 Ha        7874.11553835 eV
  | Electrostatic energy          :        -558.98494799 Ha      -15210.75434952 eV
  | Energy correction for multipole
  | error in Hartree potential    :           0.00009576 Ha           0.00260565 eV
  | Sum of eigenvalues per atom                           :       -4457.32485231 eV
  | Total energy (T->0) per atom                          :       -7869.45559090 eV  <-- do not rely on this value for anything but (periodic) metals
  | Electronic free energy per atom                       :       -7869.45745791 eV

  Self-consistency convergence accuracy:
  | Change of charge density      :  0.3239E-02
  | Change of sum of eigenvalues  :  0.6098E+00 eV
  | Change of total energy        :  0.1547E-03 eV

  End self-consistency iteration #     6       :  max(cpu_time)    wall_clock(cpu1)
  | Time for this iteration                    :        0.328 s           0.328 s
  | Charge density update                      :        0.056 s           0.056 s
  | Density mixing & preconditioning           :        0.012 s           0.012 s
  | Hartree multipole update                   :        0.000 s           0.001 s
  | Hartree multipole summation                :        0.111 s           0.111 s
  | Integration                                :        0.046 s           0.046 s
  | Solution of K.-S. eqns.                    :        0.101 s           0.101 s
  | Total energy evaluation                    :        0.000 s           0.001 s

  Partial memory accounting:
  | Current value for overall tracked memory usage on task 0  :           2.555 MB
  | Peak value for overall tracked memory usage on task 0     :           3.099 MB after allocating wave
  | Largest tracked array allocation on task 0 so far         :           2.500 MB  when allocating +KS_eigenvector_complex
  Note:  These values currently only include a subset of arrays which are explicitly tracked.
  The "true" memory usage will be greater.
------------------------------------------------------------

------------------------------------------------------------
          Begin self-consistency iteration #    7

  Date     :  20190514, Time     :  105020.324
------------------------------------------------------------
  Evaluating new KS density using the density matrix
  Evaluating density matrix
  Time summed over all CPUs for getting density from density matrix: real work        0.048 s, elapsed        0.048 s
  Integration grid: deviation in total charge (<rho> - N_e) =  -1.652012E-13
  Pulay mixing of updated and previous charge densities.

  Evaluating partitioned Hartree potential by multipole expansion.
  | Analytical far-field extrapolation by fixed multipoles:
  | Hartree multipole sum: apparent total charge =  -0.103301E-02
  Summing up the Hartree potential.
  Time summed over all CPUs for potential: real work        0.099 s, elapsed        0.099 s
  | RMS charge density error from multipole expansion :   0.884730E-03
  | Average real-space part of the electrostatic potential :     -0.29532611 eV

  Integrating Hamiltonian matrix: batch-based integration.
  Time summed over all CPUs for integration: real work        0.034 s, elapsed        0.034 s

  Updating Kohn-Sham eigenvalues, eigenvectors, occupation numbers, and Fermi level.
  Solving generalized eigenproblem

  Obtaining occupation numbers and chemical potential using ELSI.
  | Chemical potential (Fermi level):    -4.61069079eV
  What follows are estimated values for band gap, HOMO, LUMO, etc.
  | They are estimated on a discrete k-point grid and not necessarily exact.
  | For converged numbers, create a DOS and/or band structure plot on a denser k-grid.

  Highest occupied state (VBM) at     -4.61722404 eV (relative to internal zero)
  | Occupation number:      1.14660497
  | K-point:     705 at    0.583333    0.416667    0.583333 (in units of recip. lattice)

  Lowest unoccupied state (CBM) at    -4.59621170 eV (relative to internal zero)
  | Occupation number:      0.68215031
  | K-point:     428 at    0.333333    0.250000    0.250000 (in units of recip. lattice)

  ESTIMATED overall HOMO-LUMO gap:      0.02101235 eV between HOMO at k-point 705 and LUMO at k-point 428
  | This appears to be an indirect band gap.
  | Smallest direct gap :      0.18520061 eV for k_point 664 at    0.333333    0.250000    0.250000 (in units of recip. lattice)
  However, this system has fractional occupation numbers. Since we use a finite k-point grid,
  this material is metallic within the approximate finite broadening function (occupation_type)
  applied to determine the occupation numbers.

  Total energy components:
  | Sum of eigenvalues            :        -163.80450234 Ha       -4457.34729603 eV
  | XC energy correction          :         -19.58052961 Ha        -532.81331981 eV
  | XC potential correction       :          25.87161442 Ha         704.00244767 eV
  | Free-atom electrostatic energy:        -132.20687133 Ha       -3597.53200943 eV
  | Hartree energy correction     :           0.52317983 Ha          14.23644757 eV
  | Entropy correction            :          -0.00006862 Ha          -0.00186715 eV
  | ---------------------------
  | Total energy                  :        -289.19710903 Ha       -7869.45373002 eV
  | Total energy, T -> 0          :        -289.19717764 Ha       -7869.45559717 eV  <-- do not rely on this value for anything but (periodic) metals
  | Electronic free energy        :        -289.19724626 Ha       -7869.45746432 eV

  Derived energy quantities:
  | Kinetic energy                :         289.36791014 Ha        7874.10146469 eV
  | Electrostatic energy          :        -558.98448956 Ha      -15210.74187489 eV
  | Energy correction for multipole
  | error in Hartree potential    :           0.00009562 Ha           0.00260194 eV
  | Sum of eigenvalues per atom                           :       -4457.34729603 eV
  | Total energy (T->0) per atom                          :       -7869.45559717 eV  <-- do not rely on this value for anything but (periodic) metals
  | Electronic free energy per atom                       :       -7869.45746432 eV

  Self-consistency convergence accuracy:
  | Change of charge density      :  0.1759E-02
  | Change of sum of eigenvalues  : -0.2244E-01 eV
  | Change of total energy        : -0.6144E-05 eV

  End self-consistency iteration #     7       :  max(cpu_time)    wall_clock(cpu1)
  | Time for this iteration                    :        0.298 s           0.298 s
  | Charge density update                      :        0.055 s           0.055 s
  | Density mixing & preconditioning           :        0.010 s           0.010 s
  | Hartree multipole update                   :        0.001 s           0.000 s
  | Hartree multipole summation                :        0.102 s           0.102 s
  | Integration                                :        0.034 s           0.034 s
  | Solution of K.-S. eqns.                    :        0.097 s           0.097 s
  | Total energy evaluation                    :        0.000 s           0.000 s

  Partial memory accounting:
  | Current value for overall tracked memory usage on task 0  :           2.556 MB
  | Peak value for overall tracked memory usage on task 0     :           3.099 MB after allocating wave
  | Largest tracked array allocation on task 0 so far         :           2.500 MB  when allocating +KS_eigenvector_complex
  Note:  These values currently only include a subset of arrays which are explicitly tracked.
  The "true" memory usage will be greater.
------------------------------------------------------------

------------------------------------------------------------
          Begin self-consistency iteration #    8

  Date     :  20190514, Time     :  105020.622
------------------------------------------------------------
  Evaluating new KS density using the density matrix
  Evaluating density matrix
  Time summed over all CPUs for getting density from density matrix: real work        0.049 s, elapsed        0.049 s
  Integration grid: deviation in total charge (<rho> - N_e) =  -3.606004E-13
  Pulay mixing of updated and previous charge densities.

  Evaluating partitioned Hartree potential by multipole expansion.
  | Analytical far-field extrapolation by fixed multipoles:
  | Hartree multipole sum: apparent total charge =  -0.274148E-03
  Summing up the Hartree potential.
  Time summed over all CPUs for potential: real work        0.100 s, elapsed        0.100 s
  | RMS charge density error from multipole expansion :   0.859654E-03
  | Average real-space part of the electrostatic potential :     -0.28725901 eV

  Integrating Hamiltonian matrix: batch-based integration.
  Time summed over all CPUs for integration: real work        0.035 s, elapsed        0.035 s

  Updating Kohn-Sham eigenvalues, eigenvectors, occupation numbers, and Fermi level.
  Solving generalized eigenproblem

  Obtaining occupation numbers and chemical potential using ELSI.
  | Chemical potential (Fermi level):    -4.59374361eV
  What follows are estimated values for band gap, HOMO, LUMO, etc.
  | They are estimated on a discrete k-point grid and not necessarily exact.
  | For converged numbers, create a DOS and/or band structure plot on a denser k-grid.

  Highest occupied state (VBM) at     -4.59988681 eV (relative to internal zero)
  | Occupation number:      1.13794277
  | K-point:     557 at    0.416667    0.416667    0.583333 (in units of recip. lattice)

  Lowest unoccupied state (CBM) at    -4.57964999 eV (relative to internal zero)
  | Occupation number:      0.69016743
  | K-point:     427 at    0.333333    0.250000    0.166667 (in units of recip. lattice)

  ESTIMATED overall HOMO-LUMO gap:      0.02023683 eV between HOMO at k-point 557 and LUMO at k-point 427
  | This appears to be an indirect band gap.
  | Smallest direct gap :      0.18591105 eV for k_point 675 at    0.333333    0.250000    0.166667 (in units of recip. lattice)
  However, this system has fractional occupation numbers. Since we use a finite k-point grid,
  this material is metallic within the approximate finite broadening function (occupation_type)
  applied to determine the occupation numbers.

  Total energy components:
  | Sum of eigenvalues            :        -163.77444619 Ha       -4456.52942668 eV
  | XC energy correction          :         -19.58285226 Ha        -532.87652245 eV
  | XC potential correction       :          25.87467842 Ha         704.08582320 eV
  | Free-atom electrostatic energy:        -132.20687133 Ha       -3597.53200943 eV
  | Hartree energy correction     :           0.49238626 Ha          13.39851190 eV
  | Entropy correction            :          -0.00006843 Ha          -0.00186217 eV
  | ---------------------------
  | Total energy                  :        -289.19710511 Ha       -7869.45362346 eV
  | Total energy, T -> 0          :        -289.19717354 Ha       -7869.45548563 eV  <-- do not rely on this value for anything but (periodic) metals
  | Electronic free energy        :        -289.19724198 Ha       -7869.45734781 eV

  Derived energy quantities:
  | Kinetic energy                :         289.38693184 Ha        7874.61907159 eV
  | Electrostatic energy          :        -559.00118469 Ha      -15211.19617259 eV
  | Energy correction for multipole
  | error in Hartree potential    :           0.00009874 Ha           0.00268689 eV
  | Sum of eigenvalues per atom                           :       -4456.52942668 eV
  | Total energy (T->0) per atom                          :       -7869.45548563 eV  <-- do not rely on this value for anything but (periodic) metals
  | Electronic free energy per atom                       :       -7869.45734781 eV

  Self-consistency convergence accuracy:
  | Change of charge density      :  0.1809E-02
  | Change of sum of eigenvalues  :  0.8179E+00 eV
  | Change of total energy        :  0.1066E-03 eV

  End self-consistency iteration #     8       :  max(cpu_time)    wall_clock(cpu1)
  | Time for this iteration                    :        0.300 s           0.300 s
  | Charge density update                      :        0.056 s           0.056 s
  | Density mixing & preconditioning           :        0.010 s           0.010 s
  | Hartree multipole update                   :        0.000 s           0.000 s
  | Hartree multipole summation                :        0.103 s           0.103 s
  | Integration                                :        0.035 s           0.035 s
  | Solution of K.-S. eqns.                    :        0.096 s           0.096 s
  | Total energy evaluation                    :        0.000 s           0.000 s

  Partial memory accounting:
  | Current value for overall tracked memory usage on task 0  :           2.556 MB
  | Peak value for overall tracked memory usage on task 0     :           3.099 MB after allocating wave
  | Largest tracked array allocation on task 0 so far         :           2.500 MB  when allocating +KS_eigenvector_complex
  Note:  These values currently only include a subset of arrays which are explicitly tracked.
  The "true" memory usage will be greater.
------------------------------------------------------------

------------------------------------------------------------
          Begin self-consistency iteration #    9

  Date     :  20190514, Time     :  105020.922
------------------------------------------------------------
  Evaluating new KS density using the density matrix
  Evaluating density matrix
  Time summed over all CPUs for getting density from density matrix: real work        0.049 s, elapsed        0.049 s
  Integration grid: deviation in total charge (<rho> - N_e) =  -3.037570E-13
  Pulay mixing of updated and previous charge densities.

  Evaluating partitioned Hartree potential by multipole expansion.
  | Analytical far-field extrapolation by fixed multipoles:
  | Hartree multipole sum: apparent total charge =  -0.266373E-03
  Summing up the Hartree potential.
  Time summed over all CPUs for potential: real work        0.099 s, elapsed        0.099 s
  | RMS charge density error from multipole expansion :   0.858162E-03
  | Average real-space part of the electrostatic potential :     -0.28678833 eV

  Integrating Hamiltonian matrix: batch-based integration.
  Time summed over all CPUs for integration: real work        0.033 s, elapsed        0.033 s

  Updating Kohn-Sham eigenvalues, eigenvectors, occupation numbers, and Fermi level.
  Solving generalized eigenproblem

  Obtaining occupation numbers and chemical potential using ELSI.
  | Chemical potential (Fermi level):    -4.59314688eV
  What follows are estimated values for band gap, HOMO, LUMO, etc.
  | They are estimated on a discrete k-point grid and not necessarily exact.
  | For converged numbers, create a DOS and/or band structure plot on a denser k-grid.

  Highest occupied state (VBM) at     -4.59928033 eV (relative to internal zero)
  | Occupation number:      1.13772589
  | K-point:     575 at    0.416667    0.583333    0.583333 (in units of recip. lattice)

  Lowest unoccupied state (CBM) at    -4.57906397 eV (relative to internal zero)
  | Occupation number:      0.69039062
  | K-point:     427 at    0.333333    0.250000    0.166667 (in units of recip. lattice)

  ESTIMATED overall HOMO-LUMO gap:      0.02021636 eV between HOMO at k-point 575 and LUMO at k-point 427
  | This appears to be an indirect band gap.
  | Smallest direct gap :      0.18593133 eV for k_point 675 at    0.333333    0.250000    0.166667 (in units of recip. lattice)
  However, this system has fractional occupation numbers. Since we use a finite k-point grid,
  this material is metallic within the approximate finite broadening function (occupation_type)
  applied to determine the occupation numbers.

  Total energy components:
  | Sum of eigenvalues            :        -163.77369711 Ha       -4456.50904293 eV
  | XC energy correction          :         -19.58291413 Ha        -532.87820600 eV
  | XC potential correction       :          25.87475964 Ha         704.08803336 eV
  | Free-atom electrostatic energy:        -132.20687133 Ha       -3597.53200943 eV
  | Hartree energy correction     :           0.49161771 Ha          13.37759852 eV
  | Entropy correction            :          -0.00006843 Ha          -0.00186206 eV
  | ---------------------------
  | Total energy                  :        -289.19710522 Ha       -7869.45362648 eV
  | Total energy, T -> 0          :        -289.19717365 Ha       -7869.45548854 eV  <-- do not rely on this value for anything but (periodic) metals
  | Electronic free energy        :        -289.19724208 Ha       -7869.45735059 eV

  Derived energy quantities:
  | Kinetic energy                :         289.38717151 Ha        7874.62559321 eV
  | Electrostatic energy          :        -559.00136260 Ha      -15211.20101369 eV
  | Energy correction for multipole
  | error in Hartree potential    :           0.00009855 Ha           0.00268158 eV
  | Sum of eigenvalues per atom                           :       -4456.50904293 eV
[...]
  | Hartree multipole update                   :        0.000 s           0.000 s
  | Hartree multipole summation                :        0.113 s           0.113 s
  | Integration                                :        0.036 s           0.036 s
  | Solution of K.-S. eqns.                    :        0.106 s           0.106 s
  | Total energy evaluation                    :        0.000 s           0.000 s

  Partial memory accounting:
  | Current value for overall tracked memory usage on task 0  :           2.556 MB
  | Peak value for overall tracked memory usage on task 0     :           3.099 MB after allocating wave
  | Largest tracked array allocation on task 0 so far         :           2.500 MB  when allocating +KS_eigenvector_complex
  Note:  These values currently only include a subset of arrays which are explicitly tracked.
  The "true" memory usage will be greater.
------------------------------------------------------------

------------------------------------------------------------
          Begin self-consistency iteration #   12

  Date     :  20190514, Time     :  105021.835
------------------------------------------------------------
  Evaluating new KS density using the density matrix
  Evaluating density matrix
  Time summed over all CPUs for getting density from density matrix: real work        0.051 s, elapsed        0.051 s
  Integration grid: deviation in total charge (<rho> - N_e) =  -2.984279E-13
  Pulay mixing of updated and previous charge densities.

  Evaluating partitioned Hartree potential by multipole expansion.
  | Analytical far-field extrapolation by fixed multipoles:
  | Hartree multipole sum: apparent total charge =  -0.282631E-03
  Summing up the Hartree potential.
  Time summed over all CPUs for potential: real work        0.105 s, elapsed        0.105 s
  | RMS charge density error from multipole expansion :   0.858759E-03
  | Average real-space part of the electrostatic potential :     -0.28712490 eV

  Integrating Hamiltonian matrix: batch-based integration.
  Time summed over all CPUs for integration: real work        0.035 s, elapsed        0.035 s

  Updating Kohn-Sham eigenvalues, eigenvectors, occupation numbers, and Fermi level.
  Solving generalized eigenproblem

  Obtaining occupation numbers and chemical potential using ELSI.
  | Chemical potential (Fermi level):    -4.59375447eV
  What follows are estimated values for band gap, HOMO, LUMO, etc.
  | They are estimated on a discrete k-point grid and not necessarily exact.
  | For converged numbers, create a DOS and/or band structure plot on a denser k-grid.

  Highest occupied state (VBM) at     -4.59990123 eV (relative to internal zero)
  | Occupation number:      1.13802173
  | K-point:     575 at    0.416667    0.583333    0.583333 (in units of recip. lattice)

  Lowest unoccupied state (CBM) at    -4.57965834 eV (relative to internal zero)
  | Occupation number:      0.69011509
  | K-point:     427 at    0.333333    0.250000    0.166667 (in units of recip. lattice)

  ESTIMATED overall HOMO-LUMO gap:      0.02024289 eV between HOMO at k-point 575 and LUMO at k-point 427
  | This appears to be an indirect band gap.
  | Smallest direct gap :      0.18590617 eV for k_point 675 at    0.333333    0.250000    0.166667 (in units of recip. lattice)
  However, this system has fractional occupation numbers. Since we use a finite k-point grid,
  this material is metallic within the approximate finite broadening function (occupation_type)
  applied to determine the occupation numbers.

  Total energy components:
  | Sum of eigenvalues            :        -163.77473343 Ha       -4456.53724278 eV
  | XC energy correction          :         -19.58283001 Ha        -532.87591694 eV
  | XC potential correction       :          25.87464875 Ha         704.08501588 eV
  | Free-atom electrostatic energy:        -132.20687133 Ha       -3597.53200943 eV
  | Hartree energy correction     :           0.49268088 Ha          13.40652899 eV
  | Entropy correction            :          -0.00006844 Ha          -0.00186223 eV
  | ---------------------------
  | Total energy                  :        -289.19710514 Ha       -7869.45362428 eV
  | Total energy, T -> 0          :        -289.19717358 Ha       -7869.45548651 eV  <-- do not rely on this value for anything but (periodic) metals
  | Electronic free energy        :        -289.19724201 Ha       -7869.45734874 eV

  Derived energy quantities:
  | Kinetic energy                :         289.38649507 Ha        7874.60718639 eV
  | Electrostatic energy          :        -559.00077020 Ha      -15211.18489373 eV
  | Energy correction for multipole
  | error in Hartree potential    :           0.00009864 Ha           0.00268416 eV
  | Sum of eigenvalues per atom                           :       -4456.53724278 eV
  | Total energy (T->0) per atom                          :       -7869.45548651 eV  <-- do not rely on this value for anything but (periodic) metals
  | Electronic free energy per atom                       :       -7869.45734874 eV

  Self-consistency convergence accuracy:
  | Change of charge density      :  0.2820E-05
  | Change of sum of eigenvalues  : -0.1219E-02 eV
  | Change of total energy        :  0.1340E-06 eV

  End self-consistency iteration #    12       :  max(cpu_time)    wall_clock(cpu1)
  | Time for this iteration                    :        0.313 s           0.314 s
  | Charge density update                      :        0.059 s           0.060 s
  | Density mixing & preconditioning           :        0.010 s           0.010 s
  | Hartree multipole update                   :        0.001 s           0.001 s
  | Hartree multipole summation                :        0.109 s           0.109 s
  | Integration                                :        0.036 s           0.035 s
  | Solution of K.-S. eqns.                    :        0.098 s           0.098 s
  | Total energy evaluation                    :        0.000 s           0.000 s

  Partial memory accounting:
  | Current value for overall tracked memory usage on task 0  :           2.556 MB
  | Peak value for overall tracked memory usage on task 0     :           3.099 MB after allocating wave
  | Largest tracked array allocation on task 0 so far         :           2.500 MB  when allocating +KS_eigenvector_complex
  Note:  These values currently only include a subset of arrays which are explicitly tracked.
  The "true" memory usage will be greater.
------------------------------------------------------------

------------------------------------------------------------
          Begin self-consistency iteration #   13

  Date     :  20190514, Time     :  105022.149
------------------------------------------------------------
  Evaluating new KS density using the density matrix
  Evaluating density matrix
  Time summed over all CPUs for getting density from density matrix: real work        0.053 s, elapsed        0.053 s
  Integration grid: deviation in total charge (<rho> - N_e) =  -2.504663E-13
  Pulay mixing of updated and previous charge densities.

  Evaluating partitioned Hartree potential by multipole expansion.
  | Analytical far-field extrapolation by fixed multipoles:
  | Hartree multipole sum: apparent total charge =  -0.282442E-03
  Summing up the Hartree potential.
  Time summed over all CPUs for potential: real work        0.107 s, elapsed        0.107 s
  | RMS charge density error from multipole expansion :   0.858759E-03
  | Average real-space part of the electrostatic potential :     -0.28712592 eV

  Integrating Hamiltonian matrix: batch-based integration.
  Time summed over all CPUs for integration: real work        0.036 s, elapsed        0.036 s

  Updating Kohn-Sham eigenvalues, eigenvectors, occupation numbers, and Fermi level.
  Solving generalized eigenproblem

  Obtaining occupation numbers and chemical potential using ELSI.
  | Chemical potential (Fermi level):    -4.59375495eV
  What follows are estimated values for band gap, HOMO, LUMO, etc.
  | They are estimated on a discrete k-point grid and not necessarily exact.
  | For converged numbers, create a DOS and/or band structure plot on a denser k-grid.

  Highest occupied state (VBM) at     -4.59990170 eV (relative to internal zero)
  | Occupation number:      1.13802179
  | K-point:     575 at    0.416667    0.583333    0.583333 (in units of recip. lattice)

  Lowest unoccupied state (CBM) at    -4.57965881 eV (relative to internal zero)
  | Occupation number:      0.69011499
  | K-point:     213 at    0.166667    0.250000    0.333333 (in units of recip. lattice)

  ESTIMATED overall HOMO-LUMO gap:      0.02024290 eV between HOMO at k-point 575 and LUMO at k-point 213
  | This appears to be an indirect band gap.
  | Smallest direct gap :      0.18590615 eV for k_point 675 at    0.166667    0.250000    0.333333 (in units of recip. lattice)
  However, this system has fractional occupation numbers. Since we use a finite k-point grid,
  this material is metallic within the approximate finite broadening function (occupation_type)
  applied to determine the occupation numbers.

  Total energy components:
  | Sum of eigenvalues            :        -163.77473380 Ha       -4456.53725271 eV
  | XC energy correction          :         -19.58282993 Ha        -532.87591479 eV
  | XC potential correction       :          25.87464865 Ha         704.08501308 eV
  | Free-atom electrostatic energy:        -132.20687133 Ha       -3597.53200943 eV
  | Hartree energy correction     :           0.49268127 Ha          13.40653957 eV
  | Entropy correction            :          -0.00006844 Ha          -0.00186223 eV
  | ---------------------------
  | Total energy                  :        -289.19710514 Ha       -7869.45362428 eV
  | Total energy, T -> 0          :        -289.19717358 Ha       -7869.45548651 eV  <-- do not rely on this value for anything but (periodic) metals
  | Electronic free energy        :        -289.19724201 Ha       -7869.45734874 eV

  Derived energy quantities:
  | Kinetic energy                :         289.38649509 Ha        7874.60718687 eV
  | Electrostatic energy          :        -559.00077030 Ha      -15211.18489635 eV
  | Energy correction for multipole
  | error in Hartree potential    :           0.00009864 Ha           0.00268418 eV
  | Sum of eigenvalues per atom                           :       -4456.53725271 eV
  | Total energy (T->0) per atom                          :       -7869.45548651 eV  <-- do not rely on this value for anything but (periodic) metals
  | Electronic free energy per atom                       :       -7869.45734874 eV

  Self-consistency convergence accuracy:
  | Change of charge density      :  0.2072E-06
  | Change of sum of eigenvalues  : -0.9930E-05 eV
  | Change of total energy        :  0.3771E-08 eV

  Preliminary charge convergence reached. Turning off preconditioner.

  Writing Kohn-Sham eigenvalues.
  K-point:       1 at    0.000000    0.000000    0.000000 (in units of recip. lattice)

  State    Occupation    Eigenvalue [Ha]    Eigenvalue [eV]
      1       2.00000         -65.537909        -1783.37725
      2       2.00000          -5.127944         -139.53845
      3       2.00000          -3.542700          -96.40177
      4       2.00000          -3.542700          -96.40177
      5       2.00000          -3.542700          -96.40177
      6       2.00000          -0.422396          -11.49399
      7       0.00000          -0.133772           -3.64011
      8       0.00000          -0.133772           -3.64011
      9       0.00000          -0.133772           -3.64011
     10       0.00000           0.033972            0.92444

  What follows are estimated values for band gap, HOMO, LUMO, etc.
  | They are estimated on a discrete k-point grid and not necessarily exact.
  | For converged numbers, create a DOS and/or band structure plot on a denser k-grid.

  Highest occupied state (VBM) at     -4.59990170 eV (relative to internal zero)
  | Occupation number:      1.13802179
  | K-point:     575 at    0.416667    0.583333    0.583333 (in units of recip. lattice)

  Lowest unoccupied state (CBM) at    -4.57965881 eV (relative to internal zero)
  | Occupation number:      0.69011499
  | K-point:     213 at    0.166667    0.250000    0.333333 (in units of recip. lattice)

  ESTIMATED overall HOMO-LUMO gap:      0.02024290 eV between HOMO at k-point 575 and LUMO at k-point 213
  | This appears to be an indirect band gap.
  | Smallest direct gap :      0.18590615 eV for k_point 675 at    0.166667    0.250000    0.333333 (in units of recip. lattice)
  However, this system has fractional occupation numbers. Since we use a finite k-point grid,
  this material is metallic within the approximate finite broadening function (occupation_type)
  applied to determine the occupation numbers.

  Self-consistency cycle converged.

  End self-consistency iteration #    13       :  max(cpu_time)    wall_clock(cpu1)
  | Time for this iteration                    :        0.319 s           0.318 s
  | Charge density update                      :        0.060 s           0.060 s
  | Density mixing                             :        0.009 s           0.009 s
  | Hartree multipole update                   :        0.001 s           0.001 s
  | Hartree multipole summation                :        0.110 s           0.109 s
  | Integration                                :        0.036 s           0.036 s
  | Solution of K.-S. eqns.                    :        0.101 s           0.102 s
  | Total energy evaluation                    :        0.000 s           0.000 s

  Partial memory accounting:
  | Current value for overall tracked memory usage on task 0  :           2.556 MB
  | Peak value for overall tracked memory usage on task 0     :           3.099 MB after allocating wave
  | Largest tracked array allocation on task 0 so far         :           2.500 MB  when allocating +KS_eigenvector_complex
  Note:  These values currently only include a subset of arrays which are explicitly tracked.
  The "true" memory usage will be greater.
------------------------------------------------------------

  Energy and forces in a compact form:
  | Total energy uncorrected      :         -0.786945362427678E+04 eV
  | Total energy corrected        :         -0.786945548650661E+04 eV  <-- do not rely on this value for anything but (periodic) metals
  | Electronic free energy        :         -0.786945734873644E+04 eV

  ------------------------------------ 
  Start decomposition of the XC Energy 
  ------------------------------------ 
  X and C from original XC functional choice 
  Hartree-Fock Energy :          0.000000000 Ha              0.000000000 eV
  X Energy            :        -18.533734728 Ha           -504.328581918 eV
  C Energy            :         -1.049095200 Ha            -28.547332876 eV
  Total XC Energy     :        -19.582829929 Ha           -532.875914794 eV
  ------------------------------------ 
  LDA X and C from self-consistent density 
  X Energy LDA        :        -18.533734728 Ha           -504.328581918 eV
  C Energy LDA        :         -1.049095200 Ha            -28.547332876 eV
  ------------------------------------ 
  End decomposition of the XC Energy 
  ------------------------------------ 

------------------------------------------------------------

------------------------------------------------------------------------------
  Final output of selected total energy values:

  The following output summarizes some interesting total energy values
  at the end of a run (AFTER all relaxation, molecular dynamics, etc.).

  | Total energy of the DFT / Hartree-Fock s.c.f. calculation      :          -7869.453624277 eV
  | Final zero-broadening corrected energy (caution - metals only) :          -7869.455486507 eV
  | For reference only, the value of 1 Hartree used in FHI-aims is :             27.211384500 eV

  Before relying on these values, please be sure to understand exactly which
  total energy value is referred to by a given number. Different objects may
  all carry the same name 'total energy'. Definitions:

  Total energy of the DFT / Hartree-Fock s.c.f. calculation:
  | Note that this energy does not include ANY quantities calculated after the
  | s.c.f. cycle, in particular not ANY RPA, MP2, etc. many-body perturbation terms.

  Final zero-broadening corrected energy:
  | For metallic systems only, a broadening of the occupation numbers at the Fermi
  | level can be extrapolated back to zero broadening by an electron-gas inspired
  | formula. For all systems that are not real metals, this value can be
  | meaningless and should be avoided.

------------------------------------------------------------------------------
  Methods described in the following list of references were used in this FHI-aims run.
  If you publish the results, please make sure to cite these reference if they apply.
  FHI-aims is an academic code, and for our developers (often, Ph.D. students
  and postdocs), scientific credit in the community is essential.
  Thank you for helping us!

  For any use of FHI-aims, please cite:

    Volker Blum, Ralf Gehrke, Felix Hanke, Paula Havu, Ville Havu,
    Xinguo Ren, Karsten Reuter, and Matthias Scheffler
    'Ab initio molecular simulations with numeric atom-centered orbitals'
    Computer Physics Communications 180, 2175-2196 (2009)
    http://dx.doi.org/10.1016/j.cpc.2009.06.022


  For the real-space grid partitioning and parallelization used in this calculation, please cite:

    Ville Havu, Volker Blum, Paula Havu, and Matthias Scheffler,
    'Efficient O(N) integration for all-electron electronic structure calculation'
    'using numerically tabulated basis functions'
    Journal of Computational Physics 228, 8367-8379 (2009).
    http://dx.doi.org/10.1016/j.jcp.2009.08.008

  Of course, there are many other important community references, e.g., those cited in the
  above references. Our list is limited to references that describe implementations in the
  FHI-aims code. The reason is purely practical (length of this list) - please credit others as well.

------------------------------------------------------------
          Leaving FHI-aims.
          Date     :  20190514, Time     :  105022.474

          Computational steps:
          | Number of self-consistency cycles          :           13
          | Number of SCF (re)initializations          :            1

          Detailed time accounting                     :  max(cpu_time)    wall_clock(cpu1)
          | Total time                                 :        4.428 s           4.428 s
          | Preparation time                           :        0.111 s           0.112 s
          | Boundary condition initalization           :        0.039 s           0.039 s
          | Grid partitioning                          :        0.009 s           0.009 s
          | Preloading free-atom quantities on grid    :        0.001 s           0.001 s
          | Free-atom superposition energy             :        0.007 s           0.008 s
          | Total time for integrations                :        0.520 s           0.520 s
          | Total time for solution of K.-S. equations :        1.506 s           1.507 s
          | Total time for density update              :        0.745 s           0.746 s
          | Total time for mixing & preconditioning    :        0.139 s           0.139 s
          | Total time for Hartree multipole update    :        0.007 s           0.007 s
          | Total time for Hartree multipole sum       :        1.312 s           1.312 s
          | Total time for total energy evaluation     :        0.003 s           0.004 s
          | Total time for scaled ZORA corrections     :        0.000 s           0.000 s

 This is a stub MPI_ALLREDUCE call.
 You should not be here. Check your
 setting on the use_mpi variable, or
 link against true MPI-libraries.
