------------------------------------------------------------
          Invoking FHI-aims ...
          Version 171221_1
          Compiled on 2019/05/06 at 14:26:40 on host ffph0xx.

          When using FHI-aims, please cite the following reference:

          Volker Blum, Ralf Gehrke, Felix Hanke, Paula Havu,
          Ville Havu, Xinguo Ren, Karsten Reuter, and Matthias Scheffler,
          'Ab Initio Molecular Simulations with Numeric Atom-Centered Orbitals',
          Computer Physics Communications 180, 2175-2196 (2009)

          For any questions about FHI-aims, please visit the aimsclub website
          with its forums and wiki. Contributions to both the forums and the
          wiki are warmly encouraged - they are for you, and everyone is welcome there.

------------------------------------------------------------



  Date     :  20190514, Time     :  123512.079
  Time zero on CPU 1             :   0.873000000000000E-03  s.
  Internal wall clock time zero  :           327069312.079  s.

  FHI-aims created a unique identifier for this run for later identification
  aims_uuid : 9E93A552-D016-4BD8-ABE1-ABA435B5B8D3


  Performing system and environment tests:
  *** Environment variable OMP_NUM_THREADS is not set
  *** For performance reasons you might want to set it to 1
  | Stacksize not measured: no C compiler

  Obtaining array dimensions for all initial allocations:
  
  -----------------------------------------------------------------------
  Parsing control.in (first pass over file, find array dimensions only).
  The contents of control.in will be repeated verbatim below
  unless switched off by setting 'verbatim_writeout .false.' .
  in the first line of control.in .
  -----------------------------------------------------------------------
  
  #--- method ---
  xc pw-lda
  spin none
  relativistic atomic_zora scalar
  #---
  
  #--- k-grid settings ---
  k_grid 12 12 12
  #---
  
  
  
  
  
  
  
  
  
  
  
  #-------------------------------------------------------------------------------
  #--- Species defaults for Si
  #-------------------------------------------------------------------------------
  
  ################################################################################
  #
  #  FHI-aims code project
  #  VB, Fritz-Haber Institut, 2009
  #
  #  Suggested "light" defaults for Si atom (to be pasted into control.in file)
  #  Be sure to double-check any results obtained with these settings for post-processing,
  #  e.g., with the "tight" defaults and larger basis sets.
  #
  ################################################################################
    species        Si
  #     global species definitions
      nucleus             14
      mass                28.0855
  #
      l_hartree           4
  #
      cut_pot             3.5          1.5  1.0
      basis_dep_cutoff    1e-4
  #
      radial_base         42 5.0
      radial_multiplier   1
      angular_grids       specified
        division   0.5866   50
        division   0.9616  110
        division   1.2249  194
        division   1.3795  302
  #      division   1.4810  434
  #      division   1.5529  590
  #      division   1.6284  770
  #      division   1.7077  974
  #      division   2.4068 1202
  #      outer_grid   974
        outer_grid 302
  ################################################################################
  #
  #  Definition of "minimal" basis
  #
  ################################################################################
  #     valence basis states
      valence      3  s   2.
      valence      3  p   2.
  #     ion occupancy
      ion_occ      3  s   1.
      ion_occ      3  p   1.
  ################################################################################
  #
  #  Suggested additional basis functions. For production calculations,
  #  uncomment them one after another (the most important basis functions are
  #  listed first).
  #
  #  Constructed for dimers: 1.75 A, 2.0 A, 2.25 A, 2.75 A, 3.75 A
  #
  ################################################################################
  #  "First tier" - improvements: -571.96 meV to -37.03 meV
       hydro 3 d 4.2
       hydro 2 p 1.4
  #     hydro 4 f 6.2
       ionic 3 s auto
  #  "Second tier" - improvements: -16.76 meV to -3.03 meV
  #     hydro 3 d 9
  #     hydro 5 g 9.4
  #     hydro 4 p 4
  #     hydro 1 s 0.65
  #  "Third tier" - improvements: -3.89 meV to -0.60 meV
  #     ionic 3 d auto
  #     hydro 3 s 2.6
  #     hydro 4 f 8.4
  #     hydro 3 d 3.4
  #     hydro 3 p 7.8
  #  "Fourth tier" - improvements: -0.33 meV to -0.11 meV
  #     hydro 2 p 1.6
  #     hydro 5 g 10.8
  #     hydro 5 f 11.2
  #     hydro 3 d 1
  #     hydro 4 s 4.5
  #  Further basis functions that fell out of the optimization - noise
  #  level... < -0.08 meV
  #     hydro 4 d 6.6
  #     hydro 5 g 16.4
  #     hydro 4 d 9
  
  -----------------------------------------------------------------------
  Completed first pass over input file control.in .
  -----------------------------------------------------------------------
  
  
  -----------------------------------------------------------------------
  Parsing geometry.in (first pass over file, find array dimensions only).
  The contents of geometry.in will be repeated verbatim below
  unless switched off by setting 'verbatim_writeout .false.' .
  in the first line of geometry.in .
  -----------------------------------------------------------------------
  
  lattice_vector   0.000000   2.350000   2.350000
  lattice_vector   2.350000   0.000000   2.350000
  lattice_vector   2.350000   2.350000   0.000000
  atom_frac   0.000000   0.000000   0.000000 Si
  
  -----------------------------------------------------------------------
  Completed first pass over input file geometry.in .
  -----------------------------------------------------------------------
  

  Basic array size parameters:
  | Number of species                 :        1
  | Number of atoms                   :        1
  | Number of lattice vectors         :        3
  | Max. basis fn. angular momentum   :        2
  | Max. atomic/ionic basis occupied n:        3
  | Max. number of basis fn. types    :        3
  | Max. radial fns per species/type  :        5
  | Max. logarithmic grid size        :     1346
  | Max. radial integration grid size :       42
  | Max. angular integration grid size:      302
  | Max. angular grid division number :        8
  | Radial grid for Hartree potential :     1346
  | Number of spin channels           :        1

------------------------------------------------------------
          Reading file control.in.
------------------------------------------------------------
  XC: Using Perdew-Wang parametrisation of Ceperley-Alder LDA.
  Spin treatment: No spin polarisation.
  Scalar relativistic treatment of kinetic energy: on-site free-atom approximation to ZORA.
  Found k-point grid:        12        12        12

  Reading configuration options for species Si                  .
  | Found nuclear charge :  14.0000
  | Found atomic mass :    28.085500000000000      amu
  | Found l_max for Hartree potential  :   4
  | Found cutoff potl. onset [A], width [A], scale factor :    3.50000    1.50000    1.00000
  | Threshold for basis-dependent cutoff potential is   0.100000E-03
  | Found data for basic radial integration grid :    42 points, outermost radius =    5.000 A
  | Found multiplier for basic radial grid :   1
  | Found angular grid specification: user-specified.
  | Specified grid contains     5 separate shells.
  | Check grid settings after all constraints further below.
  | Found free-atom valence shell :  3 s   2.000
  | Found free-atom valence shell :  3 p   2.000
  | Found free-ion valence shell :  3 s   1.000
  | Found free-ion valence shell :  3 p   1.000
  | Found hydrogenic basis function :  3 d   4.200
  | Found hydrogenic basis function :  2 p   1.400
  | Found ionic basis function :  3 s , default cutoff radius.
  Species Si                  : Missing cutoff potential type.
  Defaulting to exp(1/x)/(1-x)^2 type cutoff potential.
  Species Si: No 'logarithmic' tag. Using default grid for free atom:
  | Default logarithmic grid data [bohr] : 0.1000E-03 0.1000E+03 0.1012E+01
  | Will include ionic basis functions of  2.0-fold positive Si                   ion.
  Species Si: On-site basis accuracy parameter (for Gram-Schmidt orthonormalisation) not specified.
  Using default value basis_acc =  0.1000000E-03.
  Species Si                  : Using default innermost maximum threshold i_radial=  2 for radial functions.
  Species Si                  : Default cutoff onset for free atom density etc. : 0.35000000E+01 AA.
  Species Si                  : Basic radial grid will be enhanced according to radial_multiplier =   1, to contain    42 grid points.

  Finished reading input file 'control.in'. Consistency checks are next.

  MPI_IN_PLACE appears to work with this MPI implementation.
  | Keeping use_mpi_in_place .true. (see manual).
  Target number of points in a grid batch is not set. Defaulting to  100
  Method for grid partitioning is not set. Defaulting to 'maxmin' partitioning.
  Batch size limit is not set. Defaulting to    200
  By default, will store active basis functions for each batch.
  If in need of memory, prune_basis_once .false. can be used to disable this option.
  communication_type for Hartree potential was not specified.
  Defaulting to calc_hartree .
 * Attention: 
 * You may want to set distributed_spline_storage to .true. in order to save memory.
 * This doesn't harm performance and is perfectly ok unless:
 * - you get error messages in postprocessing (about missing atoms in get_rho_multipole_spl)
 * - you need full spline storage in hirshfeld_analysis
  Defaulting to Pulay charge density mixer.
  Pulay mixer: Number of relevant iterations not set.
  Defaulting to    8 iterations.
  Pulay mixer: Number of initial linear mixing iterations not set.
  Defaulting to    0 iterations.
  Work space size for distributed Hartree potential not set.
  Defaulting to   0.200000E+03 MB.
  Mixing parameter for charge density mixing has not been set.
  Using default: charge_mix_param =     0.0500.
  The mixing parameter will be adjusted in iteration number     2 of the first full s.c.f. cycle only.
  Algorithm-dependent basis array size parameters:
  | n_max_pulay                         :        8
 * Notice: The s.c.f. convergence criterion sc_accuracy_rho was not provided.
 * We used to stop in this case, and ask the user to provide reasonable
 * scf convergence criteria. However, this led some users to employ criteria
 * that led to extremely long run times, e.g., for simple relaxation.
 * We now preset a default value for sc_accuracy_rho if it is not set.
 * You may still wish to check if this setting is too tight or too loose for your needs.
 * Based on n_atoms, FHI-aims chose sc_accuracy_rho =  0.100000E-05 .
  Maximum number of self-consistency iterations not provided.
  Presetting  1000 iterations.
  Presetting      1001 iterations before the initial mixing cycle
  is restarted anyway using the sc_init_iter criterion / keyword.
  Presetting a factor      1.000 between actual scf density residual
  and density convergence criterion sc_accuracy_rho below which sc_init_iter
  takes no effect.
 * No s.c.f. convergence criteria (sc_accuracy_*) were provided in control.in.
 * The run will proceed with a reasonable default guess, but please check whether.
 * the s.c.f. cycles seem to take too much or too little time.
  Calculation of forces was not defined in control.in. No forces will be calculated.
  Geometry relaxation not requested: no relaxation will be performed.
  No accuracy limit for integral partition fn. given. Defaulting to  0.1000E-14.
  No threshold value for u(r) in integrations given. Defaulting to  0.1000E-05.
  No occupation type (smearing scheme) given. Defaulting to Gaussian broadening, width =  0.1000E-01 eV.
  The width will be adjusted in iteration number     2 of the first full s.c.f. cycle only.
  S.C.F. convergence parameters will be adjusted in iteration number     2 of the first full s.c.f. cycle only.
  No accuracy for occupation numbers given. Defaulting to  0.1000E-12.
  No threshold value for occupation numbers given. Defaulting to  0.0000E+00.
  No accuracy for fermi level given. Defaulting to  0.1000E-19.
  Maximum # of iterations to find E_F not set. Defaulting to  200.
  Preferred method for the eigenvalue solver ('KS_method') not specified in 'control.in'.
  Defaulting to serial version, 'lapack_fast'.
  Will not use alltoall communication since running on < 1024 CPUs.
  Threshold for basis singularities not set.
  Default threshold for basis singularities:  0.1000E-04
  partition_type (choice of integration weights) for integrals was not specified.
  | Using a version of the partition function of Stratmann and coworkers ('stratmann_smoother').
  | At each grid point, the set of atoms used to build the partition table is smoothly restricted to
  | only those atoms whose free-atom density would be non-zero at that grid point.
  Partitioning for Hartree potential was not defined. Using partition_type for integrals.
  | Adjusted default value of keyword multip_moments_threshold to:       0.10000000E-11
  | This value may affect high angular momentum components of the Hartree potential in periodic systems.
  Angular momentum expansion for Kerker preconditioner not set explicitly.
  | Using default value of   0
  No explicit requirement for turning off preconditioner.
  | By default, it will be turned off when the charge convergence reaches
  | sc_accuracy_rho  =   0.100000E-05
  No special mixing parameter while Kerker preconditioner is on.
  Using default: charge_mix_param =     0.0500.
  No q(lm)/r^(l+1) cutoff set for long-range Hartree potential.
  | Using default value of  0.100000E-09 .
  | Verify using the multipole_threshold keyword.
  Defaulting to new monopole extrapolation.
  Density update method: automatic selection selected.
  Using density matrix based charge density update.
  Using density matrix based charge density update.
  Using packed matrix style: index .
  Defaulting to use time-reversal symmetry for k-point grid.
------------------------------------------------------------


------------------------------------------------------------
          Reading geometry description geometry.in.
------------------------------------------------------------
  Input structure read successfully.
  The structure contains        1 atoms,  and a total of         14.000 electrons.

  Input geometry:
  | Unit cell:
  |        0.00000000        2.35000000        2.35000000
  |        2.35000000        0.00000000        2.35000000
  |        2.35000000        2.35000000        0.00000000
  | Atomic structure:
  |       Atom                x [A]            y [A]            z [A]
  |    1: Species Si            0.00000000        0.00000000        0.00000000

  Lattice parameters for 3D lattice (in Angstroms) :     3.323402    3.323402    3.323402
  Angle(s) between unit vectors (in degrees)      :    60.000000   60.000000   60.000000

  |

  | The smallest distance between any two atoms is         3.32340187 AA.
  |
  | The first atom of this pair is atom number                      1 .
  | The second atom of this pair is atom number                     1 .
  | Wigner-Seitz cell of the first atom image          -1     0     1 .
  | (The Wigner-Seitz cell of the second atom is 0 0 0  by definition.)

  Quantities derived from the lattice vectors:
  | Reciprocal lattice vector 1: -1.336848  1.336848  1.336848
  | Reciprocal lattice vector 2:  1.336848 -1.336848  1.336848
  | Reciprocal lattice vector 3:  1.336848  1.336848 -1.336848
  | Unit cell volume                               :   0.259558E+02  A^3

  Range separation radius for Ewald summation (hartree_convergence_parameter):      4.27309956 bohr.

  Fractional coordinates:
                         L1                L2                L3
       atom_frac         0.00000000        0.00000000        0.00000000  Si

  Number of empty states per atom not set in control.in - providing a guess from actual geometry.
  | Total number of empty states used during s.c.f. cycle:        3
  If you use a very high smearing, use empty_states (per atom!) in control.in to increase this value.

  Structure-dependent array size parameters: 
  | Maximum number of distinct radial functions  :        8
  | Maximum number of basis functions            :       18
  | Number of Kohn-Sham states (occupied + empty):       10
------------------------------------------------------------

------------------------------------------------------------
          Preparing all fixed parts of the calculation.
------------------------------------------------------------
  Determining machine precision:
     2.2250738585072014E-308
  Setting up grids for atomic and cluster calculations.

  Creating wave function, potential, and density for free atoms.

  Species: Si

  List of occupied orbitals and eigenvalues:
    n    l              occ      energy [Ha]    energy [eV]
    1    0           2.0000       -65.491668     -1782.1190
    2    0           2.0000        -5.087967      -138.4506
    3    0           2.0000        -0.391471       -10.6525
    2    1           6.0000        -3.502246       -95.3010
    3    1           2.0000        -0.143943        -3.9169

  Creating fixed part of basis set: Ionic, confined, hydrogenic.

  Si                   ion:

  List of free ionic orbitals and eigenvalues:
    n    l      energy [Ha]    energy [eV]
    1    0       -66.364436     -1805.8682
    2    0        -5.935799      -161.5213
    3    0        -1.078166       -29.3384
    2    1        -4.351123      -118.4001
    3    1        -0.781733       -21.2720


  List of ionic basis orbitals and eigenvalues:
    n    l      energy [Ha]    energy [eV]    outer radius [A]
    3    0        -1.078146       -29.3378       4.214062


  Si                   hydrogenic:

  List of hydrogenic basis orbitals: 
    n    l      effective z      eigenvalue [eV]  inner max. [A]     outer max. [A]     outer radius [A]   
    3    2         4.200000       -26.6624           1.139231           1.139231           4.534782
    2    1         1.400000        -6.4613           1.472672           1.472672           4.590560


  Adding cutoff potential to free-atom effective potential.
  Creating atomic-like basis functions for current effective potential.

  Species Si                  :

  List of atomic basis orbitals and eigenvalues:
    n    l      energy [Ha]    energy [eV]    outer radius [A]
    1    0       -65.491668     -1782.1190       0.789468
    2    0        -5.087967      -138.4506       2.815114
    3    0        -0.391471       -10.6525       4.534782
    2    1        -3.502246       -95.3010       3.259919
    3    1        -0.143943        -3.9169       4.590560

  Assembling full basis from fixed parts.
  | Species Si :   atomic orbital   1 s accepted.
  | Species Si :   atomic orbital   2 s accepted.
  | Species Si :    ionic orbital   3 s accepted.
  | Species Si :   atomic orbital   3 s accepted.
  | Species Si :   atomic orbital   2 p accepted.
  | Species Si :   atomic orbital   3 p accepted.
  | Species Si :    hydro orbital   2 p accepted.
  | Species Si :    hydro orbital   3 d accepted.

  Basis size parameters after reduction:
  | Total number of radial functions:        8
  | Total number of basis functions :       18

  Per-task memory consumption for arrays in subroutine allocate_ext:
  |           2.757468MB.
  Testing on-site integration grid accuracy.
  |  Species  Function  <phi|h_atom|phi> (log., in eV)  <phi|h_atom|phi> (rad., in eV)
           1        1              -1782.1189727076              -1782.1182429251
           1        2               -138.4506350693               -138.4506310079
           1        3                -10.3030408815                -10.3029120678
           1        4                  5.0238999146                  4.9457540310 ***
           1        5                -95.3009689499                -95.3009689315
           1        6                 -3.9266496564                 -3.9420918374
           1        7                  6.3453628447                  6.1632372158 ***
           1        8                  6.2883050744                  6.2861881409
 * Note: Onsite integrals marked "***" above are less accurate than
 * onsite_accuracy_threshold =    0.03000 eV. Usually, this is harmless.
 * When in doubt, tighten the "radial" and/or "radial_multiplier" flags to check.

  Preparing densities etc. for the partition functions (integrals / Hartree potential).

  Preparations completed.
  max(cpu_time)          :      0.096 s.
  Wall clock time (cpu1) :      0.096 s.
------------------------------------------------------------

------------------------------------------------------------
          Begin self-consistency loop: Initialization.

          Date     :  20190514, Time     :  123512.176
------------------------------------------------------------

  Initializing index lists of integration centers etc. from given atomic structure:
  Mapping all atomic coordinates to central unit cell.

  Initializing the k-points
          Using symmetry for reducing the k-points
  | k-points reduced from:     1728 to      868
  | Number of k-points                             :       868
  The eigenvectors in the calculations are COMPLEX.
  | K-points in task   0:       868
  | Number of basis functions in the Hamiltonian integrals :       764
  | Number of basis functions in a single unit cell        :        18
  | Number of centers in hartree potential         :       603
  | Number of centers in hartree multipole         :       201
  | Number of centers in electron density summation:       141
  | Number of centers in basis integrals           :       141
  | Number of centers in integrals                 :        69
  | Number of centers in hamiltonian               :       141
  | Consuming       1925 KiB for k_phase.
  | Number of super-cells (origin) [n_cells]                     :        3375
  | Number of super-cells (after PM_index) [n_cells]             :         142
  | Number of super-cells in hamiltonian [n_cells_in_hamiltonian]:         142
  | Size of matrix packed + index [n_hamiltonian_matrix_size] :       17904
  Partitioning the integration grid into batches with maxmin method.
  | Maximal weight for a single point:     1.000
  | Minimal weight for a single point:     0.716
  | Number of batches:       64
  | Maximal batch size:      90
  | Minimal batch size:      85
  | Average batch size:      87.562
  | Standard deviation of batch sizes:       1.499
  Initializing partition tables, free-atom densities, potentials, etc. across the integration grid (initialize_grid_storage).
  | initialize_grid_storage: Actual outermost partition radius vs. multipole_radius_free
  | (-- VB: in principle, multipole_radius_free should be larger, hence this output)
  | Species        1: Confinement radius =              4.999999999999999 AA, multipole_radius_free =              5.000694715736543 AA.
  | Species        1: outer_partition_radius set to              5.000694715736543 AA .
  | Original list of interatomic distances with         141 x        141 entries is created.
  | Net number of integration points:     5604
  | of which are non-zero points    :     5016
  | Numerical average free-atom electrostatic potential    :    -10.13538773 eV
  Renormalizing the initial density to the exact electron count on the 3D integration grid.
  | Initial density: Formal number of electrons (from input files) :      14.0000000000
  | Integrated number of electrons on 3D grid     :      14.0002387779
  | Charge integration error                      :       0.0002387779
  | Normalization factor for density and gradient :       0.9999829447
  Obtaining max. number of non-zero basis functions in each batch (get_n_compute_maxes).
  | Maximal number of non-zero basis functions:      370 in task     0
  Allocating        2.500 MB for KS_eigenvector_complex
  Integrating Hamiltonian matrix: batch-based integration.
  Time summed over all CPUs for integration: real work        0.190 s, elapsed        0.190 s
  Integrating overlap matrix.
  Time summed over all CPUs for integration: real work        0.130 s, elapsed        0.130 s
  Decreasing sparse matrix size:
   Tolerance:   9.9999998245167004E-014
   Hamiltonian matrix
  | Array has    13051 nonzero elements out of    17904 elements
  | Sparsity factor is 0.271
   Overlap matrix
  | Array has    12411 nonzero elements out of    17904 elements
  | Sparsity factor is 0.307
  New size of hamiltonian matrix:       13190

  Updating Kohn-Sham eigenvalues, eigenvectors, occupation numbers, and Fermi level.
  Solving generalized eigenproblem
  Transforming overlap matrix and checking for singularities.
  Overlap matrix is nonsingular at first k-point:
  | Lowest eigenvalue:  0.216285E-02

  Obtaining occupation numbers and chemical potential using ELSI.
  | Chemical potential (Fermi level):    -5.01949233eV
  Writing Kohn-Sham eigenvalues.
  K-point:       1 at    0.000000    0.000000    0.000000 (in units of recip. lattice)

  State    Occupation    Eigenvalue [Ha]    Eigenvalue [eV]
      1       2.00000         -65.492632        -1782.14518
      2       2.00000          -5.089639         -138.49611
      3       2.00000          -3.503892          -95.34575
      4       2.00000          -3.503892          -95.34575
      5       2.00000          -3.503892          -95.34575
      6       2.00000          -0.550999          -14.99344
      7       0.00000           0.031437            0.85544
      8       0.00000           0.031437            0.85544
      9       0.00000           0.031437            0.85544
     10       0.00000           0.206055            5.60705

  What follows are estimated values for band gap, HOMO, LUMO, etc.
  | They are estimated on a discrete k-point grid and not necessarily exact.
  | For converged numbers, create a DOS and/or band structure plot on a denser k-grid.

  Highest occupied state (VBM) at     -5.03606830 eV (relative to internal zero)
  | Occupation number:      1.98093183
  | K-point:     233 at    0.166667    0.416667    0.583333 (in units of recip. lattice)

  Lowest unoccupied state (CBM) at    -5.01578910 eV (relative to internal zero)
  | Occupation number:      0.60047613
  | K-point:     472 at    0.333333    0.666667    0.166667 (in units of recip. lattice)

  ESTIMATED overall HOMO-LUMO gap:      0.02027920 eV between HOMO at k-point 233 and LUMO at k-point 472
  | This appears to be an indirect band gap.
  | Smallest direct gap :      0.57861405 eV for k_point 243 at    0.333333    0.666667    0.166667 (in units of recip. lattice)
  However, this system has fractional occupation numbers. Since we use a finite k-point grid,
  this material is metallic within the approximate finite broadening function (occupation_type)
  applied to determine the occupation numbers.
  Calculating total energy contributions from superposition of free atom densities.

  Total energy components:
  | Sum of eigenvalues            :        -163.53029876 Ha       -4449.88583687 eV
  | XC energy correction          :         -19.72703223 Ha        -536.79985893 eV
  | XC potential correction       :          26.06339633 Ha         709.22109880 eV
  | Free-atom electrostatic energy:        -132.12178571 Ha       -3595.21671176 eV
  | Hartree energy correction     :          -0.00000000 Ha          -0.00000000 eV
  | Entropy correction            :          -0.00000136 Ha          -0.00003695 eV
  | ---------------------------
  | Total energy                  :        -289.31572037 Ha       -7872.68130876 eV
  | Total energy, T -> 0          :        -289.31572172 Ha       -7872.68134571 eV  <-- do not rely on this value for anything but (periodic) metals
  | Electronic free energy        :        -289.31572308 Ha       -7872.68138266 eV

  Derived energy quantities:
  | Kinetic energy                :         289.62466122 Ha        7881.08801701 eV
  | Electrostatic energy          :        -559.21334936 Ha      -15216.96946684 eV
  | Energy correction for multipole
  | error in Hartree potential    :           0.00000000 Ha           0.00000000 eV
  | Sum of eigenvalues per atom                           :       -4449.88583687 eV
  | Total energy (T->0) per atom                          :       -7872.68134571 eV  <-- do not rely on this value for anything but (periodic) metals
  | Electronic free energy per atom                       :       -7872.68138266 eV
  Initialize hartree_potential_storage
  Max. number of atoms included in rho_multipole:            1

  End scf initialization - timings             :  max(cpu_time)    wall_clock(cpu1)
  | Time for scf. initialization               :        0.688 s           0.690 s
  | Boundary condition initialization          :        0.040 s           0.041 s
  | Integration                                :        0.319 s           0.320 s
  | Solution of K.-S. eqns.                    :        0.253 s           0.254 s
  | Grid partitioning                          :        0.011 s           0.011 s
  | Preloading free-atom quantities on grid    :        0.001 s           0.001 s
  | Free-atom superposition energy             :        0.012 s           0.012 s
  | Total energy evaluation                    :        0.000 s           0.000 s

  Partial memory accounting:
  | Current value for overall tracked memory usage on task 0  :           2.764 MB
  | Peak value for overall tracked memory usage on task 0     :           4.753 MB after allocating wave
  | Largest tracked array allocation on task 0 so far         :           2.500 MB  when allocating +KS_eigenvector_complex
  Note:  These values currently only include a subset of arrays which are explicitly tracked.
  The "true" memory usage will be greater.
------------------------------------------------------------

------------------------------------------------------------
          Begin self-consistency iteration #    1

  Date     :  20190514, Time     :  123512.866
------------------------------------------------------------
  Evaluating new KS density using the density matrix
  Evaluating density matrix
  Time summed over all CPUs for getting density from density matrix: real work        0.314 s, elapsed        0.314 s
  Integration grid: deviation in total charge (<rho> - N_e) =  -2.149392E-13
  Pulay mixing of updated and previous charge densities.

  Evaluating partitioned Hartree potential by multipole expansion.
  | Analytical far-field extrapolation by fixed multipoles:
  | Hartree multipole sum: apparent total charge =   0.136828E-03
  Summing up the Hartree potential.
  | Estimated reciprocal-space cutoff momentum G_max:         2.17473078 bohr^-1 .
  | Reciprocal lattice points for long-range Hartree potential:      26
  Time summed over all CPUs for potential: real work        0.131 s, elapsed        0.131 s
  | RMS charge density error from multipole expansion :   0.657388E-04
  | Average real-space part of the electrostatic potential :     -0.01142607 eV

  Integrating Hamiltonian matrix: batch-based integration.
  Time summed over all CPUs for integration: real work        0.194 s, elapsed        0.194 s

  Updating Kohn-Sham eigenvalues, eigenvectors, occupation numbers, and Fermi level.
  Solving generalized eigenproblem

  Obtaining occupation numbers and chemical potential using ELSI.
  | Chemical potential (Fermi level):    -5.02509852eV
  Writing Kohn-Sham eigenvalues.
  K-point:       1 at    0.000000    0.000000    0.000000 (in units of recip. lattice)

  State    Occupation    Eigenvalue [Ha]    Eigenvalue [eV]
      1       2.00000         -65.495149        -1782.21369
      2       2.00000          -5.091212         -138.53893
      3       2.00000          -3.505524          -95.39017
      4       2.00000          -3.505524          -95.39016
      5       2.00000          -3.505524          -95.39016
      6       2.00000          -0.551195          -14.99879
      7       0.00000           0.031067            0.84537
      8       0.00000           0.031067            0.84537
      9       0.00000           0.031067            0.84537
     10       0.00000           0.205869            5.60197

  What follows are estimated values for band gap, HOMO, LUMO, etc.
  | They are estimated on a discrete k-point grid and not necessarily exact.
  | For converged numbers, create a DOS and/or band structure plot on a denser k-grid.

  Highest occupied state (VBM) at     -5.04083189 eV (relative to internal zero)
  | Occupation number:      1.97392104
  | K-point:     768 at    0.750000    0.166667    0.583333 (in units of recip. lattice)

  Lowest unoccupied state (CBM) at    -5.02147803 eV (relative to internal zero)
  | Occupation number:      0.60864002
  | K-point:     655 at    0.500000    0.333333    0.666667 (in units of recip. lattice)

  ESTIMATED overall HOMO-LUMO gap:      0.01935386 eV between HOMO at k-point 768 and LUMO at k-point 655
  | This appears to be an indirect band gap.
  | Smallest direct gap :      0.57933554 eV for k_point 493 at    0.500000    0.333333    0.666667 (in units of recip. lattice)
  However, this system has fractional occupation numbers. Since we use a finite k-point grid,
  this material is metallic within the approximate finite broadening function (occupation_type)
  applied to determine the occupation numbers.

  Total energy components:
  | Sum of eigenvalues            :        -163.54914480 Ha       -4450.39866381 eV
  | XC energy correction          :         -19.72568557 Ha        -536.76321464 eV
  | XC potential correction       :          26.06161591 Ha         709.17265125 eV
  | Free-atom electrostatic energy:        -132.12178571 Ha       -3595.21671176 eV
  | Hartree energy correction     :           0.01935248 Ha           0.52660769 eV
  | Entropy correction            :          -0.00000139 Ha          -0.00003779 eV
  | ---------------------------
  | Total energy                  :        -289.31564769 Ha       -7872.67933127 eV
  | Total energy, T -> 0          :        -289.31564908 Ha       -7872.67936906 eV  <-- do not rely on this value for anything but (periodic) metals
  | Electronic free energy        :        -289.31565047 Ha       -7872.67940684 eV

  Derived energy quantities:
  | Kinetic energy                :         289.60257844 Ha        7880.48711415 eV
  | Electrostatic energy          :        -559.19254056 Ha      -15216.40323079 eV
  | Energy correction for multipole
  | error in Hartree potential    :           0.00000916 Ha           0.00024926 eV
  | Sum of eigenvalues per atom                           :       -4450.39866381 eV
  | Total energy (T->0) per atom                          :       -7872.67936906 eV  <-- do not rely on this value for anything but (periodic) metals
  | Electronic free energy per atom                       :       -7872.67940684 eV

  Self-consistency convergence accuracy:
  | Change of charge density      :  0.2563E-01
  | Change of sum of eigenvalues  : -0.5128E+00 eV
  | Change of total energy        :  0.1977E-02 eV

  End self-consistency iteration #     1       :  max(cpu_time)    wall_clock(cpu1)
  | Time for this iteration                    :        0.814 s           0.815 s
  | Charge density update                      :        0.336 s           0.337 s
  | Density mixing & preconditioning           :        0.021 s           0.020 s
  | Hartree multipole update                   :        0.000 s           0.001 s
  | Hartree multipole summation                :        0.132 s           0.132 s
  | Integration                                :        0.194 s           0.194 s
  | Solution of K.-S. eqns.                    :        0.130 s           0.131 s
  | Total energy evaluation                    :        0.000 s           0.000 s

  Partial memory accounting:
  | Current value for overall tracked memory usage on task 0  :           2.764 MB
  | Peak value for overall tracked memory usage on task 0     :           4.753 MB after allocating wave
  | Largest tracked array allocation on task 0 so far         :           2.500 MB  when allocating +KS_eigenvector_complex
  Note:  These values currently only include a subset of arrays which are explicitly tracked.
  The "true" memory usage will be greater.
------------------------------------------------------------

------------------------------------------------------------
          Begin self-consistency iteration #    2

  Date     :  20190514, Time     :  123513.681
------------------------------------------------------------
  Evaluating new KS density using the density matrix
  Evaluating density matrix
  Time summed over all CPUs for getting density from density matrix: real work        0.312 s, elapsed        0.312 s
  Integration grid: deviation in total charge (<rho> - N_e) =  -3.570477E-13
  Pulay mixing of updated and previous charge densities.

  Evaluating partitioned Hartree potential by multipole expansion.
  | Analytical far-field extrapolation by fixed multipoles:
  | Hartree multipole sum: apparent total charge =  -0.165068E-02
  Summing up the Hartree potential.
  Time summed over all CPUs for potential: real work        0.165 s, elapsed        0.165 s
  | RMS charge density error from multipole expansion :   0.121575E-02
  | Average real-space part of the electrostatic potential :     -0.17661497 eV

  Integrating Hamiltonian matrix: batch-based integration.
  Time summed over all CPUs for integration: real work        0.190 s, elapsed        0.190 s

  Updating Kohn-Sham eigenvalues, eigenvectors, occupation numbers, and Fermi level.
  Solving generalized eigenproblem

  Obtaining occupation numbers and chemical potential using ELSI.
  | Chemical potential (Fermi level):    -5.11315304eV
  What follows are estimated values for band gap, HOMO, LUMO, etc.
  | They are estimated on a discrete k-point grid and not necessarily exact.
  | For converged numbers, create a DOS and/or band structure plot on a denser k-grid.

  Highest occupied state (VBM) at     -5.11341001 eV (relative to internal zero)
  | Occupation number:      1.02898980
  | K-point:     423 at    0.333333    0.166667    0.666667 (in units of recip. lattice)

  Lowest unoccupied state (CBM) at    -5.06993173 eV (relative to internal zero)
  | Occupation number:      0.00000000
  | K-point:     821 at    0.833333    0.666667    0.250000 (in units of recip. lattice)

  ESTIMATED overall HOMO-LUMO gap:      0.04347828 eV between HOMO at k-point 423 and LUMO at k-point 821
  | This appears to be an indirect band gap.
  | Smallest direct gap :      0.59047952 eV for k_point 656 at    0.833333    0.666667    0.250000 (in units of recip. lattice)
  However, this system has fractional occupation numbers. Since we use a finite k-point grid,
  this material is metallic within the approximate finite broadening function (occupation_type)
  applied to determine the occupation numbers.

  Checking to see if s.c.f. parameters should be adjusted.
  Adjusted the Pulay mixing parameter (charge_mix_param) for an expected low-gap system. New value:   0.020000 .
  Adjusted the occupation broadening width for an expected low-gap system. New value:      0.05000000 eV.

  Total energy components:
  | Sum of eigenvalues            :        -163.82474209 Ha       -4457.89804751 eV
  | XC energy correction          :         -19.70273608 Ha        -536.13872706 eV
  | XC potential correction       :          26.03127410 Ha         708.34700851 eV
  | Free-atom electrostatic energy:        -132.12178571 Ha       -3595.21671176 eV
  | Hartree energy correction     :           0.30301874 Ha           8.24555957 eV
  | Entropy correction            :          -0.00004034 Ha          -0.00109771 eV
  | ---------------------------
  | Total energy                  :        -289.31497103 Ha       -7872.66091826 eV
  | Total energy, T -> 0          :        -289.31501137 Ha       -7872.66201597 eV  <-- do not rely on this value for anything but (periodic) metals
  | Electronic free energy        :        -289.31505171 Ha       -7872.66311368 eV

  Derived energy quantities:
  | Kinetic energy                :         289.34862202 Ha        7873.57660838 eV
  | Electrostatic energy          :        -558.96085697 Ha      -15210.09879958 eV
  | Energy correction for multipole
  | error in Hartree potential    :           0.00017777 Ha           0.00483740 eV
  | Sum of eigenvalues per atom                           :       -4457.89804751 eV
  | Total energy (T->0) per atom                          :       -7872.66201597 eV  <-- do not rely on this value for anything but (periodic) metals
  | Electronic free energy per atom                       :       -7872.66311368 eV

  Self-consistency convergence accuracy:
  | Change of charge density      :  0.2433E-01
  | Change of sum of eigenvalues  : -0.7499E+01 eV
  | Change of total energy        :  0.1841E-01 eV

  End self-consistency iteration #     2       :  max(cpu_time)    wall_clock(cpu1)
  | Time for this iteration                    :        0.846 s           0.846 s
  | Charge density update                      :        0.336 s           0.336 s
  | Density mixing & preconditioning           :        0.022 s           0.021 s
  | Hartree multipole update                   :        0.001 s           0.001 s
  | Hartree multipole summation                :        0.167 s           0.167 s
  | Integration                                :        0.191 s           0.190 s
  | Solution of K.-S. eqns.                    :        0.130 s           0.131 s
  | Total energy evaluation                    :        0.000 s           0.000 s

  Partial memory accounting:
  | Current value for overall tracked memory usage on task 0  :           2.765 MB
  | Peak value for overall tracked memory usage on task 0     :           4.753 MB after allocating wave
  | Largest tracked array allocation on task 0 so far         :           2.500 MB  when allocating +KS_eigenvector_complex
  Note:  These values currently only include a subset of arrays which are explicitly tracked.
  The "true" memory usage will be greater.
------------------------------------------------------------

------------------------------------------------------------
          Begin self-consistency iteration #    3

  Date     :  20190514, Time     :  123514.527
------------------------------------------------------------
  Evaluating new KS density using the density matrix
  Evaluating density matrix
  Time summed over all CPUs for getting density from density matrix: real work        0.321 s, elapsed        0.321 s
  Integration grid: deviation in total charge (<rho> - N_e) =  -3.339551E-13
  Pulay mixing of updated and previous charge densities.

  Evaluating partitioned Hartree potential by multipole expansion.
  | Analytical far-field extrapolation by fixed multipoles:
  | Hartree multipole sum: apparent total charge =  -0.237997E-02
  Summing up the Hartree potential.
  Time summed over all CPUs for potential: real work        0.168 s, elapsed        0.168 s
  | RMS charge density error from multipole expansion :   0.166749E-02
  | Average real-space part of the electrostatic potential :     -0.24286622 eV

  Integrating Hamiltonian matrix: batch-based integration.
  Time summed over all CPUs for integration: real work        0.196 s, elapsed        0.196 s

  Updating Kohn-Sham eigenvalues, eigenvectors, occupation numbers, and Fermi level.
  Solving generalized eigenproblem

  Obtaining occupation numbers and chemical potential using ELSI.
  | Chemical potential (Fermi level):    -5.13393079eV
  What follows are estimated values for band gap, HOMO, LUMO, etc.
  | They are estimated on a discrete k-point grid and not necessarily exact.
  | For converged numbers, create a DOS and/or band structure plot on a denser k-grid.

  Highest occupied state (VBM) at     -5.14860844 eV (relative to internal zero)
  | Occupation number:      1.32196554
  | K-point:     571 at    0.416667    0.583333    0.166667 (in units of recip. lattice)

  Lowest unoccupied state (CBM) at    -5.10369867 eV (relative to internal zero)
  | Occupation number:      0.39249941
  | K-point:     821 at    0.833333    0.666667    0.250000 (in units of recip. lattice)

  ESTIMATED overall HOMO-LUMO gap:      0.04490977 eV between HOMO at k-point 571 and LUMO at k-point 821
  | This appears to be an indirect band gap.
  | Smallest direct gap :      0.59467672 eV for k_point 656 at    0.833333    0.666667    0.250000 (in units of recip. lattice)
  However, this system has fractional occupation numbers. Since we use a finite k-point grid,
  this material is metallic within the approximate finite broadening function (occupation_type)
  applied to determine the occupation numbers.

  Total energy components:
  | Sum of eigenvalues            :        -163.92131812 Ha       -4460.52601512 eV
  | XC energy correction          :         -19.69555258 Ha        -535.94325415 eV
  | XC potential correction       :          26.02178699 Ha         708.08885129 eV
  | Free-atom electrostatic energy:        -132.12178571 Ha       -3595.21671176 eV
  | Hartree energy correction     :           0.40196701 Ha          10.93807888 eV
  | Entropy correction            :          -0.00003846 Ha          -0.00104656 eV
  | ---------------------------
  | Total energy                  :        -289.31490240 Ha       -7872.65905085 eV
  | Total energy, T -> 0          :        -289.31494086 Ha       -7872.66009742 eV  <-- do not rely on this value for anything but (periodic) metals
  | Electronic free energy        :        -289.31497932 Ha       -7872.66114398 eV

  Derived energy quantities:
  | Kinetic energy                :         289.28166734 Ha        7871.75467867 eV
  | Electrostatic energy          :        -558.90101716 Ha      -15208.47047538 eV
  | Energy correction for multipole
  | error in Hartree potential    :           0.00025110 Ha           0.00683272 eV
  | Sum of eigenvalues per atom                           :       -4460.52601512 eV
  | Total energy (T->0) per atom                          :       -7872.66009742 eV  <-- do not rely on this value for anything but (periodic) metals
  | Electronic free energy per atom                       :       -7872.66114398 eV

  Self-consistency convergence accuracy:
  | Change of charge density      :  0.6122E-02
  | Change of sum of eigenvalues  : -0.2628E+01 eV
  | Change of total energy        :  0.1867E-02 eV

  End self-consistency iteration #     3       :  max(cpu_time)    wall_clock(cpu1)
  | Time for this iteration                    :        0.862 s           0.862 s
  | Charge density update                      :        0.344 s           0.344 s
  | Density mixing & preconditioning           :        0.019 s           0.020 s
  | Hartree multipole update                   :        0.000 s           0.000 s
  | Hartree multipole summation                :        0.170 s           0.170 s
  | Integration                                :        0.196 s           0.196 s
  | Solution of K.-S. eqns.                    :        0.132 s           0.132 s
  | Total energy evaluation                    :        0.000 s           0.000 s

  Partial memory accounting:
  | Current value for overall tracked memory usage on task 0  :           2.765 MB
  | Peak value for overall tracked memory usage on task 0     :           4.753 MB after allocating wave
  | Largest tracked array allocation on task 0 so far         :           2.500 MB  when allocating +KS_eigenvector_complex
  Note:  These values currently only include a subset of arrays which are explicitly tracked.
  The "true" memory usage will be greater.
------------------------------------------------------------

------------------------------------------------------------
          Begin self-consistency iteration #    4

  Date     :  20190514, Time     :  123515.389
------------------------------------------------------------
  Evaluating new KS density using the density matrix
  Evaluating density matrix
  Time summed over all CPUs for getting density from density matrix: real work        0.321 s, elapsed        0.321 s
  Integration grid: deviation in total charge (<rho> - N_e) =  -2.557954E-13
  Pulay mixing of updated and previous charge densities.

  Evaluating partitioned Hartree potential by multipole expansion.
  | Analytical far-field extrapolation by fixed multipoles:
  | Hartree multipole sum: apparent total charge =  -0.215402E-02
  Summing up the Hartree potential.
  Time summed over all CPUs for potential: real work        0.169 s, elapsed        0.169 s
  | RMS charge density error from multipole expansion :   0.151713E-02
  | Average real-space part of the electrostatic potential :     -0.22405583 eV

  Integrating Hamiltonian matrix: batch-based integration.
  Time summed over all CPUs for integration: real work        0.192 s, elapsed        0.192 s

  Updating Kohn-Sham eigenvalues, eigenvectors, occupation numbers, and Fermi level.
  Solving generalized eigenproblem

  Obtaining occupation numbers and chemical potential using ELSI.
  | Chemical potential (Fermi level):    -5.12235593eV
  What follows are estimated values for band gap, HOMO, LUMO, etc.
  | They are estimated on a discrete k-point grid and not necessarily exact.
  | For converged numbers, create a DOS and/or band structure plot on a denser k-grid.

  Highest occupied state (VBM) at     -5.13605030 eV (relative to internal zero)
  | Occupation number:      1.30149187
  | K-point:     423 at    0.333333    0.166667    0.666667 (in units of recip. lattice)

  Lowest unoccupied state (CBM) at    -5.09155585 eV (relative to internal zero)
  | Occupation number:      0.38366795
  | K-point:     586 at    0.416667    0.666667    0.833333 (in units of recip. lattice)

  ESTIMATED overall HOMO-LUMO gap:      0.04449445 eV between HOMO at k-point 423 and LUMO at k-point 586
  | This appears to be an indirect band gap.
  | Smallest direct gap :      0.59336948 eV for k_point 656 at    0.416667    0.666667    0.833333 (in units of recip. lattice)
  However, this system has fractional occupation numbers. Since we use a finite k-point grid,
  this material is metallic within the approximate finite broadening function (occupation_type)
  applied to determine the occupation numbers.

  Total energy components:
  | Sum of eigenvalues            :        -163.85607445 Ha       -4458.75064462 eV
  | XC energy correction          :         -19.70263144 Ha        -536.13587978 eV
  | XC potential correction       :          26.03117403 Ha         708.34428553 eV
  | Free-atom electrostatic energy:        -132.12178571 Ha       -3595.21671176 eV
  | Hartree energy correction     :           0.33442373 Ha           9.10013270 eV
  | Entropy correction            :          -0.00003800 Ha          -0.00103415 eV
  | ---------------------------
  | Total energy                  :        -289.31489384 Ha       -7872.65881793 eV
  | Total energy, T -> 0          :        -289.31493185 Ha       -7872.65985207 eV  <-- do not rely on this value for anything but (periodic) metals
  | Electronic free energy        :        -289.31496985 Ha       -7872.66088622 eV

  Derived energy quantities:
  | Kinetic energy                :         289.39605193 Ha        7874.86724193 eV
  | Electrostatic energy          :        -559.00831434 Ha      -15211.39018008 eV
  | Energy correction for multipole
  | error in Hartree potential    :           0.00023374 Ha           0.00636026 eV
  | Sum of eigenvalues per atom                           :       -4458.75064462 eV
  | Total energy (T->0) per atom                          :       -7872.65985207 eV  <-- do not rely on this value for anything but (periodic) metals
  | Electronic free energy per atom                       :       -7872.66088622 eV

  Self-consistency convergence accuracy:
  | Change of charge density      :  0.7415E-02
  | Change of sum of eigenvalues  :  0.1775E+01 eV
  | Change of total energy        :  0.2329E-03 eV

  End self-consistency iteration #     4       :  max(cpu_time)    wall_clock(cpu1)
  | Time for this iteration                    :        0.859 s           0.859 s
  | Charge density update                      :        0.344 s           0.344 s
  | Density mixing & preconditioning           :        0.021 s           0.021 s
  | Hartree multipole update                   :        0.000 s           0.001 s
  | Hartree multipole summation                :        0.170 s           0.170 s
  | Integration                                :        0.192 s           0.192 s
  | Solution of K.-S. eqns.                    :        0.131 s           0.131 s
  | Total energy evaluation                    :        0.000 s           0.000 s

  Partial memory accounting:
  | Current value for overall tracked memory usage on task 0  :           2.766 MB
  | Peak value for overall tracked memory usage on task 0     :           4.753 MB after allocating wave
  | Largest tracked array allocation on task 0 so far         :           2.500 MB  when allocating +KS_eigenvector_complex
  Note:  These values currently only include a subset of arrays which are explicitly tracked.
  The "true" memory usage will be greater.
------------------------------------------------------------

------------------------------------------------------------
          Begin self-consistency iteration #    5

  Date     :  20190514, Time     :  123516.249
------------------------------------------------------------
  Evaluating new KS density using the density matrix
  Evaluating density matrix
  Time summed over all CPUs for getting density from density matrix: real work        0.315 s, elapsed        0.315 s
  Integration grid: deviation in total charge (<rho> - N_e) =  -2.451372E-13
  Pulay mixing of updated and previous charge densities.

  Evaluating partitioned Hartree potential by multipole expansion.
  | Analytical far-field extrapolation by fixed multipoles:
  | Hartree multipole sum: apparent total charge =  -0.211188E-02
  Summing up the Hartree potential.
  Time summed over all CPUs for potential: real work        0.165 s, elapsed        0.165 s
  | RMS charge density error from multipole expansion :   0.153461E-02
  | Average real-space part of the electrostatic potential :     -0.22721433 eV

  Integrating Hamiltonian matrix: batch-based integration.
  Time summed over all CPUs for integration: real work        0.194 s, elapsed        0.194 s

  Updating Kohn-Sham eigenvalues, eigenvectors, occupation numbers, and Fermi level.
  Solving generalized eigenproblem

  Obtaining occupation numbers and chemical potential using ELSI.
  | Chemical potential (Fermi level):    -5.12343762eV
  What follows are estimated values for band gap, HOMO, LUMO, etc.
  | They are estimated on a discrete k-point grid and not necessarily exact.
  | For converged numbers, create a DOS and/or band structure plot on a denser k-grid.

  Highest occupied state (VBM) at     -5.13724666 eV (relative to internal zero)
  | Occupation number:      1.30389119
  | K-point:     423 at    0.333333    0.166667    0.666667 (in units of recip. lattice)

  Lowest unoccupied state (CBM) at    -5.09269609 eV (relative to internal zero)
  | Occupation number:      0.38457273
  | K-point:     235 at    0.166667    0.416667    0.833333 (in units of recip. lattice)

  ESTIMATED overall HOMO-LUMO gap:      0.04455057 eV between HOMO at k-point 423 and LUMO at k-point 235
  | This appears to be an indirect band gap.
  | Smallest direct gap :      0.59353494 eV for k_point 656 at    0.166667    0.416667    0.833333 (in units of recip. lattice)
  However, this system has fractional occupation numbers. Since we use a finite k-point grid,
  this material is metallic within the approximate finite broadening function (occupation_type)
  applied to determine the occupation numbers.

  Total energy components:
  | Sum of eigenvalues            :        -163.85724290 Ha       -4458.78243963 eV
  | XC energy correction          :         -19.70268363 Ha        -536.13729990 eV
  | XC potential correction       :          26.03124612 Ha         708.34624709 eV
  | Free-atom electrostatic energy:        -132.12178571 Ha       -3595.21671176 eV
  | Hartree energy correction     :           0.33557303 Ha           9.13140679 eV
  | Entropy correction            :          -0.00003804 Ha          -0.00103524 eV
  | ---------------------------
  | Total energy                  :        -289.31489309 Ha       -7872.65879740 eV
  | Total energy, T -> 0          :        -289.31493113 Ha       -7872.65983264 eV  <-- do not rely on this value for anything but (periodic) metals
  | Electronic free energy        :        -289.31496918 Ha       -7872.66086788 eV

  Derived energy quantities:
  | Kinetic energy                :         289.40033901 Ha        7874.98389930 eV
  | Electrostatic energy          :        -559.01254847 Ha      -15211.50539680 eV
  | Energy correction for multipole
  | error in Hartree potential    :           0.00023704 Ha           0.00645015 eV
  | Sum of eigenvalues per atom                           :       -4458.78243963 eV
  | Total energy (T->0) per atom                          :       -7872.65983264 eV  <-- do not rely on this value for anything but (periodic) metals
  | Electronic free energy per atom                       :       -7872.66086788 eV

  Self-consistency convergence accuracy:
  | Change of charge density      :  0.8252E-03
  | Change of sum of eigenvalues  : -0.3180E-01 eV
  | Change of total energy        :  0.2053E-04 eV

  End self-consistency iteration #     5       :  max(cpu_time)    wall_clock(cpu1)
  | Time for this iteration                    :        0.850 s           0.849 s
  | Charge density update                      :        0.339 s           0.339 s
  | Density mixing & preconditioning           :        0.019 s           0.019 s
  | Hartree multipole update                   :        0.000 s           0.000 s
  | Hartree multipole summation                :        0.167 s           0.167 s
  | Integration                                :        0.194 s           0.194 s
  | Solution of K.-S. eqns.                    :        0.130 s           0.130 s
  | Total energy evaluation                    :        0.000 s           0.000 s

  Partial memory accounting:
  | Current value for overall tracked memory usage on task 0  :           2.766 MB
  | Peak value for overall tracked memory usage on task 0     :           4.753 MB after allocating wave
  | Largest tracked array allocation on task 0 so far         :           2.500 MB  when allocating +KS_eigenvector_complex
  Note:  These values currently only include a subset of arrays which are explicitly tracked.
  The "true" memory usage will be greater.
------------------------------------------------------------

------------------------------------------------------------
          Begin self-consistency iteration #    6

  Date     :  20190514, Time     :  123517.098
------------------------------------------------------------
  Evaluating new KS density using the density matrix
  Evaluating density matrix
  Time summed over all CPUs for getting density from density matrix: real work        0.313 s, elapsed        0.313 s
  Integration grid: deviation in total charge (<rho> - N_e) =  -2.380318E-13
  Pulay mixing of updated and previous charge densities.

  Evaluating partitioned Hartree potential by multipole expansion.
  | Analytical far-field extrapolation by fixed multipoles:
  | Hartree multipole sum: apparent total charge =   0.748836E-04
  Summing up the Hartree potential.
  Time summed over all CPUs for potential: real work        0.166 s, elapsed        0.166 s
  | RMS charge density error from multipole expansion :   0.155880E-02
  | Average real-space part of the electrostatic potential :     -0.24317990 eV

  Integrating Hamiltonian matrix: batch-based integration.
  Time summed over all CPUs for integration: real work        0.190 s, elapsed        0.190 s

  Updating Kohn-Sham eigenvalues, eigenvectors, occupation numbers, and Fermi level.
  Solving generalized eigenproblem

  Obtaining occupation numbers and chemical potential using ELSI.
  | Chemical potential (Fermi level):    -5.12316973eV
  What follows are estimated values for band gap, HOMO, LUMO, etc.
  | They are estimated on a discrete k-point grid and not necessarily exact.
  | For converged numbers, create a DOS and/or band structure plot on a denser k-grid.

  Highest occupied state (VBM) at     -5.13715538 eV (relative to internal zero)
  | Occupation number:      1.30758068
  | K-point:     472 at    0.333333    0.666667    0.166667 (in units of recip. lattice)

  Lowest unoccupied state (CBM) at    -5.09251805 eV (relative to internal zero)
  | Occupation number:      0.38596364
  | K-point:     821 at    0.833333    0.666667    0.250000 (in units of recip. lattice)

  ESTIMATED overall HOMO-LUMO gap:      0.04463734 eV between HOMO at k-point 472 and LUMO at k-point 821
  | This appears to be an indirect band gap.
  | Smallest direct gap :      0.59379325 eV for k_point 656 at    0.833333    0.666667    0.250000 (in units of recip. lattice)
  However, this system has fractional occupation numbers. Since we use a finite k-point grid,
  this material is metallic within the approximate finite broadening function (occupation_type)
  applied to determine the occupation numbers.

  Total energy components:
  | Sum of eigenvalues            :        -163.86493792 Ha       -4458.99183189 eV
  | XC energy correction          :         -19.70099551 Ha        -536.09136381 eV
  | XC potential correction       :          26.02902313 Ha         708.28575654 eV
  | Free-atom electrostatic energy:        -132.12178571 Ha       -3595.21671176 eV
  | Hartree energy correction     :           0.34380379 Ha           9.35537712 eV
  | Entropy correction            :          -0.00003811 Ha          -0.00103697 eV
  | ---------------------------
  | Total energy                  :        -289.31489222 Ha       -7872.65877380 eV
  | Total energy, T -> 0          :        -289.31493033 Ha       -7872.65981078 eV  <-- do not rely on this value for anything but (periodic) metals
  | Electronic free energy        :        -289.31496844 Ha       -7872.66084775 eV

  Derived energy quantities:
  | Kinetic energy                :         289.38645669 Ha        7874.60614200 eV
  | Electrostatic energy          :        -559.00035340 Ha      -15211.17355199 eV
  | Energy correction for multipole
  | error in Hartree potential    :           0.00023876 Ha           0.00649707 eV
  | Sum of eigenvalues per atom                           :       -4458.99183189 eV
  | Total energy (T->0) per atom                          :       -7872.65981078 eV  <-- do not rely on this value for anything but (periodic) metals
  | Electronic free energy per atom                       :       -7872.66084775 eV

  Self-consistency convergence accuracy:
  | Change of charge density      :  0.1017E-02
  | Change of sum of eigenvalues  : -0.2094E+00 eV
  | Change of total energy        :  0.2360E-04 eV

  End self-consistency iteration #     6       :  max(cpu_time)    wall_clock(cpu1)
  | Time for this iteration                    :        0.846 s           0.847 s
  | Charge density update                      :        0.337 s           0.337 s
  | Density mixing & preconditioning           :        0.021 s           0.021 s
  | Hartree multipole update                   :        0.000 s           0.001 s
  | Hartree multipole summation                :        0.168 s           0.167 s
  | Integration                                :        0.190 s           0.190 s
  | Solution of K.-S. eqns.                    :        0.130 s           0.130 s
  | Total energy evaluation                    :        0.000 s           0.000 s

  Partial memory accounting:
  | Current value for overall tracked memory usage on task 0  :           2.766 MB
  | Peak value for overall tracked memory usage on task 0     :           4.753 MB after allocating wave
  | Largest tracked array allocation on task 0 so far         :           2.500 MB  when allocating +KS_eigenvector_complex
  Note:  These values currently only include a subset of arrays which are explicitly tracked.
  The "true" memory usage will be greater.
------------------------------------------------------------

------------------------------------------------------------
          Begin self-consistency iteration #    7

  Date     :  20190514, Time     :  123517.945
------------------------------------------------------------
  Evaluating new KS density using the density matrix
  Evaluating density matrix
  Time summed over all CPUs for getting density from density matrix: real work        0.316 s, elapsed        0.316 s
  Integration grid: deviation in total charge (<rho> - N_e) =  -1.030287E-13
  Pulay mixing of updated and previous charge densities.

  Evaluating partitioned Hartree potential by multipole expansion.
  | Analytical far-field extrapolation by fixed multipoles:
  | Hartree multipole sum: apparent total charge =   0.124164E-03
  Summing up the Hartree potential.
  Time summed over all CPUs for potential: real work        0.166 s, elapsed        0.166 s
  | RMS charge density error from multipole expansion :   0.155670E-02
  | Average real-space part of the electrostatic potential :     -0.24311111 eV

  Integrating Hamiltonian matrix: batch-based integration.
  Time summed over all CPUs for integration: real work        0.196 s, elapsed        0.196 s

  Updating Kohn-Sham eigenvalues, eigenvectors, occupation numbers, and Fermi level.
  Solving generalized eigenproblem

  Obtaining occupation numbers and chemical potential using ELSI.
  | Chemical potential (Fermi level):    -5.12296493eV
  What follows are estimated values for band gap, HOMO, LUMO, etc.
  | They are estimated on a discrete k-point grid and not necessarily exact.
  | For converged numbers, create a DOS and/or band structure plot on a denser k-grid.

  Highest occupied state (VBM) at     -5.13693398 eV (relative to internal zero)
  | Occupation number:      1.30723410
  | K-point:     472 at    0.333333    0.666667    0.166667 (in units of recip. lattice)

  Lowest unoccupied state (CBM) at    -5.09230508 eV (relative to internal zero)
  | Occupation number:      0.38583707
  | K-point:     603 at    0.416667    0.833333    0.666667 (in units of recip. lattice)

  ESTIMATED overall HOMO-LUMO gap:      0.04462890 eV between HOMO at k-point 472 and LUMO at k-point 603
  | This appears to be an indirect band gap.
  | Smallest direct gap :      0.59377322 eV for k_point 656 at    0.416667    0.833333    0.666667 (in units of recip. lattice)
  However, this system has fractional occupation numbers. Since we use a finite k-point grid,
  this material is metallic within the approximate finite broadening function (occupation_type)
  applied to determine the occupation numbers.

  Total energy components:
  | Sum of eigenvalues            :        -163.86442821 Ha       -4458.97796203 eV
  | XC energy correction          :         -19.70101503 Ha        -536.09189500 eV
  | XC potential correction       :          26.02904913 Ha         708.28646393 eV
  | Free-atom electrostatic energy:        -132.12178571 Ha       -3595.21671176 eV
  | Hartree energy correction     :           0.34328755 Ha           9.34132940 eV
  | Entropy correction            :          -0.00003810 Ha          -0.00103681 eV
  | ---------------------------
  | Total energy                  :        -289.31489228 Ha       -7872.65877545 eV
  | Total energy, T -> 0          :        -289.31493038 Ha       -7872.65981226 eV  <-- do not rely on this value for anything but (periodic) metals
  | Electronic free energy        :        -289.31496849 Ha       -7872.66084907 eV

  Derived energy quantities:
  | Kinetic energy                :         289.38678326 Ha        7874.61502848 eV
  | Electrostatic energy          :        -559.00066051 Ha      -15211.18190893 eV
  | Energy correction for multipole
  | error in Hartree potential    :           0.00023837 Ha           0.00648649 eV
  | Sum of eigenvalues per atom                           :       -4458.97796203 eV
  | Total energy (T->0) per atom                          :       -7872.65981226 eV  <-- do not rely on this value for anything but (periodic) metals
  | Electronic free energy per atom                       :       -7872.66084907 eV

  Self-consistency convergence accuracy:
  | Change of charge density      :  0.9134E-04
  | Change of sum of eigenvalues  :  0.1387E-01 eV
  | Change of total energy        : -0.1647E-05 eV

  End self-consistency iteration #     7       :  max(cpu_time)    wall_clock(cpu1)
  | Time for this iteration                    :        0.857 s           0.856 s
  | Charge density update                      :        0.340 s           0.339 s
  | Density mixing & preconditioning           :        0.019 s           0.020 s
  | Hartree multipole update                   :        0.000 s           0.000 s
  | Hartree multipole summation                :        0.168 s           0.168 s
  | Integration                                :        0.197 s           0.196 s
  | Solution of K.-S. eqns.                    :        0.133 s           0.133 s
  | Total energy evaluation                    :        0.000 s           0.000 s

  Partial memory accounting:
  | Current value for overall tracked memory usage on task 0  :           2.766 MB
  | Peak value for overall tracked memory usage on task 0     :           4.753 MB after allocating wave
  | Largest tracked array allocation on task 0 so far         :           2.500 MB  when allocating +KS_eigenvector_complex
  Note:  These values currently only include a subset of arrays which are explicitly tracked.
  The "true" memory usage will be greater.
------------------------------------------------------------

------------------------------------------------------------
          Begin self-consistency iteration #    8

  Date     :  20190514, Time     :  123518.801
------------------------------------------------------------
  Evaluating new KS density using the density matrix
  Evaluating density matrix
  Time summed over all CPUs for getting density from density matrix: real work        0.312 s, elapsed        0.312 s
  Integration grid: deviation in total charge (<rho> - N_e) =  -2.646772E-13
  Pulay mixing of updated and previous charge densities.

  Evaluating partitioned Hartree potential by multipole expansion.
  | Analytical far-field extrapolation by fixed multipoles:
  | Hartree multipole sum: apparent total charge =   0.244681E-03
  Summing up the Hartree potential.
  Time summed over all CPUs for potential: real work        0.170 s, elapsed        0.170 s
  | RMS charge density error from multipole expansion :   0.155792E-02
  | Average real-space part of the electrostatic potential :     -0.24456959 eV

  Integrating Hamiltonian matrix: batch-based integration.
  Time summed over all CPUs for integration: real work        0.191 s, elapsed        0.191 s

  Updating Kohn-Sham eigenvalues, eigenvectors, occupation numbers, and Fermi level.
  Solving generalized eigenproblem

  Obtaining occupation numbers and chemical potential using ELSI.
  | Chemical potential (Fermi level):    -5.12329156eV
  What follows are estimated values for band gap, HOMO, LUMO, etc.
  | They are estimated on a discrete k-point grid and not necessarily exact.
  | For converged numbers, create a DOS and/or band structure plot on a denser k-grid.

  Highest occupied state (VBM) at     -5.13730831 eV (relative to internal zero)
  | Occupation number:      1.30822942
  | K-point:     655 at    0.500000    0.333333    0.666667 (in units of recip. lattice)

  Lowest unoccupied state (CBM) at    -5.09265488 eV (relative to internal zero)
  | Occupation number:      0.38619622
  | K-point:     586 at    0.416667    0.666667    0.833333 (in units of recip. lattice)

  ESTIMATED overall HOMO-LUMO gap:      0.04465342 eV between HOMO at k-point 655 and LUMO at k-point 586
  | This appears to be an indirect band gap.
  | Smallest direct gap :      0.59382656 eV for k_point 656 at    0.416667    0.666667    0.833333 (in units of recip. lattice)
  However, this system has fractional occupation numbers. Since we use a finite k-point grid,
  this material is metallic within the approximate finite broadening function (occupation_type)
  applied to determine the occupation numbers.

  Total energy components:
  | Sum of eigenvalues            :        -163.86605653 Ha       -4459.02227078 eV
  | XC energy correction          :         -19.70083126 Ha        -536.08689436 eV
  | XC potential correction       :          26.02880671 Ha         708.27986739 eV
  | Free-atom electrostatic energy:        -132.12178571 Ha       -3595.21671176 eV
  | Hartree energy correction     :           0.34497465 Ha           9.38723784 eV
  | Entropy correction            :          -0.00003812 Ha          -0.00103728 eV
  | ---------------------------
  | Total energy                  :        -289.31489214 Ha       -7872.65877167 eV
  | Total energy, T -> 0          :        -289.31493026 Ha       -7872.65980895 eV  <-- do not rely on this value for anything but (periodic) metals
  | Electronic free energy        :        -289.31496838 Ha       -7872.66084624 eV

  Derived energy quantities:
  | Kinetic energy                :         289.38501782 Ha        7874.56698855 eV
  | Electrostatic energy          :        -558.99907871 Ha      -15211.13886586 eV
  | Energy correction for multipole
  | error in Hartree potential    :           0.00023862 Ha           0.00649324 eV
  | Sum of eigenvalues per atom                           :       -4459.02227078 eV
  | Total energy (T->0) per atom                          :       -7872.65980895 eV  <-- do not rely on this value for anything but (periodic) metals
  | Electronic free energy per atom                       :       -7872.66084624 eV

  Self-consistency convergence accuracy:
  | Change of charge density      :  0.1260E-03
  | Change of sum of eigenvalues  : -0.4431E-01 eV
  | Change of total energy        :  0.3778E-05 eV

  End self-consistency iteration #     8       :  max(cpu_time)    wall_clock(cpu1)
  | Time for this iteration                    :        0.849 s           0.849 s
  | Charge density update                      :        0.336 s           0.336 s
  | Density mixing & preconditioning           :        0.019 s           0.020 s
  | Hartree multipole update                   :        0.000 s           0.000 s
  | Hartree multipole summation                :        0.172 s           0.172 s
  | Integration                                :        0.191 s           0.191 s
  | Solution of K.-S. eqns.                    :        0.130 s           0.130 s
  | Total energy evaluation                    :        0.000 s           0.000 s

  Partial memory accounting:
  | Current value for overall tracked memory usage on task 0  :           2.767 MB
  | Peak value for overall tracked memory usage on task 0     :           4.753 MB after allocating wave
  | Largest tracked array allocation on task 0 so far         :           2.500 MB  when allocating +KS_eigenvector_complex
  Note:  These values currently only include a subset of arrays which are explicitly tracked.
  The "true" memory usage will be greater.
------------------------------------------------------------

------------------------------------------------------------
          Begin self-consistency iteration #    9

  Date     :  20190514, Time     :  123519.650
------------------------------------------------------------
  Evaluating new KS density using the density matrix
  Evaluating density matrix
  Time summed over all CPUs for getting density from density matrix: real work        0.318 s, elapsed        0.318 s
  Integration grid: deviation in total charge (<rho> - N_e) =  -2.611245E-13
  Pulay mixing of updated and previous charge densities.

  Evaluating partitioned Hartree potential by multipole expansion.
  | Analytical far-field extrapolation by fixed multipoles:
  | Hartree multipole sum: apparent total charge =   0.244787E-03
  Summing up the Hartree potential.
  Time summed over all CPUs for potential: real work        0.168 s, elapsed        0.168 s
  | RMS charge density error from multipole expansion :   0.155788E-02
  | Average real-space part of the electrostatic potential :     -0.24456444 eV

  Integrating Hamiltonian matrix: batch-based integration.
  Time summed over all CPUs for integration: real work        0.192 s, elapsed        0.192 s

  Updating Kohn-Sham eigenvalues, eigenvectors, occupation numbers, and Fermi level.
  Solving generalized eigenproblem

  Obtaining occupation numbers and chemical potential using ELSI.
  | Chemical potential (Fermi level):    -5.12328863eV
  What follows are estimated values for band gap, HOMO, LUMO, etc.
  | They are estimated on a discrete k-point grid and not necessarily exact.
  | For converged numbers, create a DOS and/or band structure plot on a denser k-grid.

  Highest occupied state (VBM) at     -5.13730508 eV (relative to internal zero)
  | Occupation number:      1.30822333
  | K-point:     423 at    0.333333    0.166667    0.666667 (in units of recip. lattice)

  Lowest unoccupied state (CBM) at    -5.09265181 eV (relative to internal zero)
  | Occupation number:      0.38619399
  | K-point:     821 at    0.833333    0.666667    0.250000 (in units of recip. lattice)

  ESTIMATED overall HOMO-LUMO gap:      0.04465328 eV between HOMO at k-point 423 and LUMO at k-point 821
  | This appears to be an indirect band gap.
  | Smallest direct gap :      0.59382621 eV for k_point 656 at    0.833333    0.666667    0.250000 (in units of recip. lattice)
  However, this system has fractional occupation numbers. Since we use a finite k-point grid,
  this material is metallic within the approximate finite broadening function (occupation_type)
  applied to determine the occupation numbers.

  Total energy components:
  | Sum of eigenvalues            :        -163.86604481 Ha       -4459.02195179 eV
  | XC energy correction          :         -19.70083235 Ha        -536.08692398 eV
  | XC potential correction       :          26.02880815 Ha         708.27990662 eV
  | Free-atom electrostatic energy:        -132.12178571 Ha       -3595.21671176 eV
  | Hartree energy correction     :           0.34496257 Ha           9.38690922 eV
  | Entropy correction            :          -0.00003812 Ha          -0.00103728 eV
  | ---------------------------
  | Total energy                  :        -289.31489214 Ha       -7872.65877169 eV
  | Total energy, T -> 0          :        -289.31493026 Ha       -7872.65980897 eV  <-- do not rely on this value for anything but (periodic) metals
  | Electronic free energy        :        -289.31496838 Ha       -7872.66084625 eV

  Derived energy quantities:
  | Kinetic energy                :         289.38503238 Ha        7874.56738470 eV
  | Electrostatic energy          :        -558.99909218 Ha      -15211.13923241 eV
  | Energy correction for multipole
  | error in Hartree potential    :           0.00023862 Ha           0.00649308 eV
  | Sum of eigenvalues per atom                           :       -4459.02195179 eV
[...]
  | Hartree multipole update                   :        0.000 s           0.001 s
  | Hartree multipole summation                :        0.170 s           0.169 s
  | Integration                                :        0.192 s           0.192 s
  | Solution of K.-S. eqns.                    :        0.128 s           0.129 s
  | Total energy evaluation                    :        0.000 s           0.000 s

  Partial memory accounting:
  | Current value for overall tracked memory usage on task 0  :           2.767 MB
  | Peak value for overall tracked memory usage on task 0     :           4.753 MB after allocating wave
  | Largest tracked array allocation on task 0 so far         :           2.500 MB  when allocating +KS_eigenvector_complex
  Note:  These values currently only include a subset of arrays which are explicitly tracked.
  The "true" memory usage will be greater.
------------------------------------------------------------

------------------------------------------------------------
          Begin self-consistency iteration #   10

  Date     :  20190514, Time     :  123520.503
------------------------------------------------------------
  Evaluating new KS density using the density matrix
  Evaluating density matrix
  Time summed over all CPUs for getting density from density matrix: real work        0.319 s, elapsed        0.319 s
  Integration grid: deviation in total charge (<rho> - N_e) =  -3.357314E-13
  Pulay mixing of updated and previous charge densities.

  Evaluating partitioned Hartree potential by multipole expansion.
  | Analytical far-field extrapolation by fixed multipoles:
  | Hartree multipole sum: apparent total charge =   0.243957E-03
  Summing up the Hartree potential.
  Time summed over all CPUs for potential: real work        0.169 s, elapsed        0.169 s
  | RMS charge density error from multipole expansion :   0.155777E-02
  | Average real-space part of the electrostatic potential :     -0.24454210 eV

  Integrating Hamiltonian matrix: batch-based integration.
  Time summed over all CPUs for integration: real work        0.197 s, elapsed        0.197 s

  Updating Kohn-Sham eigenvalues, eigenvectors, occupation numbers, and Fermi level.
  Solving generalized eigenproblem

  Obtaining occupation numbers and chemical potential using ELSI.
  | Chemical potential (Fermi level):    -5.12327980eV
  What follows are estimated values for band gap, HOMO, LUMO, etc.
  | They are estimated on a discrete k-point grid and not necessarily exact.
  | For converged numbers, create a DOS and/or band structure plot on a denser k-grid.

  Highest occupied state (VBM) at     -5.13729525 eV (relative to internal zero)
  | Occupation number:      1.30820252
  | K-point:     638 at    0.500000    0.166667    0.833333 (in units of recip. lattice)

  Lowest unoccupied state (CBM) at    -5.09264248 eV (relative to internal zero)
  | Occupation number:      0.38618633
  | K-point:     821 at    0.833333    0.666667    0.250000 (in units of recip. lattice)

  ESTIMATED overall HOMO-LUMO gap:      0.04465277 eV between HOMO at k-point 638 and LUMO at k-point 821
  | This appears to be an indirect band gap.
  | Smallest direct gap :      0.59382501 eV for k_point 656 at    0.833333    0.666667    0.250000 (in units of recip. lattice)
  However, this system has fractional occupation numbers. Since we use a finite k-point grid,
  this material is metallic within the approximate finite broadening function (occupation_type)
  applied to determine the occupation numbers.

  Total energy components:
  | Sum of eigenvalues            :        -163.86600550 Ha       -4459.02088220 eV
  | XC energy correction          :         -19.70083649 Ha        -536.08703662 eV
  | XC potential correction       :          26.02881362 Ha         708.28005559 eV
  | Free-atom electrostatic energy:        -132.12178571 Ha       -3595.21671176 eV
  | Hartree energy correction     :           0.34492193 Ha           9.38580326 eV
  | Entropy correction            :          -0.00003812 Ha          -0.00103727 eV
  | ---------------------------
  | Total energy                  :        -289.31489215 Ha       -7872.65877174 eV
  | Total energy, T -> 0          :        -289.31493026 Ha       -7872.65980901 eV  <-- do not rely on this value for anything but (periodic) metals
  | Electronic free energy        :        -289.31496838 Ha       -7872.66084628 eV

  Derived energy quantities:
  | Kinetic energy                :         289.38507750 Ha        7874.56861246 eV
  | Electrostatic energy          :        -558.99913316 Ha      -15211.14034758 eV
  | Energy correction for multipole
  | error in Hartree potential    :           0.00023860 Ha           0.00649259 eV
  | Sum of eigenvalues per atom                           :       -4459.02088220 eV
  | Total energy (T->0) per atom                          :       -7872.65980901 eV  <-- do not rely on this value for anything but (periodic) metals
  | Electronic free energy per atom                       :       -7872.66084628 eV

  Self-consistency convergence accuracy:
  | Change of charge density      :  0.3384E-05
  | Change of sum of eigenvalues  :  0.1070E-02 eV
  | Change of total energy        : -0.4908E-07 eV

  End self-consistency iteration #    10       :  max(cpu_time)    wall_clock(cpu1)
  | Time for this iteration                    :        0.860 s           0.860 s
  | Charge density update                      :        0.342 s           0.342 s
  | Density mixing & preconditioning           :        0.019 s           0.019 s
  | Hartree multipole update                   :        0.000 s           0.000 s
  | Hartree multipole summation                :        0.171 s           0.171 s
  | Integration                                :        0.197 s           0.197 s
  | Solution of K.-S. eqns.                    :        0.131 s           0.131 s
  | Total energy evaluation                    :        0.000 s           0.000 s

  Partial memory accounting:
  | Current value for overall tracked memory usage on task 0  :           2.767 MB
  | Peak value for overall tracked memory usage on task 0     :           4.753 MB after allocating wave
  | Largest tracked array allocation on task 0 so far         :           2.500 MB  when allocating +KS_eigenvector_complex
  Note:  These values currently only include a subset of arrays which are explicitly tracked.
  The "true" memory usage will be greater.
------------------------------------------------------------

------------------------------------------------------------
          Begin self-consistency iteration #   11

  Date     :  20190514, Time     :  123521.363
------------------------------------------------------------
  Evaluating new KS density using the density matrix
  Evaluating density matrix
  Time summed over all CPUs for getting density from density matrix: real work        0.314 s, elapsed        0.314 s
  Integration grid: deviation in total charge (<rho> - N_e) =  -4.067857E-13
  Pulay mixing of updated and previous charge densities.

  Evaluating partitioned Hartree potential by multipole expansion.
  | Analytical far-field extrapolation by fixed multipoles:
  | Hartree multipole sum: apparent total charge =   0.243952E-03
  Summing up the Hartree potential.
  Time summed over all CPUs for potential: real work        0.171 s, elapsed        0.171 s
  | RMS charge density error from multipole expansion :   0.155777E-02
  | Average real-space part of the electrostatic potential :     -0.24454163 eV

  Integrating Hamiltonian matrix: batch-based integration.
  Time summed over all CPUs for integration: real work        0.190 s, elapsed        0.190 s

  Updating Kohn-Sham eigenvalues, eigenvectors, occupation numbers, and Fermi level.
  Solving generalized eigenproblem

  Obtaining occupation numbers and chemical potential using ELSI.
  | Chemical potential (Fermi level):    -5.12327959eV
  What follows are estimated values for band gap, HOMO, LUMO, etc.
  | They are estimated on a discrete k-point grid and not necessarily exact.
  | For converged numbers, create a DOS and/or band structure plot on a denser k-grid.

  Highest occupied state (VBM) at     -5.13729502 eV (relative to internal zero)
  | Occupation number:      1.30820206
  | K-point:     655 at    0.500000    0.333333    0.666667 (in units of recip. lattice)

  Lowest unoccupied state (CBM) at    -5.09264226 eV (relative to internal zero)
  | Occupation number:      0.38618617
  | K-point:     704 at    0.583333    0.416667    0.250000 (in units of recip. lattice)

  ESTIMATED overall HOMO-LUMO gap:      0.04465276 eV between HOMO at k-point 655 and LUMO at k-point 704
  | This appears to be an indirect band gap.
  | Smallest direct gap :      0.59382498 eV for k_point 656 at    0.583333    0.416667    0.250000 (in units of recip. lattice)
  However, this system has fractional occupation numbers. Since we use a finite k-point grid,
  this material is metallic within the approximate finite broadening function (occupation_type)
  applied to determine the occupation numbers.

  Total energy components:
  | Sum of eigenvalues            :        -163.86600487 Ha       -4459.02086492 eV
  | XC energy correction          :         -19.70083654 Ha        -536.08703805 eV
  | XC potential correction       :          26.02881369 Ha         708.28005746 eV
  | Free-atom electrostatic energy:        -132.12178571 Ha       -3595.21671176 eV
  | Hartree energy correction     :           0.34492128 Ha           9.38578553 eV
  | Entropy correction            :          -0.00003812 Ha          -0.00103727 eV
  | ---------------------------
  | Total energy                  :        -289.31489215 Ha       -7872.65877174 eV
  | Total energy, T -> 0          :        -289.31493026 Ha       -7872.65980901 eV  <-- do not rely on this value for anything but (periodic) metals
  | Electronic free energy        :        -289.31496838 Ha       -7872.66084628 eV

  Derived energy quantities:
  | Kinetic energy                :         289.38507799 Ha        7874.56862580 eV
  | Electrostatic energy          :        -558.99913360 Ha      -15211.14035950 eV
  | Energy correction for multipole
  | error in Hartree potential    :           0.00023860 Ha           0.00649257 eV
  | Sum of eigenvalues per atom                           :       -4459.02086492 eV
  | Total energy (T->0) per atom                          :       -7872.65980901 eV  <-- do not rely on this value for anything but (periodic) metals
  | Electronic free energy per atom                       :       -7872.66084628 eV

  Self-consistency convergence accuracy:
  | Change of charge density      :  0.5456E-07
  | Change of sum of eigenvalues  :  0.1727E-04 eV
  | Change of total energy        : -0.1691E-08 eV

  Preliminary charge convergence reached. Turning off preconditioner.

  Writing Kohn-Sham eigenvalues.
  K-point:       1 at    0.000000    0.000000    0.000000 (in units of recip. lattice)

  State    Occupation    Eigenvalue [Ha]    Eigenvalue [eV]
      1       2.00000         -65.530961        -1783.18818
      2       2.00000          -5.119257         -139.30208
      3       2.00000          -3.534078          -96.16716
      4       2.00000          -3.534078          -96.16716
      5       2.00000          -3.534078          -96.16716
      6       2.00000          -0.555261          -15.10942
      7       0.00000           0.023674            0.64421
      8       0.00000           0.023674            0.64421
      9       0.00000           0.023674            0.64421
     10       0.00000           0.201892            5.49375

  What follows are estimated values for band gap, HOMO, LUMO, etc.
  | They are estimated on a discrete k-point grid and not necessarily exact.
  | For converged numbers, create a DOS and/or band structure plot on a denser k-grid.

  Highest occupied state (VBM) at     -5.13729502 eV (relative to internal zero)
  | Occupation number:      1.30820206
  | K-point:     655 at    0.500000    0.333333    0.666667 (in units of recip. lattice)

  Lowest unoccupied state (CBM) at    -5.09264226 eV (relative to internal zero)
  | Occupation number:      0.38618617
  | K-point:     704 at    0.583333    0.416667    0.250000 (in units of recip. lattice)

  ESTIMATED overall HOMO-LUMO gap:      0.04465276 eV between HOMO at k-point 655 and LUMO at k-point 704
  | This appears to be an indirect band gap.
  | Smallest direct gap :      0.59382498 eV for k_point 656 at    0.583333    0.416667    0.250000 (in units of recip. lattice)
  However, this system has fractional occupation numbers. Since we use a finite k-point grid,
  this material is metallic within the approximate finite broadening function (occupation_type)
  applied to determine the occupation numbers.

  Self-consistency cycle converged.

  End self-consistency iteration #    11       :  max(cpu_time)    wall_clock(cpu1)
  | Time for this iteration                    :        0.854 s           0.855 s
  | Charge density update                      :        0.337 s           0.337 s
  | Density mixing                             :        0.020 s           0.020 s
  | Hartree multipole update                   :        0.000 s           0.001 s
  | Hartree multipole summation                :        0.173 s           0.173 s
  | Integration                                :        0.190 s           0.190 s
  | Solution of K.-S. eqns.                    :        0.133 s           0.133 s
  | Total energy evaluation                    :        0.000 s           0.001 s

  Partial memory accounting:
  | Current value for overall tracked memory usage on task 0  :           2.767 MB
  | Peak value for overall tracked memory usage on task 0     :           4.753 MB after allocating wave
  | Largest tracked array allocation on task 0 so far         :           2.500 MB  when allocating +KS_eigenvector_complex
  Note:  These values currently only include a subset of arrays which are explicitly tracked.
  The "true" memory usage will be greater.
------------------------------------------------------------

  Energy and forces in a compact form:
  | Total energy uncorrected      :         -0.787265877174215E+04 eV
  | Total energy corrected        :         -0.787265980901154E+04 eV  <-- do not rely on this value for anything but (periodic) metals
  | Electronic free energy        :         -0.787266084628094E+04 eV

  ------------------------------------ 
  Start decomposition of the XC Energy 
  ------------------------------------ 
  X and C from original XC functional choice 
  Hartree-Fock Energy :          0.000000000 Ha              0.000000000 eV
  X Energy            :        -18.638692636 Ha           -507.184631891 eV
  C Energy            :         -1.062143904 Ha            -28.902406155 eV
  Total XC Energy     :        -19.700836539 Ha           -536.087038046 eV
  ------------------------------------ 
  LDA X and C from self-consistent density 
  X Energy LDA        :        -18.638692636 Ha           -507.184631891 eV
  C Energy LDA        :         -1.062143904 Ha            -28.902406155 eV
  ------------------------------------ 
  End decomposition of the XC Energy 
  ------------------------------------ 

------------------------------------------------------------

------------------------------------------------------------------------------
  Final output of selected total energy values:

  The following output summarizes some interesting total energy values
  at the end of a run (AFTER all relaxation, molecular dynamics, etc.).

  | Total energy of the DFT / Hartree-Fock s.c.f. calculation      :          -7872.658771742 eV
  | Final zero-broadening corrected energy (caution - metals only) :          -7872.659809012 eV
  | For reference only, the value of 1 Hartree used in FHI-aims is :             27.211384500 eV

  Before relying on these values, please be sure to understand exactly which
  total energy value is referred to by a given number. Different objects may
  all carry the same name 'total energy'. Definitions:

  Total energy of the DFT / Hartree-Fock s.c.f. calculation:
  | Note that this energy does not include ANY quantities calculated after the
  | s.c.f. cycle, in particular not ANY RPA, MP2, etc. many-body perturbation terms.

  Final zero-broadening corrected energy:
  | For metallic systems only, a broadening of the occupation numbers at the Fermi
  | level can be extrapolated back to zero broadening by an electron-gas inspired
  | formula. For all systems that are not real metals, this value can be
  | meaningless and should be avoided.

------------------------------------------------------------------------------
  Methods described in the following list of references were used in this FHI-aims run.
  If you publish the results, please make sure to cite these reference if they apply.
  FHI-aims is an academic code, and for our developers (often, Ph.D. students
  and postdocs), scientific credit in the community is essential.
  Thank you for helping us!

  For any use of FHI-aims, please cite:

    Volker Blum, Ralf Gehrke, Felix Hanke, Paula Havu, Ville Havu,
    Xinguo Ren, Karsten Reuter, and Matthias Scheffler
    'Ab initio molecular simulations with numeric atom-centered orbitals'
    Computer Physics Communications 180, 2175-2196 (2009)
    http://dx.doi.org/10.1016/j.cpc.2009.06.022


  For the real-space grid partitioning and parallelization used in this calculation, please cite:

    Ville Havu, Volker Blum, Paula Havu, and Matthias Scheffler,
    'Efficient O(N) integration for all-electron electronic structure calculation'
    'using numerically tabulated basis functions'
    Journal of Computational Physics 228, 8367-8379 (2009).
    http://dx.doi.org/10.1016/j.jcp.2009.08.008

  Of course, there are many other important community references, e.g., those cited in the
  above references. Our list is limited to references that describe implementations in the
  FHI-aims code. The reason is purely practical (length of this list) - please credit others as well.

------------------------------------------------------------
          Leaving FHI-aims.
          Date     :  20190514, Time     :  123522.222

          Computational steps:
          | Number of self-consistency cycles          :           11
          | Number of SCF (re)initializations          :            1

          Detailed time accounting                     :  max(cpu_time)    wall_clock(cpu1)
          | Total time                                 :       10.141 s          10.143 s
          | Preparation time                           :        0.096 s           0.096 s
          | Boundary condition initalization           :        0.040 s           0.041 s
          | Grid partitioning                          :        0.011 s           0.011 s
          | Preloading free-atom quantities on grid    :        0.001 s           0.001 s
          | Free-atom superposition energy             :        0.012 s           0.012 s
          | Total time for integrations                :        2.443 s           2.442 s
          | Total time for solution of K.-S. equations :        1.692 s           1.695 s
          | Total time for density update              :        3.730 s           3.732 s
          | Total time for mixing & preconditioning    :        0.222 s           0.222 s
          | Total time for Hartree multipole update    :        0.005 s           0.006 s
          | Total time for Hartree multipole sum       :        1.827 s           1.826 s
          | Total time for total energy evaluation     :        0.002 s           0.001 s
          | Total time for scaled ZORA corrections     :        0.000 s           0.000 s

 This is a stub MPI_ALLREDUCE call.
 You should not be here. Check your
 setting on the use_mpi variable, or
 link against true MPI-libraries.
