------------------------------------------------------------
          Invoking FHI-aims ...
          Version 171221_1
          Compiled on 2019/05/06 at 14:26:40 on host ffph0xx.

          When using FHI-aims, please cite the following reference:

          Volker Blum, Ralf Gehrke, Felix Hanke, Paula Havu,
          Ville Havu, Xinguo Ren, Karsten Reuter, and Matthias Scheffler,
          'Ab Initio Molecular Simulations with Numeric Atom-Centered Orbitals',
          Computer Physics Communications 180, 2175-2196 (2009)

          For any questions about FHI-aims, please visit the aimsclub website
          with its forums and wiki. Contributions to both the forums and the
          wiki are warmly encouraged - they are for you, and everyone is welcome there.

------------------------------------------------------------



  Date     :  20190513, Time     :  134847.694
  Time zero on CPU 1             :   0.610000000000000E-03  s.
  Internal wall clock time zero  :           326987327.694  s.

  FHI-aims created a unique identifier for this run for later identification
  aims_uuid : 0A9C7D38-8671-4DE4-A281-2940BFCD8452


  Performing system and environment tests:
  *** Environment variable OMP_NUM_THREADS is not set
  *** For performance reasons you might want to set it to 1
  | Stacksize not measured: no C compiler

  Obtaining array dimensions for all initial allocations:
  
  -----------------------------------------------------------------------
  Parsing control.in (first pass over file, find array dimensions only).
  The contents of control.in will be repeated verbatim below
  unless switched off by setting 'verbatim_writeout .false.' .
  in the first line of control.in .
  -----------------------------------------------------------------------
  
  #--- method ---
  xc pw-lda
  spin none
  relativistic atomic_zora scalar
  #---
  
  #--- k-grid settings ---
  k_grid 16 16 16
  #---
  
  
  
  
  
  
  
  
  
  
  
  #-------------------------------------------------------------------------------
  #--- Species defaults for Si
  #-------------------------------------------------------------------------------
  
  ################################################################################
  #
  #  FHI-aims code project
  #  VB, Fritz-Haber Institut, 2009
  #
  #  Suggested "light" defaults for Si atom (to be pasted into control.in file)
  #  Be sure to double-check any results obtained with these settings for post-processing,
  #  e.g., with the "tight" defaults and larger basis sets.
  #
  ################################################################################
    species        Si
  #     global species definitions
      nucleus             14
      mass                28.0855
  #
      l_hartree           4
  #
      cut_pot             3.5          1.5  1.0
      basis_dep_cutoff    1e-4
  #
      radial_base         42 5.0
      radial_multiplier   1
      angular_grids       specified
        division   0.5866   50
        division   0.9616  110
        division   1.2249  194
        division   1.3795  302
  #      division   1.4810  434
  #      division   1.5529  590
  #      division   1.6284  770
  #      division   1.7077  974
  #      division   2.4068 1202
  #      outer_grid   974
        outer_grid 302
  ################################################################################
  #
  #  Definition of "minimal" basis
  #
  ################################################################################
  #     valence basis states
      valence      3  s   2.
      valence      3  p   2.
  #     ion occupancy
      ion_occ      3  s   1.
      ion_occ      3  p   1.
  ################################################################################
  #
  #  Suggested additional basis functions. For production calculations,
  #  uncomment them one after another (the most important basis functions are
  #  listed first).
  #
  #  Constructed for dimers: 1.75 A, 2.0 A, 2.25 A, 2.75 A, 3.75 A
  #
  ################################################################################
  #  "First tier" - improvements: -571.96 meV to -37.03 meV
       hydro 3 d 4.2
       hydro 2 p 1.4
  #     hydro 4 f 6.2
       ionic 3 s auto
  #  "Second tier" - improvements: -16.76 meV to -3.03 meV
  #     hydro 3 d 9
  #     hydro 5 g 9.4
  #     hydro 4 p 4
  #     hydro 1 s 0.65
  #  "Third tier" - improvements: -3.89 meV to -0.60 meV
  #     ionic 3 d auto
  #     hydro 3 s 2.6
  #     hydro 4 f 8.4
  #     hydro 3 d 3.4
  #     hydro 3 p 7.8
  #  "Fourth tier" - improvements: -0.33 meV to -0.11 meV
  #     hydro 2 p 1.6
  #     hydro 5 g 10.8
  #     hydro 5 f 11.2
  #     hydro 3 d 1
  #     hydro 4 s 4.5
  #  Further basis functions that fell out of the optimization - noise
  #  level... < -0.08 meV
  #     hydro 4 d 6.6
  #     hydro 5 g 16.4
  #     hydro 4 d 9
  
  -----------------------------------------------------------------------
  Completed first pass over input file control.in .
  -----------------------------------------------------------------------
  
  
  -----------------------------------------------------------------------
  Parsing geometry.in (first pass over file, find array dimensions only).
  The contents of geometry.in will be repeated verbatim below
  unless switched off by setting 'verbatim_writeout .false.' .
  in the first line of geometry.in .
  -----------------------------------------------------------------------
  
  lattice_vector   0.000000   2.750000   2.750000
  lattice_vector   2.750000   0.000000   2.750000
  lattice_vector   2.750000   2.750000   0.000000
  atom_frac   0.000000   0.000000   0.000000 Si
  atom_frac   0.250000   0.250000   0.250000 Si
  
  -----------------------------------------------------------------------
  Completed first pass over input file geometry.in .
  -----------------------------------------------------------------------
  

  Basic array size parameters:
  | Number of species                 :        1
  | Number of atoms                   :        2
  | Number of lattice vectors         :        3
  | Max. basis fn. angular momentum   :        2
  | Max. atomic/ionic basis occupied n:        3
  | Max. number of basis fn. types    :        3
  | Max. radial fns per species/type  :        5
  | Max. logarithmic grid size        :     1346
  | Max. radial integration grid size :       42
  | Max. angular integration grid size:      302
  | Max. angular grid division number :        8
  | Radial grid for Hartree potential :     1346
  | Number of spin channels           :        1

------------------------------------------------------------
          Reading file control.in.
------------------------------------------------------------
  XC: Using Perdew-Wang parametrisation of Ceperley-Alder LDA.
  Spin treatment: No spin polarisation.
  Scalar relativistic treatment of kinetic energy: on-site free-atom approximation to ZORA.
  Found k-point grid:        16        16        16

  Reading configuration options for species Si                  .
  | Found nuclear charge :  14.0000
  | Found atomic mass :    28.085500000000000      amu
  | Found l_max for Hartree potential  :   4
  | Found cutoff potl. onset [A], width [A], scale factor :    3.50000    1.50000    1.00000
  | Threshold for basis-dependent cutoff potential is   0.100000E-03
  | Found data for basic radial integration grid :    42 points, outermost radius =    5.000 A
  | Found multiplier for basic radial grid :   1
  | Found angular grid specification: user-specified.
  | Specified grid contains     5 separate shells.
  | Check grid settings after all constraints further below.
  | Found free-atom valence shell :  3 s   2.000
  | Found free-atom valence shell :  3 p   2.000
  | Found free-ion valence shell :  3 s   1.000
  | Found free-ion valence shell :  3 p   1.000
  | Found hydrogenic basis function :  3 d   4.200
  | Found hydrogenic basis function :  2 p   1.400
  | Found ionic basis function :  3 s , default cutoff radius.
  Species Si                  : Missing cutoff potential type.
  Defaulting to exp(1/x)/(1-x)^2 type cutoff potential.
  Species Si: No 'logarithmic' tag. Using default grid for free atom:
  | Default logarithmic grid data [bohr] : 0.1000E-03 0.1000E+03 0.1012E+01
  | Will include ionic basis functions of  2.0-fold positive Si                   ion.
  Species Si: On-site basis accuracy parameter (for Gram-Schmidt orthonormalisation) not specified.
  Using default value basis_acc =  0.1000000E-03.
  Species Si                  : Using default innermost maximum threshold i_radial=  2 for radial functions.
  Species Si                  : Default cutoff onset for free atom density etc. : 0.35000000E+01 AA.
  Species Si                  : Basic radial grid will be enhanced according to radial_multiplier =   1, to contain    42 grid points.

  Finished reading input file 'control.in'. Consistency checks are next.

  MPI_IN_PLACE appears to work with this MPI implementation.
  | Keeping use_mpi_in_place .true. (see manual).
  Target number of points in a grid batch is not set. Defaulting to  100
  Method for grid partitioning is not set. Defaulting to 'maxmin' partitioning.
  Batch size limit is not set. Defaulting to    200
  By default, will store active basis functions for each batch.
  If in need of memory, prune_basis_once .false. can be used to disable this option.
  communication_type for Hartree potential was not specified.
  Defaulting to calc_hartree .
 * Attention: 
 * You may want to set distributed_spline_storage to .true. in order to save memory.
 * This doesn't harm performance and is perfectly ok unless:
 * - you get error messages in postprocessing (about missing atoms in get_rho_multipole_spl)
 * - you need full spline storage in hirshfeld_analysis
  Defaulting to Pulay charge density mixer.
  Pulay mixer: Number of relevant iterations not set.
  Defaulting to    8 iterations.
  Pulay mixer: Number of initial linear mixing iterations not set.
  Defaulting to    0 iterations.
  Work space size for distributed Hartree potential not set.
  Defaulting to   0.200000E+03 MB.
  Mixing parameter for charge density mixing has not been set.
  Using default: charge_mix_param =     0.0500.
  The mixing parameter will be adjusted in iteration number     2 of the first full s.c.f. cycle only.
  Algorithm-dependent basis array size parameters:
  | n_max_pulay                         :        8
 * Notice: The s.c.f. convergence criterion sc_accuracy_rho was not provided.
 * We used to stop in this case, and ask the user to provide reasonable
 * scf convergence criteria. However, this led some users to employ criteria
 * that led to extremely long run times, e.g., for simple relaxation.
 * We now preset a default value for sc_accuracy_rho if it is not set.
 * You may still wish to check if this setting is too tight or too loose for your needs.
 * Based on n_atoms, FHI-aims chose sc_accuracy_rho =  0.100000E-05 .
  Maximum number of self-consistency iterations not provided.
  Presetting  1000 iterations.
  Presetting      1001 iterations before the initial mixing cycle
  is restarted anyway using the sc_init_iter criterion / keyword.
  Presetting a factor      1.000 between actual scf density residual
  and density convergence criterion sc_accuracy_rho below which sc_init_iter
  takes no effect.
 * No s.c.f. convergence criteria (sc_accuracy_*) were provided in control.in.
 * The run will proceed with a reasonable default guess, but please check whether.
 * the s.c.f. cycles seem to take too much or too little time.
  Calculation of forces was not defined in control.in. No forces will be calculated.
  Geometry relaxation not requested: no relaxation will be performed.
  No accuracy limit for integral partition fn. given. Defaulting to  0.1000E-14.
  No threshold value for u(r) in integrations given. Defaulting to  0.1000E-05.
  No occupation type (smearing scheme) given. Defaulting to Gaussian broadening, width =  0.1000E-01 eV.
  The width will be adjusted in iteration number     2 of the first full s.c.f. cycle only.
  S.C.F. convergence parameters will be adjusted in iteration number     2 of the first full s.c.f. cycle only.
  No accuracy for occupation numbers given. Defaulting to  0.1000E-12.
  No threshold value for occupation numbers given. Defaulting to  0.0000E+00.
  No accuracy for fermi level given. Defaulting to  0.1000E-19.
  Maximum # of iterations to find E_F not set. Defaulting to  200.
  Preferred method for the eigenvalue solver ('KS_method') not specified in 'control.in'.
  Defaulting to serial version, 'lapack_fast'.
  Will not use alltoall communication since running on < 1024 CPUs.
  Threshold for basis singularities not set.
  Default threshold for basis singularities:  0.1000E-04
  partition_type (choice of integration weights) for integrals was not specified.
  | Using a version of the partition function of Stratmann and coworkers ('stratmann_smoother').
  | At each grid point, the set of atoms used to build the partition table is smoothly restricted to
  | only those atoms whose free-atom density would be non-zero at that grid point.
  Partitioning for Hartree potential was not defined. Using partition_type for integrals.
  | Adjusted default value of keyword multip_moments_threshold to:       0.10000000E-11
  | This value may affect high angular momentum components of the Hartree potential in periodic systems.
  Angular momentum expansion for Kerker preconditioner not set explicitly.
  | Using default value of   0
  No explicit requirement for turning off preconditioner.
  | By default, it will be turned off when the charge convergence reaches
  | sc_accuracy_rho  =   0.100000E-05
  No special mixing parameter while Kerker preconditioner is on.
  Using default: charge_mix_param =     0.0500.
  No q(lm)/r^(l+1) cutoff set for long-range Hartree potential.
  | Using default value of  0.100000E-09 .
  | Verify using the multipole_threshold keyword.
  Defaulting to new monopole extrapolation.
  Density update method: automatic selection selected.
  Using density matrix based charge density update.
  Using density matrix based charge density update.
  Using packed matrix style: index .
  Defaulting to use time-reversal symmetry for k-point grid.
------------------------------------------------------------


------------------------------------------------------------
          Reading geometry description geometry.in.
------------------------------------------------------------
  Input structure read successfully.
  The structure contains        2 atoms,  and a total of         28.000 electrons.

  Input geometry:
  | Unit cell:
  |        0.00000000        2.75000000        2.75000000
  |        2.75000000        0.00000000        2.75000000
  |        2.75000000        2.75000000        0.00000000
  | Atomic structure:
  |       Atom                x [A]            y [A]            z [A]
  |    1: Species Si            0.00000000        0.00000000        0.00000000
  |    2: Species Si            1.37500000        1.37500000        1.37500000

  Lattice parameters for 3D lattice (in Angstroms) :     3.889087    3.889087    3.889087
  Angle(s) between unit vectors (in degrees)      :    60.000000   60.000000   60.000000

  |

  | The smallest distance between any two atoms is         2.38156986 AA.
  |
  | The first atom of this pair is atom number                      1 .
  | The second atom of this pair is atom number                     2 .
  | Wigner-Seitz cell of the first atom image           0     0     0 .
  | (The Wigner-Seitz cell of the second atom is 0 0 0  by definition.)

  Quantities derived from the lattice vectors:
  | Reciprocal lattice vector 1: -1.142397  1.142397  1.142397
  | Reciprocal lattice vector 2:  1.142397 -1.142397  1.142397
  | Reciprocal lattice vector 3:  1.142397  1.142397 -1.142397
  | Unit cell volume                               :   0.415938E+02  A^3

  Range separation radius for Ewald summation (hartree_convergence_parameter):      3.94337166 bohr.

  Fractional coordinates:
                         L1                L2                L3
       atom_frac         0.00000000        0.00000000        0.00000000  Si
       atom_frac         0.25000000        0.25000000        0.25000000  Si

  Number of empty states per atom not set in control.in - providing a guess from actual geometry.
  | Total number of empty states used during s.c.f. cycle:        6
  If you use a very high smearing, use empty_states (per atom!) in control.in to increase this value.

  Structure-dependent array size parameters: 
  | Maximum number of distinct radial functions  :        8
  | Maximum number of basis functions            :       36
  | Number of Kohn-Sham states (occupied + empty):       20
------------------------------------------------------------

------------------------------------------------------------
          Preparing all fixed parts of the calculation.
------------------------------------------------------------
  Determining machine precision:
     2.2250738585072014E-308
  Setting up grids for atomic and cluster calculations.

  Creating wave function, potential, and density for free atoms.

  Species: Si

  List of occupied orbitals and eigenvalues:
    n    l              occ      energy [Ha]    energy [eV]
    1    0           2.0000       -65.491668     -1782.1190
    2    0           2.0000        -5.087967      -138.4506
    3    0           2.0000        -0.391471       -10.6525
    2    1           6.0000        -3.502246       -95.3010
    3    1           2.0000        -0.143943        -3.9169

  Creating fixed part of basis set: Ionic, confined, hydrogenic.

  Si                   ion:

  List of free ionic orbitals and eigenvalues:
    n    l      energy [Ha]    energy [eV]
    1    0       -66.364436     -1805.8682
    2    0        -5.935799      -161.5213
    3    0        -1.078166       -29.3384
    2    1        -4.351123      -118.4001
    3    1        -0.781733       -21.2720


  List of ionic basis orbitals and eigenvalues:
    n    l      energy [Ha]    energy [eV]    outer radius [A]
    3    0        -1.078146       -29.3378       4.214062


  Si                   hydrogenic:

  List of hydrogenic basis orbitals: 
    n    l      effective z      eigenvalue [eV]  inner max. [A]     outer max. [A]     outer radius [A]   
    3    2         4.200000       -26.6624           1.139231           1.139231           4.534782
    2    1         1.400000        -6.4613           1.472672           1.472672           4.590560


  Adding cutoff potential to free-atom effective potential.
  Creating atomic-like basis functions for current effective potential.

  Species Si                  :

  List of atomic basis orbitals and eigenvalues:
    n    l      energy [Ha]    energy [eV]    outer radius [A]
    1    0       -65.491668     -1782.1190       0.789468
    2    0        -5.087967      -138.4506       2.815114
    3    0        -0.391471       -10.6525       4.534782
    2    1        -3.502246       -95.3010       3.259919
    3    1        -0.143943        -3.9169       4.590560

  Assembling full basis from fixed parts.
  | Species Si :   atomic orbital   1 s accepted.
  | Species Si :   atomic orbital   2 s accepted.
  | Species Si :    ionic orbital   3 s accepted.
  | Species Si :   atomic orbital   3 s accepted.
  | Species Si :   atomic orbital   2 p accepted.
  | Species Si :   atomic orbital   3 p accepted.
  | Species Si :    hydro orbital   2 p accepted.
  | Species Si :    hydro orbital   3 d accepted.

  Basis size parameters after reduction:
  | Total number of radial functions:        8
  | Total number of basis functions :       36

  Per-task memory consumption for arrays in subroutine allocate_ext:
  |           2.757868MB.
  Testing on-site integration grid accuracy.
  |  Species  Function  <phi|h_atom|phi> (log., in eV)  <phi|h_atom|phi> (rad., in eV)
           1        1              -1782.1189727076              -1782.1182429251
           1        2               -138.4506350693               -138.4506310079
           1        3                -10.3030408815                -10.3029120678
           1        4                  5.0238999146                  4.9457540310 ***
           1        5                -95.3009689499                -95.3009689315
           1        6                 -3.9266496564                 -3.9420918374
           1        7                  6.3453628447                  6.1632372158 ***
           1        8                  6.2883050744                  6.2861881409
 * Note: Onsite integrals marked "***" above are less accurate than
 * onsite_accuracy_threshold =    0.03000 eV. Usually, this is harmless.
 * When in doubt, tighten the "radial" and/or "radial_multiplier" flags to check.

  Preparing densities etc. for the partition functions (integrals / Hartree potential).

  Preparations completed.
  max(cpu_time)          :      0.092 s.
  Wall clock time (cpu1) :      0.092 s.
------------------------------------------------------------

------------------------------------------------------------
          Begin self-consistency loop: Initialization.

          Date     :  20190513, Time     :  134847.787
------------------------------------------------------------

  Initializing index lists of integration centers etc. from given atomic structure:
  Mapping all atomic coordinates to central unit cell.

  Initializing the k-points
          Using symmetry for reducing the k-points
  | k-points reduced from:     4096 to     2052
  | Number of k-points                             :      2052
  The eigenvectors in the calculations are COMPLEX.
  | K-points in task   0:      2052
  | Number of basis functions in the Hamiltonian integrals :      1454
  | Number of basis functions in a single unit cell        :        36
  | Number of centers in hartree potential         :       732
  | Number of centers in hartree multipole         :       318
  | Number of centers in electron density summation:       190
  | Number of centers in basis integrals           :       198
  | Number of centers in integrals                 :       101
  | Number of centers in hamiltonian               :       190
  | Consuming       3591 KiB for k_phase.
  | Number of super-cells (origin) [n_cells]                     :        2197
  | Number of super-cells (after PM_index) [n_cells]             :         112
  | Number of super-cells in hamiltonian [n_cells_in_hamiltonian]:         112
  | Size of matrix packed + index [n_hamiltonian_matrix_size] :       41847
  Partitioning the integration grid into batches with maxmin method.
  | Maximal weight for a single point:     1.000
  | Minimal weight for a single point:     0.645
  | Number of batches:      128
  | Maximal batch size:      90
  | Minimal batch size:      85
  | Average batch size:      87.562
  | Standard deviation of batch sizes:       1.493
  Initializing partition tables, free-atom densities, potentials, etc. across the integration grid (initialize_grid_storage).
  | initialize_grid_storage: Actual outermost partition radius vs. multipole_radius_free
  | (-- VB: in principle, multipole_radius_free should be larger, hence this output)
  | Species        1: Confinement radius =              4.999999999999999 AA, multipole_radius_free =              5.000694715736543 AA.
  | Species        1: outer_partition_radius set to              5.000694715736543 AA .
  | Original list of interatomic distances with         198 x        198 entries is created.
  | Net number of integration points:    11208
  | of which are non-zero points    :     9844
  | Numerical average free-atom electrostatic potential    :    -12.65157614 eV
  Renormalizing the initial density to the exact electron count on the 3D integration grid.
  | Initial density: Formal number of electrons (from input files) :      28.0000000000
  | Integrated number of electrons on 3D grid     :      28.0046443613
  | Charge integration error                      :       0.0046443613
  | Normalization factor for density and gradient :       0.9998341575
  Obtaining max. number of non-zero basis functions in each batch (get_n_compute_maxes).
  | Maximal number of non-zero basis functions:      448 in task     0
  Allocating       23.639 MB for KS_eigenvector_complex
  Integrating Hamiltonian matrix: batch-based integration.
  Time summed over all CPUs for integration: real work        0.599 s, elapsed        0.599 s
  Integrating overlap matrix.
  Time summed over all CPUs for integration: real work        0.417 s, elapsed        0.417 s
  Decreasing sparse matrix size:
   Tolerance:   9.9999998245167004E-014
   Hamiltonian matrix
  | Array has    36494 nonzero elements out of    41847 elements
  | Sparsity factor is 0.128
   Overlap matrix
  | Array has    34236 nonzero elements out of    41847 elements
  | Sparsity factor is 0.182
  New size of hamiltonian matrix:       36751

  Updating Kohn-Sham eigenvalues, eigenvectors, occupation numbers, and Fermi level.
  Solving generalized eigenproblem
  Transforming overlap matrix and checking for singularities.
  Overlap matrix is nonsingular at first k-point:
  | Lowest eigenvalue:  0.493089E-02

  Obtaining occupation numbers and chemical potential using ELSI.
  | Chemical potential (Fermi level):    -5.63803700eV
  Writing Kohn-Sham eigenvalues.
  K-point:       1 at    0.000000    0.000000    0.000000 (in units of recip. lattice)

  State    Occupation    Eigenvalue [Ha]    Eigenvalue [eV]
      1       2.00000         -65.511153        -1782.64916
      2       2.00000         -65.511153        -1782.64916
      3       2.00000          -5.112074         -139.10660
      4       2.00000          -5.111824         -139.09980
      5       2.00000          -3.526350          -95.95687
      6       2.00000          -3.526350          -95.95687
      7       2.00000          -3.526350          -95.95687
      8       2.00000          -3.525803          -95.94197
      9       2.00000          -3.525803          -95.94197
     10       2.00000          -3.525803          -95.94197
     11       2.00000          -0.655680          -17.84196
     12       2.00000          -0.230449           -6.27085
     13       2.00000          -0.230449           -6.27085
     14       2.00000          -0.230449           -6.27085
     15       0.00000          -0.128212           -3.48884
     16       0.00000          -0.128212           -3.48884
     17       0.00000          -0.128212           -3.48884
     18       0.00000          -0.124308           -3.38258
     19       0.00000           0.067790            1.84465
     20       0.00000           0.067790            1.84465

  What follows are estimated values for band gap, HOMO, LUMO, etc.
  | They are estimated on a discrete k-point grid and not necessarily exact.
  | For converged numbers, create a DOS and/or band structure plot on a denser k-grid.

  Highest occupied state (VBM) at     -6.27084700 eV (relative to internal zero)
  | Occupation number:      2.00000000
  | K-point:       1 at    0.000000    0.000000    0.000000 (in units of recip. lattice)

  Lowest unoccupied state (CBM) at    -5.35970396 eV (relative to internal zero)
  | Occupation number:      0.00000000
  | K-point:     105 at    0.000000    0.562500    0.562500 (in units of recip. lattice)

  ESTIMATED overall HOMO-LUMO gap:      0.91114304 eV between HOMO at k-point 1 and LUMO at k-point 105
  | This appears to be an indirect band gap.
  | Smallest direct gap :      2.60778269 eV for k_point 1574 at    0.000000    0.562500    0.562500 (in units of recip. lattice)
  The gap value is above 0.2 eV. Unless you are using a very sparse k-point grid,
  this system is most likely an insulator or a semiconductor.
  Calculating total energy contributions from superposition of free atom densities.

  Total energy components:
  | Sum of eigenvalues            :        -328.07781192 Ha       -8927.45148598 eV
  | XC energy correction          :         -39.64012500 Ha       -1078.66268311 eV
  | XC potential correction       :          52.37117597 Ha        1425.09220607 eV
  | Free-atom electrostatic energy:        -263.39488195 Ha       -7167.33940814 eV
  | Hartree energy correction     :          -0.00000000 Ha          -0.00000000 eV
  | Entropy correction            :          -0.00000000 Ha          -0.00000000 eV
  | ---------------------------
  | Total energy                  :        -578.74164290 Ha      -15748.36137116 eV
  | Total energy, T -> 0          :        -578.74164290 Ha      -15748.36137116 eV  <-- do not rely on this value for anything but (periodic) metals
  | Electronic free energy        :        -578.74164290 Ha      -15748.36137116 eV

  Derived energy quantities:
  | Kinetic energy                :         579.65288259 Ha       15773.15746468 eV
  | Electrostatic energy          :       -1118.75440049 Ha      -30442.85615273 eV
  | Energy correction for multipole
  | error in Hartree potential    :           0.00000000 Ha           0.00000000 eV
  | Sum of eigenvalues per atom                           :       -4463.72574299 eV
  | Total energy (T->0) per atom                          :       -7874.18068558 eV  <-- do not rely on this value for anything but (periodic) metals
  | Electronic free energy per atom                       :       -7874.18068558 eV
  Initialize hartree_potential_storage
  Max. number of atoms included in rho_multipole:            2

  End scf initialization - timings             :  max(cpu_time)    wall_clock(cpu1)
  | Time for scf. initialization               :        3.941 s           3.941 s
  | Boundary condition initialization          :        0.047 s           0.047 s
  | Integration                                :        1.017 s           1.017 s
  | Solution of K.-S. eqns.                    :        2.652 s           2.652 s
  | Grid partitioning                          :        0.036 s           0.037 s
  | Preloading free-atom quantities on grid    :        0.001 s           0.002 s
  | Free-atom superposition energy             :        0.036 s           0.036 s
  | Total energy evaluation                    :        0.001 s           0.001 s

  Partial memory accounting:
  | Current value for overall tracked memory usage on task 0  :          24.374 MB
  | Peak value for overall tracked memory usage on task 0     :          27.050 MB after allocating wave
  | Largest tracked array allocation on task 0 so far         :          23.639 MB  when allocating +KS_eigenvector_complex
  Note:  These values currently only include a subset of arrays which are explicitly tracked.
  The "true" memory usage will be greater.
------------------------------------------------------------

------------------------------------------------------------
          Begin self-consistency iteration #    1

  Date     :  20190513, Time     :  134851.728
------------------------------------------------------------
  Evaluating new KS density using the density matrix
  Evaluating density matrix
  Time summed over all CPUs for getting density from density matrix: real work        1.167 s, elapsed        1.167 s
  Integration grid: deviation in total charge (<rho> - N_e) =  -1.421085E-14
  Pulay mixing of updated and previous charge densities.

  Evaluating partitioned Hartree potential by multipole expansion.
  | Analytical far-field extrapolation by fixed multipoles:
  | Hartree multipole sum: apparent total charge =   0.486612E-02
  Summing up the Hartree potential.
  | Estimated reciprocal-space cutoff momentum G_max:         2.36574414 bohr^-1 .
  | Reciprocal lattice points for long-range Hartree potential:      58
  Time summed over all CPUs for potential: real work        0.408 s, elapsed        0.408 s
  | RMS charge density error from multipole expansion :   0.491848E-03
  | Average real-space part of the electrostatic potential :     -0.00397179 eV

  Integrating Hamiltonian matrix: batch-based integration.
  Time summed over all CPUs for integration: real work        0.672 s, elapsed        0.672 s

  Updating Kohn-Sham eigenvalues, eigenvectors, occupation numbers, and Fermi level.
  Solving generalized eigenproblem

  Obtaining occupation numbers and chemical potential using ELSI.
  | Chemical potential (Fermi level):    -5.62273701eV
  Writing Kohn-Sham eigenvalues.
  K-point:       1 at    0.000000    0.000000    0.000000 (in units of recip. lattice)

  State    Occupation    Eigenvalue [Ha]    Eigenvalue [eV]
      1       2.00000         -65.514263        -1782.73381
      2       2.00000         -65.514263        -1782.73381
      3       2.00000          -5.112676         -139.12299
      4       2.00000          -5.112426         -139.11619
      5       2.00000          -3.527040          -95.97563
      6       2.00000          -3.527040          -95.97563
      7       2.00000          -3.527040          -95.97563
      8       2.00000          -3.526493          -95.96076
      9       2.00000          -3.526493          -95.96076
     10       2.00000          -3.526493          -95.96076
     11       2.00000          -0.655157          -17.82774
     12       2.00000          -0.229715           -6.25087
     13       2.00000          -0.229715           -6.25087
     14       2.00000          -0.229715           -6.25087
     15       0.00000          -0.127840           -3.47869
     16       0.00000          -0.127840           -3.47869
     17       0.00000          -0.127840           -3.47869
     18       0.00000          -0.123680           -3.36551
     19       0.00000           0.068242            1.85696
     20       0.00000           0.068242            1.85696

  What follows are estimated values for band gap, HOMO, LUMO, etc.
  | They are estimated on a discrete k-point grid and not necessarily exact.
  | For converged numbers, create a DOS and/or band structure plot on a denser k-grid.

  Highest occupied state (VBM) at     -6.25087129 eV (relative to internal zero)
  | Occupation number:      2.00000000
  | K-point:       1 at    0.000000    0.000000    0.000000 (in units of recip. lattice)

  Lowest unoccupied state (CBM) at    -5.35342640 eV (relative to internal zero)
  | Occupation number:      0.00000000
  | K-point:    1288 at    0.437500    0.000000    0.437500 (in units of recip. lattice)

  ESTIMATED overall HOMO-LUMO gap:      0.89744489 eV between HOMO at k-point 1 and LUMO at k-point 1288
  | This appears to be an indirect band gap.
  | Smallest direct gap :      2.60142095 eV for k_point 8 at    0.437500    0.000000    0.437500 (in units of recip. lattice)
  The gap value is above 0.2 eV. Unless you are using a very sparse k-point grid,
  this system is most likely an insulator or a semiconductor.

  Total energy components:
  | Sum of eigenvalues            :        -328.09640602 Ha       -8927.95745727 eV
  | XC energy correction          :         -39.64260191 Ha       -1078.73008314 eV
  | XC potential correction       :          52.37444097 Ha        1425.18105124 eV
  | Free-atom electrostatic energy:        -263.39488195 Ha       -7167.33940814 eV
  | Hartree energy correction     :           0.01833189 Ha           0.49883611 eV
  | Entropy correction            :          -0.00000000 Ha          -0.00000000 eV
  | ---------------------------
  | Total energy                  :        -578.74111702 Ha      -15748.34706120 eV
  | Total energy, T -> 0          :        -578.74111702 Ha      -15748.34706120 eV  <-- do not rely on this value for anything but (periodic) metals
  | Electronic free energy        :        -578.74111702 Ha      -15748.34706120 eV

  Derived energy quantities:
  | Kinetic energy                :         579.52087224 Ha       15769.56528025 eV
  | Electrostatic energy          :       -1118.61938735 Ha      -30439.18225831 eV
  | Energy correction for multipole
  | error in Hartree potential    :           0.00063574 Ha           0.01729925 eV
  | Sum of eigenvalues per atom                           :       -4463.97872863 eV
  | Total energy (T->0) per atom                          :       -7874.17353060 eV  <-- do not rely on this value for anything but (periodic) metals
  | Electronic free energy per atom                       :       -7874.17353060 eV

  Self-consistency convergence accuracy:
  | Change of charge density      :  0.1012E+00
  | Change of sum of eigenvalues  : -0.5060E+00 eV
  | Change of total energy        :  0.1431E-01 eV

  End self-consistency iteration #     1       :  max(cpu_time)    wall_clock(cpu1)
  | Time for this iteration                    :        3.797 s           3.798 s
  | Charge density update                      :        1.336 s           1.337 s
  | Density mixing & preconditioning           :        0.051 s           0.050 s
  | Hartree multipole update                   :        0.001 s           0.001 s
  | Hartree multipole summation                :        0.413 s           0.413 s
  | Integration                                :        0.672 s           0.672 s
  | Solution of K.-S. eqns.                    :        1.324 s           1.324 s
  | Total energy evaluation                    :        0.001 s           0.001 s

  Partial memory accounting:
  | Current value for overall tracked memory usage on task 0  :          24.374 MB
  | Peak value for overall tracked memory usage on task 0     :          27.050 MB after allocating wave
  | Largest tracked array allocation on task 0 so far         :          23.639 MB  when allocating +KS_eigenvector_complex
  Note:  These values currently only include a subset of arrays which are explicitly tracked.
  The "true" memory usage will be greater.
------------------------------------------------------------

------------------------------------------------------------
          Begin self-consistency iteration #    2

  Date     :  20190513, Time     :  134855.526
------------------------------------------------------------
  Evaluating new KS density using the density matrix
  Evaluating density matrix
  Time summed over all CPUs for getting density from density matrix: real work        1.079 s, elapsed        1.079 s
  Integration grid: deviation in total charge (<rho> - N_e) =   3.197442E-14
  Pulay mixing of updated and previous charge densities.

  Evaluating partitioned Hartree potential by multipole expansion.
  | Analytical far-field extrapolation by fixed multipoles:
  | Hartree multipole sum: apparent total charge =   0.889076E-02
  Summing up the Hartree potential.
  Time summed over all CPUs for potential: real work        0.474 s, elapsed        0.474 s
  | RMS charge density error from multipole expansion :   0.963723E-02
  | Average real-space part of the electrostatic potential :      0.30054963 eV

  Integrating Hamiltonian matrix: batch-based integration.
  Time summed over all CPUs for integration: real work        0.596 s, elapsed        0.596 s

  Updating Kohn-Sham eigenvalues, eigenvectors, occupation numbers, and Fermi level.
  Solving generalized eigenproblem

  Obtaining occupation numbers and chemical potential using ELSI.
  | Chemical potential (Fermi level):    -5.63908363eV
  What follows are estimated values for band gap, HOMO, LUMO, etc.
  | They are estimated on a discrete k-point grid and not necessarily exact.
  | For converged numbers, create a DOS and/or band structure plot on a denser k-grid.

  Highest occupied state (VBM) at     -5.72167190 eV (relative to internal zero)
  | Occupation number:      2.00000000
  | K-point:       1 at    0.000000    0.000000    0.000000 (in units of recip. lattice)

  Lowest unoccupied state (CBM) at    -5.19792638 eV (relative to internal zero)
  | Occupation number:      0.00000000
  | K-point:     105 at    0.000000    0.562500    0.562500 (in units of recip. lattice)

  ESTIMATED overall HOMO-LUMO gap:      0.52374553 eV between HOMO at k-point 1 and LUMO at k-point 105
  | This appears to be an indirect band gap.
  | Smallest direct gap :      2.46853206 eV for k_point 1574 at    0.000000    0.562500    0.562500 (in units of recip. lattice)
  The gap value is above 0.2 eV. Unless you are using a very sparse k-point grid,
  this system is most likely an insulator or a semiconductor.

  Checking to see if s.c.f. parameters should be adjusted.
  The system likely has a gap. Increased the default Pulay mixing parameter (charge_mix_param). Value:   0.200000 .
  Kept the default occupation width. Value:   0.010000 eV.

  Total energy components:
  | Sum of eigenvalues            :        -327.35650482 Ha       -8907.82372119 eV
  | XC energy correction          :         -39.69942774 Ha       -1080.27639268 eV
  | XC potential correction       :          52.44933005 Ha        1427.21888664 eV
  | Free-atom electrostatic energy:        -263.39488195 Ha       -7167.33940814 eV
  | Hartree energy correction     :          -0.73472590 Ha         -19.99290892 eV
  | Entropy correction            :          -0.00000000 Ha          -0.00000000 eV
  | ---------------------------
  | Total energy                  :        -578.73621036 Ha      -15748.21354429 eV
  | Total energy, T -> 0          :        -578.73621036 Ha      -15748.21354429 eV  <-- do not rely on this value for anything but (periodic) metals
  | Electronic free energy        :        -578.73621036 Ha      -15748.21354429 eV

  Derived energy quantities:
  | Kinetic energy                :         579.70031051 Ha       15774.44804407 eV
  | Electrostatic energy          :       -1118.73709313 Ha      -30442.38519568 eV
  | Energy correction for multipole
  | error in Hartree potential    :           0.01243838 Ha           0.33846542 eV
  | Sum of eigenvalues per atom                           :       -4453.91186060 eV
  | Total energy (T->0) per atom                          :       -7874.10677214 eV  <-- do not rely on this value for anything but (periodic) metals
  | Electronic free energy per atom                       :       -7874.10677214 eV

  Self-consistency convergence accuracy:
  | Change of charge density      :  0.9608E-01
  | Change of sum of eigenvalues  :  0.2013E+02 eV
  | Change of total energy        :  0.1335E+00 eV

  End self-consistency iteration #     2       :  max(cpu_time)    wall_clock(cpu1)
  | Time for this iteration                    :        3.614 s           3.615 s
  | Charge density update                      :        1.230 s           1.229 s
  | Density mixing & preconditioning           :        0.049 s           0.050 s
  | Hartree multipole update                   :        0.001 s           0.001 s
  | Hartree multipole summation                :        0.477 s           0.477 s
  | Integration                                :        0.596 s           0.596 s
  | Solution of K.-S. eqns.                    :        1.260 s           1.261 s
  | Total energy evaluation                    :        0.001 s           0.000 s

  Partial memory accounting:
  | Current value for overall tracked memory usage on task 0  :          24.375 MB
  | Peak value for overall tracked memory usage on task 0     :          27.050 MB after allocating wave
  | Largest tracked array allocation on task 0 so far         :          23.639 MB  when allocating +KS_eigenvector_complex
  Note:  These values currently only include a subset of arrays which are explicitly tracked.
  The "true" memory usage will be greater.
------------------------------------------------------------

------------------------------------------------------------
          Begin self-consistency iteration #    3

  Date     :  20190513, Time     :  134859.141
------------------------------------------------------------
  Evaluating new KS density using the density matrix
  Evaluating density matrix
  Time summed over all CPUs for getting density from density matrix: real work        1.165 s, elapsed        1.165 s
  Integration grid: deviation in total charge (<rho> - N_e) =   6.394885E-14
  Pulay mixing of updated and previous charge densities.

  Evaluating partitioned Hartree potential by multipole expansion.
  | Analytical far-field extrapolation by fixed multipoles:
  | Hartree multipole sum: apparent total charge =   0.836394E-02
  Summing up the Hartree potential.
  Time summed over all CPUs for potential: real work        0.481 s, elapsed        0.481 s
  | RMS charge density error from multipole expansion :   0.956805E-02
  | Average real-space part of the electrostatic potential :      0.29183116 eV

  Integrating Hamiltonian matrix: batch-based integration.
  Time summed over all CPUs for integration: real work        0.667 s, elapsed        0.667 s

  Updating Kohn-Sham eigenvalues, eigenvectors, occupation numbers, and Fermi level.
  Solving generalized eigenproblem

  Obtaining occupation numbers and chemical potential using ELSI.
  | Chemical potential (Fermi level):    -5.65311460eV
  What follows are estimated values for band gap, HOMO, LUMO, etc.
  | They are estimated on a discrete k-point grid and not necessarily exact.
  | For converged numbers, create a DOS and/or band structure plot on a denser k-grid.

  Highest occupied state (VBM) at     -5.73845566 eV (relative to internal zero)
  | Occupation number:      2.00000000
  | K-point:       1 at    0.000000    0.000000    0.000000 (in units of recip. lattice)

  Lowest unoccupied state (CBM) at    -5.20246870 eV (relative to internal zero)
  | Occupation number:      0.00000000
  | K-point:     105 at    0.000000    0.562500    0.562500 (in units of recip. lattice)

  ESTIMATED overall HOMO-LUMO gap:      0.53598696 eV between HOMO at k-point 1 and LUMO at k-point 105
  | This appears to be an indirect band gap.
  | Smallest direct gap :      2.47224768 eV for k_point 94 at    0.000000    0.562500    0.562500 (in units of recip. lattice)
  The gap value is above 0.2 eV. Unless you are using a very sparse k-point grid,
  this system is most likely an insulator or a semiconductor.

  Total energy components:
  | Sum of eigenvalues            :        -327.39063417 Ha       -8908.75242811 eV
  | XC energy correction          :         -39.69744209 Ha       -1080.22236044 eV
  | XC potential correction       :          52.44671177 Ha        1427.14763967 eV
  | Free-atom electrostatic energy:        -263.39488195 Ha       -7167.33940814 eV
  | Hartree energy correction     :          -0.69986603 Ha         -19.04432373 eV
  | Entropy correction            :          -0.00000000 Ha          -0.00000000 eV
  | ---------------------------
  | Total energy                  :        -578.73611248 Ha      -15748.21088076 eV
  | Total energy, T -> 0          :        -578.73611248 Ha      -15748.21088076 eV  <-- do not rely on this value for anything but (periodic) metals
  | Electronic free energy        :        -578.73611248 Ha      -15748.21088076 eV

  Derived energy quantities:
  | Kinetic energy                :         579.68894013 Ha       15774.13864019 eV
  | Electrostatic energy          :       -1118.72761052 Ha      -30442.12716051 eV
  | Energy correction for multipole
  | error in Hartree potential    :           0.01237531 Ha           0.33674935 eV
  | Sum of eigenvalues per atom                           :       -4454.37621406 eV
  | Total energy (T->0) per atom                          :       -7874.10544038 eV  <-- do not rely on this value for anything but (periodic) metals
  | Electronic free energy per atom                       :       -7874.10544038 eV

  Self-consistency convergence accuracy:
  | Change of charge density      :  0.1575E-01
  | Change of sum of eigenvalues  : -0.9287E+00 eV
  | Change of total energy        :  0.2664E-02 eV

  End self-consistency iteration #     3       :  max(cpu_time)    wall_clock(cpu1)
  | Time for this iteration                    :        3.817 s           3.818 s
  | Charge density update                      :        1.313 s           1.314 s
  | Density mixing & preconditioning           :        0.046 s           0.045 s
  | Hartree multipole update                   :        0.001 s           0.001 s
  | Hartree multipole summation                :        0.484 s           0.484 s
  | Integration                                :        0.667 s           0.667 s
  | Solution of K.-S. eqns.                    :        1.306 s           1.306 s
  | Total energy evaluation                    :        0.001 s           0.001 s

  Partial memory accounting:
  | Current value for overall tracked memory usage on task 0  :          24.376 MB
  | Peak value for overall tracked memory usage on task 0     :          27.050 MB after allocating wave
  | Largest tracked array allocation on task 0 so far         :          23.639 MB  when allocating +KS_eigenvector_complex
  Note:  These values currently only include a subset of arrays which are explicitly tracked.
  The "true" memory usage will be greater.
------------------------------------------------------------

------------------------------------------------------------
          Begin self-consistency iteration #    4

  Date     :  20190513, Time     :  134902.959
------------------------------------------------------------
  Evaluating new KS density using the density matrix
  Evaluating density matrix
  Time summed over all CPUs for getting density from density matrix: real work        0.938 s, elapsed        0.938 s
  Integration grid: deviation in total charge (<rho> - N_e) =   0.000000E+00
  Pulay mixing of updated and previous charge densities.

  Evaluating partitioned Hartree potential by multipole expansion.
  | Analytical far-field extrapolation by fixed multipoles:
  | Hartree multipole sum: apparent total charge =   0.561277E-02
  Summing up the Hartree potential.
  Time summed over all CPUs for potential: real work        0.460 s, elapsed        0.460 s
  | RMS charge density error from multipole expansion :   0.101415E-01
  | Average real-space part of the electrostatic potential :      0.27404125 eV

  Integrating Hamiltonian matrix: batch-based integration.
  Time summed over all CPUs for integration: real work        0.574 s, elapsed        0.574 s

  Updating Kohn-Sham eigenvalues, eigenvectors, occupation numbers, and Fermi level.
  Solving generalized eigenproblem

  Obtaining occupation numbers and chemical potential using ELSI.
  | Chemical potential (Fermi level):    -5.68647918eV
  What follows are estimated values for band gap, HOMO, LUMO, etc.
  | They are estimated on a discrete k-point grid and not necessarily exact.
  | For converged numbers, create a DOS and/or band structure plot on a denser k-grid.

  Highest occupied state (VBM) at     -5.77676453 eV (relative to internal zero)
  | Occupation number:      2.00000000
  | K-point:       1 at    0.000000    0.000000    0.000000 (in units of recip. lattice)

  Lowest unoccupied state (CBM) at    -5.20964481 eV (relative to internal zero)
  | Occupation number:      0.00000000
  | K-point:     105 at    0.000000    0.562500    0.562500 (in units of recip. lattice)

  ESTIMATED overall HOMO-LUMO gap:      0.56711973 eV between HOMO at k-point 1 and LUMO at k-point 105
  | This appears to be an indirect band gap.
  | Smallest direct gap :      2.47991436 eV for k_point 8 at    0.000000    0.562500    0.562500 (in units of recip. lattice)
  The gap value is above 0.2 eV. Unless you are using a very sparse k-point grid,
  this system is most likely an insulator or a semiconductor.

  Total energy components:
  | Sum of eigenvalues            :        -327.51150912 Ha       -8912.04160275 eV
  | XC energy correction          :         -39.69277674 Ha       -1080.09540982 eV
  | XC potential correction       :          52.44054938 Ha        1426.97995261 eV
  | Free-atom electrostatic energy:        -263.39488195 Ha       -7167.33940814 eV
  | Hartree energy correction     :          -0.57722260 Ha         -15.70702617 eV
  | Entropy correction            :          -0.00000000 Ha          -0.00000000 eV
  | ---------------------------
  | Total energy                  :        -578.73584103 Ha      -15748.20349427 eV
  | Total energy, T -> 0          :        -578.73584103 Ha      -15748.20349427 eV  <-- do not rely on this value for anything but (periodic) metals
  | Electronic free energy        :        -578.73584103 Ha      -15748.20349427 eV

  Derived energy quantities:
  | Kinetic energy                :         579.63804432 Ha       15772.75369475 eV
  | Electrostatic energy          :       -1118.68110861 Ha      -30440.86177920 eV
  | Energy correction for multipole
  | error in Hartree potential    :           0.01324991 Ha           0.36054826 eV
  | Sum of eigenvalues per atom                           :       -4456.02080137 eV
  | Total energy (T->0) per atom                          :       -7874.10174713 eV  <-- do not rely on this value for anything but (periodic) metals
  | Electronic free energy per atom                       :       -7874.10174713 eV

  Self-consistency convergence accuracy:
  | Change of charge density      :  0.1376E-01
  | Change of sum of eigenvalues  : -0.3289E+01 eV
  | Change of total energy        :  0.7386E-02 eV

  End self-consistency iteration #     4       :  max(cpu_time)    wall_clock(cpu1)
  | Time for this iteration                    :        3.395 s           3.395 s
  | Charge density update                      :        1.086 s           1.086 s
  | Density mixing & preconditioning           :        0.045 s           0.045 s
  | Hartree multipole update                   :        0.001 s           0.001 s
  | Hartree multipole summation                :        0.463 s           0.463 s
  | Integration                                :        0.574 s           0.574 s
  | Solution of K.-S. eqns.                    :        1.225 s           1.226 s
  | Total energy evaluation                    :        0.001 s           0.000 s

  Partial memory accounting:
  | Current value for overall tracked memory usage on task 0  :          24.376 MB
  | Peak value for overall tracked memory usage on task 0     :          27.050 MB after allocating wave
  | Largest tracked array allocation on task 0 so far         :          23.639 MB  when allocating +KS_eigenvector_complex
  Note:  These values currently only include a subset of arrays which are explicitly tracked.
  The "true" memory usage will be greater.
------------------------------------------------------------

------------------------------------------------------------
          Begin self-consistency iteration #    5

  Date     :  20190513, Time     :  134906.355
------------------------------------------------------------
  Evaluating new KS density using the density matrix
  Evaluating density matrix
  Time summed over all CPUs for getting density from density matrix: real work        1.210 s, elapsed        1.210 s
  Integration grid: deviation in total charge (<rho> - N_e) =  -1.065814E-14
  Pulay mixing of updated and previous charge densities.

  Evaluating partitioned Hartree potential by multipole expansion.
  | Analytical far-field extrapolation by fixed multipoles:
  | Hartree multipole sum: apparent total charge =   0.461874E-02
  Summing up the Hartree potential.
  Time summed over all CPUs for potential: real work        0.531 s, elapsed        0.532 s
  | RMS charge density error from multipole expansion :   0.101156E-01
  | Average real-space part of the electrostatic potential :      0.27088931 eV

  Integrating Hamiltonian matrix: batch-based integration.
  Time summed over all CPUs for integration: real work        0.688 s, elapsed        0.688 s

  Updating Kohn-Sham eigenvalues, eigenvectors, occupation numbers, and Fermi level.
  Solving generalized eigenproblem

  Obtaining occupation numbers and chemical potential using ELSI.
  | Chemical potential (Fermi level):    -5.69338650eV
  What follows are estimated values for band gap, HOMO, LUMO, etc.
  | They are estimated on a discrete k-point grid and not necessarily exact.
  | For converged numbers, create a DOS and/or band structure plot on a denser k-grid.

  Highest occupied state (VBM) at     -5.78473109 eV (relative to internal zero)
  | Occupation number:      2.00000000
  | K-point:       1 at    0.000000    0.000000    0.000000 (in units of recip. lattice)

  Lowest unoccupied state (CBM) at    -5.21248882 eV (relative to internal zero)
  | Occupation number:      0.00000000
  | K-point:     105 at    0.000000    0.562500    0.562500 (in units of recip. lattice)

  ESTIMATED overall HOMO-LUMO gap:      0.57224226 eV between HOMO at k-point 1 and LUMO at k-point 105
  | This appears to be an indirect band gap.
  | Smallest direct gap :      2.48059397 eV for k_point 1475 at    0.000000    0.562500    0.562500 (in units of recip. lattice)
  The gap value is above 0.2 eV. Unless you are using a very sparse k-point grid,
  this system is most likely an insulator or a semiconductor.

  Total energy components:
  | Sum of eigenvalues            :        -327.54613900 Ha       -8912.98392969 eV
  | XC energy correction          :         -39.69007025 Ha       -1080.02176248 eV
  | XC potential correction       :          52.43696215 Ha        1426.88233921 eV
  | Free-atom electrostatic energy:        -263.39488195 Ha       -7167.33940814 eV
  | Hartree energy correction     :          -0.54168081 Ha         -14.73988482 eV
  | Entropy correction            :          -0.00000000 Ha          -0.00000000 eV
  | ---------------------------
  | Total energy                  :        -578.73580986 Ha      -15748.20264592 eV
  | Total energy, T -> 0          :        -578.73580986 Ha      -15748.20264592 eV  <-- do not rely on this value for anything but (periodic) metals
  | Electronic free energy        :        -578.73580986 Ha      -15748.20264592 eV

  Derived energy quantities:
  | Kinetic energy                :         579.61422231 Ha       15772.10546492 eV
  | Electrostatic energy          :       -1118.65996191 Ha      -30440.28634836 eV
  | Energy correction for multipole
  | error in Hartree potential    :           0.01318599 Ha           0.35880897 eV
  | Sum of eigenvalues per atom                           :       -4456.49196484 eV
  | Total energy (T->0) per atom                          :       -7874.10132296 eV  <-- do not rely on this value for anything but (periodic) metals
  | Electronic free energy per atom                       :       -7874.10132296 eV

  Self-consistency convergence accuracy:
  | Change of charge density      :  0.7794E-02
  | Change of sum of eigenvalues  : -0.9423E+00 eV
  | Change of total energy        :  0.8483E-03 eV

  End self-consistency iteration #     5       :  max(cpu_time)    wall_clock(cpu1)
  | Time for this iteration                    :        3.842 s           3.847 s
  | Charge density update                      :        1.371 s           1.371 s
  | Density mixing & preconditioning           :        0.049 s           0.049 s
  | Hartree multipole update                   :        0.001 s           0.001 s
  | Hartree multipole summation                :        0.535 s           0.536 s
  | Integration                                :        0.687 s           0.688 s
  | Solution of K.-S. eqns.                    :        1.198 s           1.201 s
  | Total energy evaluation                    :        0.000 s           0.000 s

  Partial memory accounting:
  | Current value for overall tracked memory usage on task 0  :          24.376 MB
  | Peak value for overall tracked memory usage on task 0     :          27.050 MB after allocating wave
  | Largest tracked array allocation on task 0 so far         :          23.639 MB  when allocating +KS_eigenvector_complex
  Note:  These values currently only include a subset of arrays which are explicitly tracked.
  The "true" memory usage will be greater.
------------------------------------------------------------

------------------------------------------------------------
          Begin self-consistency iteration #    6

  Date     :  20190513, Time     :  134910.202
------------------------------------------------------------
  Evaluating new KS density using the density matrix
  Evaluating density matrix
  Time summed over all CPUs for getting density from density matrix: real work        0.918 s, elapsed        0.918 s
  Integration grid: deviation in total charge (<rho> - N_e) =   1.278977E-13
  Pulay mixing of updated and previous charge densities.

  Evaluating partitioned Hartree potential by multipole expansion.
  | Analytical far-field extrapolation by fixed multipoles:
  | Hartree multipole sum: apparent total charge =   0.458557E-02
  Summing up the Hartree potential.
  Time summed over all CPUs for potential: real work        0.446 s, elapsed        0.446 s
  | RMS charge density error from multipole expansion :   0.101349E-01
  | Average real-space part of the electrostatic potential :      0.27058299 eV

  Integrating Hamiltonian matrix: batch-based integration.
  Time summed over all CPUs for integration: real work        0.565 s, elapsed        0.565 s

  Updating Kohn-Sham eigenvalues, eigenvectors, occupation numbers, and Fermi level.
  Solving generalized eigenproblem

  Obtaining occupation numbers and chemical potential using ELSI.
  | Chemical potential (Fermi level):    -5.69348480eV
  What follows are estimated values for band gap, HOMO, LUMO, etc.
  | They are estimated on a discrete k-point grid and not necessarily exact.
  | For converged numbers, create a DOS and/or band structure plot on a denser k-grid.

  Highest occupied state (VBM) at     -5.78478919 eV (relative to internal zero)
  | Occupation number:      2.00000000
  | K-point:       1 at    0.000000    0.000000    0.000000 (in units of recip. lattice)

  Lowest unoccupied state (CBM) at    -5.21250636 eV (relative to internal zero)
  | Occupation number:      0.00000000
  | K-point:     105 at    0.000000    0.562500    0.562500 (in units of recip. lattice)

  ESTIMATED overall HOMO-LUMO gap:      0.57228283 eV between HOMO at k-point 1 and LUMO at k-point 105
  | This appears to be an indirect band gap.
  | Smallest direct gap :      2.48041886 eV for k_point 1574 at    0.000000    0.562500    0.562500 (in units of recip. lattice)
  The gap value is above 0.2 eV. Unless you are using a very sparse k-point grid,
  this system is most likely an insulator or a semiconductor.

  Total energy components:
  | Sum of eigenvalues            :        -327.55114677 Ha       -8913.12019827 eV
  | XC energy correction          :         -39.68957750 Ha       -1080.00835396 eV
  | XC potential correction       :          52.43630818 Ha        1426.86454359 eV
  | Free-atom electrostatic energy:        -263.39488195 Ha       -7167.33940814 eV
  | Hartree energy correction     :          -0.53650836 Ha         -14.59913535 eV
  | Entropy correction            :          -0.00000000 Ha          -0.00000000 eV
  | ---------------------------
  | Total energy                  :        -578.73580641 Ha      -15748.20255214 eV
  | Total energy, T -> 0          :        -578.73580641 Ha      -15748.20255214 eV  <-- do not rely on this value for anything but (periodic) metals
  | Electronic free energy        :        -578.73580641 Ha      -15748.20255214 eV

  Derived energy quantities:
  | Kinetic energy                :         579.60678729 Ha       15771.90314773 eV
  | Electrostatic energy          :       -1118.65301620 Ha      -30440.09734591 eV
  | Energy correction for multipole
  | error in Hartree potential    :           0.01320159 Ha           0.35923364 eV
  | Sum of eigenvalues per atom                           :       -4456.56009914 eV
  | Total energy (T->0) per atom                          :       -7874.10127607 eV  <-- do not rely on this value for anything but (periodic) metals
  | Electronic free energy per atom                       :       -7874.10127607 eV

  Self-consistency convergence accuracy:
  | Change of charge density      :  0.6296E-02
  | Change of sum of eigenvalues  : -0.1363E+00 eV
  | Change of total energy        :  0.9378E-04 eV

  End self-consistency iteration #     6       :  max(cpu_time)    wall_clock(cpu1)
  | Time for this iteration                    :        3.315 s           3.324 s
  | Charge density update                      :        1.063 s           1.066 s
  | Density mixing & preconditioning           :        0.044 s           0.045 s
  | Hartree multipole update                   :        0.001 s           0.001 s
  | Hartree multipole summation                :        0.448 s           0.449 s
  | Integration                                :        0.563 s           0.565 s
  | Solution of K.-S. eqns.                    :        1.194 s           1.197 s
  | Total energy evaluation                    :        0.001 s           0.001 s

  Partial memory accounting:
  | Current value for overall tracked memory usage on task 0  :          24.377 MB
  | Peak value for overall tracked memory usage on task 0     :          27.050 MB after allocating wave
  | Largest tracked array allocation on task 0 so far         :          23.639 MB  when allocating +KS_eigenvector_complex
  Note:  These values currently only include a subset of arrays which are explicitly tracked.
  The "true" memory usage will be greater.
------------------------------------------------------------

------------------------------------------------------------
          Begin self-consistency iteration #    7

  Date     :  20190513, Time     :  134913.526
------------------------------------------------------------
  Evaluating new KS density using the density matrix
  Evaluating density matrix
  Time summed over all CPUs for getting density from density matrix: real work        0.944 s, elapsed        0.944 s
  Integration grid: deviation in total charge (<rho> - N_e) =   2.344791E-13
  Pulay mixing of updated and previous charge densities.

  Evaluating partitioned Hartree potential by multipole expansion.
  | Analytical far-field extrapolation by fixed multipoles:
  | Hartree multipole sum: apparent total charge =   0.457196E-02
  Summing up the Hartree potential.
  Time summed over all CPUs for potential: real work        0.439 s, elapsed        0.439 s
  | RMS charge density error from multipole expansion :   0.101050E-01
  | Average real-space part of the electrostatic potential :      0.26680927 eV

  Integrating Hamiltonian matrix: batch-based integration.
  Time summed over all CPUs for integration: real work        0.566 s, elapsed        0.566 s

  Updating Kohn-Sham eigenvalues, eigenvectors, occupation numbers, and Fermi level.
  Solving generalized eigenproblem

  Obtaining occupation numbers and chemical potential using ELSI.
  | Chemical potential (Fermi level):    -5.26096777eV
  What follows are estimated values for band gap, HOMO, LUMO, etc.
  | They are estimated on a discrete k-point grid and not necessarily exact.
  | For converged numbers, create a DOS and/or band structure plot on a denser k-grid.

  Highest occupied state (VBM) at     -5.78963069 eV (relative to internal zero)
  | Occupation number:      2.00000000
  | K-point:       1 at    0.000000    0.000000    0.000000 (in units of recip. lattice)

  Lowest unoccupied state (CBM) at    -5.21407468 eV (relative to internal zero)
  | Occupation number:      0.00000000
  | K-point:     105 at    0.000000    0.562500    0.562500 (in units of recip. lattice)

  ESTIMATED overall HOMO-LUMO gap:      0.57555601 eV between HOMO at k-point 1 and LUMO at k-point 105
  | This appears to be an indirect band gap.
  | Smallest direct gap :      2.48108468 eV for k_point 94 at    0.000000    0.562500    0.562500 (in units of recip. lattice)
  The gap value is above 0.2 eV. Unless you are using a very sparse k-point grid,
  this system is most likely an insulator or a semiconductor.

  Total energy components:
  | Sum of eigenvalues            :        -327.57074990 Ha       -8913.65362653 eV
  | XC energy correction          :         -39.68761913 Ha       -1079.95506396 eV
  | XC potential correction       :          52.43371505 Ha        1426.79398097 eV
  | Free-atom electrostatic energy:        -263.39488195 Ha       -7167.33940814 eV
  | Hartree energy correction     :          -0.51625721 Ha         -14.04807332 eV
  | Entropy correction            :          -0.00000000 Ha          -0.00000000 eV
  | ---------------------------
  | Total energy                  :        -578.73579314 Ha      -15748.20219098 eV
  | Total energy, T -> 0          :        -578.73579314 Ha      -15748.20219098 eV  <-- do not rely on this value for anything but (periodic) metals
  | Electronic free energy        :        -578.73579314 Ha      -15748.20219098 eV

  Derived energy quantities:
  | Kinetic energy                :         579.58385087 Ha       15771.27901615 eV
  | Electrostatic energy          :       -1118.63202489 Ha      -30439.52614317 eV
  | Energy correction for multipole
  | error in Hartree potential    :           0.01313516 Ha           0.35742586 eV
  | Sum of eigenvalues per atom                           :       -4456.82681326 eV
  | Total energy (T->0) per atom                          :       -7874.10109549 eV  <-- do not rely on this value for anything but (periodic) metals
  | Electronic free energy per atom                       :       -7874.10109549 eV

  Self-consistency convergence accuracy:
  | Change of charge density      :  0.6008E-02
  | Change of sum of eigenvalues  : -0.5334E+00 eV
  | Change of total energy        :  0.3612E-03 eV

  End self-consistency iteration #     7       :  max(cpu_time)    wall_clock(cpu1)
  | Time for this iteration                    :        3.347 s           3.355 s
  | Charge density update                      :        1.088 s           1.091 s
  | Density mixing & preconditioning           :        0.044 s           0.044 s
  | Hartree multipole update                   :        0.001 s           0.001 s
  | Hartree multipole summation                :        0.442 s           0.443 s
  | Integration                                :        0.565 s           0.566 s
  | Solution of K.-S. eqns.                    :        1.206 s           1.210 s
  | Total energy evaluation                    :        0.000 s           0.000 s

  Partial memory accounting:
  | Current value for overall tracked memory usage on task 0  :          24.377 MB
  | Peak value for overall tracked memory usage on task 0     :          27.050 MB after allocating wave
  | Largest tracked array allocation on task 0 so far         :          23.639 MB  when allocating +KS_eigenvector_complex
  Note:  These values currently only include a subset of arrays which are explicitly tracked.
  The "true" memory usage will be greater.
------------------------------------------------------------

------------------------------------------------------------
          Begin self-consistency iteration #    8

  Date     :  20190513, Time     :  134916.882
------------------------------------------------------------
  Evaluating new KS density using the density matrix
  Evaluating density matrix
  Time summed over all CPUs for getting density from density matrix: real work        0.914 s, elapsed        0.914 s
  Integration grid: deviation in total charge (<rho> - N_e) =   1.847411E-13
  Pulay mixing of updated and previous charge densities.

  Evaluating partitioned Hartree potential by multipole expansion.
  | Analytical far-field extrapolation by fixed multipoles:
  | Hartree multipole sum: apparent total charge =   0.471920E-02
  Summing up the Hartree potential.
  Time summed over all CPUs for potential: real work        0.437 s, elapsed        0.437 s
  | RMS charge density error from multipole expansion :   0.100694E-01
  | Average real-space part of the electrostatic potential :      0.25954264 eV

  Integrating Hamiltonian matrix: batch-based integration.
  Time summed over all CPUs for integration: real work        0.561 s, elapsed        0.561 s

  Updating Kohn-Sham eigenvalues, eigenvectors, occupation numbers, and Fermi level.
  Solving generalized eigenproblem

  Obtaining occupation numbers and chemical potential using ELSI.
  | Chemical potential (Fermi level):    -5.26771962eV
  What follows are estimated values for band gap, HOMO, LUMO, etc.
  | They are estimated on a discrete k-point grid and not necessarily exact.
  | For converged numbers, create a DOS and/or band structure plot on a denser k-grid.

  Highest occupied state (VBM) at     -5.79778670 eV (relative to internal zero)
  | Occupation number:      2.00000000
  | K-point:       1 at    0.000000    0.000000    0.000000 (in units of recip. lattice)

  Lowest unoccupied state (CBM) at    -5.21661416 eV (relative to internal zero)
  | Occupation number:      0.00000000
  | K-point:     105 at    0.000000    0.562500    0.562500 (in units of recip. lattice)

  ESTIMATED overall HOMO-LUMO gap:      0.58117253 eV between HOMO at k-point 1 and LUMO at k-point 105
  | This appears to be an indirect band gap.
  | Smallest direct gap :      2.48218886 eV for k_point 1475 at    0.000000    0.562500    0.562500 (in units of recip. lattice)
  The gap value is above 0.2 eV. Unless you are using a very sparse k-point grid,
  this system is most likely an insulator or a semiconductor.

  Total energy components:
  | Sum of eigenvalues            :        -327.60654540 Ha       -8914.62767147 eV
  | XC energy correction          :         -39.68399377 Ha       -1079.85641305 eV
  | XC potential correction       :          52.42891474 Ha        1426.66335799 eV
  | Free-atom electrostatic energy:        -263.39488195 Ha       -7167.33940814 eV
  | Hartree energy correction     :          -0.47926714 Ha         -13.04152240 eV
  | Entropy correction            :          -0.00000000 Ha          -0.00000000 eV
  | ---------------------------
  | Total energy                  :        -578.73577352 Ha      -15748.20165708 eV
  | Total energy, T -> 0          :        -578.73577352 Ha      -15748.20165708 eV  <-- do not rely on this value for anything but (periodic) metals
  | Electronic free energy        :        -578.73577352 Ha      -15748.20165708 eV

  Derived energy quantities:
  | Kinetic energy                :         579.54038523 Ha       15770.09625565 eV
  | Electrostatic energy          :       -1118.59216497 Ha      -30438.44149968 eV
  | Energy correction for multipole
  | error in Hartree potential    :           0.01303733 Ha           0.35476378 eV
  | Sum of eigenvalues per atom                           :       -4457.31383573 eV
  | Total energy (T->0) per atom                          :       -7874.10082854 eV  <-- do not rely on this value for anything but (periodic) metals
  | Electronic free energy per atom                       :       -7874.10082854 eV

  Self-consistency convergence accuracy:
  | Change of charge density      :  0.4831E-02
  | Change of sum of eigenvalues  : -0.9740E+00 eV
  | Change of total energy        :  0.5339E-03 eV

  End self-consistency iteration #     8       :  max(cpu_time)    wall_clock(cpu1)
  | Time for this iteration                    :        3.299 s           3.307 s
  | Charge density update                      :        1.059 s           1.061 s
  | Density mixing & preconditioning           :        0.046 s           0.046 s
  | Hartree multipole update                   :        0.001 s           0.001 s
  | Hartree multipole summation                :        0.439 s           0.440 s
  | Integration                                :        0.559 s           0.561 s
  | Solution of K.-S. eqns.                    :        1.195 s           1.197 s
  | Total energy evaluation                    :        0.000 s           0.000 s

  Partial memory accounting:
  | Current value for overall tracked memory usage on task 0  :          24.377 MB
  | Peak value for overall tracked memory usage on task 0     :          27.050 MB after allocating wave
  | Largest tracked array allocation on task 0 so far         :          23.639 MB  when allocating +KS_eigenvector_complex
  Note:  These values currently only include a subset of arrays which are explicitly tracked.
  The "true" memory usage will be greater.
------------------------------------------------------------

------------------------------------------------------------
          Begin self-consistency iteration #    9

  Date     :  20190513, Time     :  134920.189
------------------------------------------------------------
  Evaluating new KS density using the density matrix
  Evaluating density matrix
  Time summed over all CPUs for getting density from density matrix: real work        0.913 s, elapsed        0.913 s
  Integration grid: deviation in total charge (<rho> - N_e) =   1.421085E-13
  Pulay mixing of updated and previous charge densities.

  Evaluating partitioned Hartree potential by multipole expansion.
  | Analytical far-field extrapolation by fixed multipoles:
  | Hartree multipole sum: apparent total charge =   0.473689E-02
  Summing up the Hartree potential.
  Time summed over all CPUs for potential: real work        0.441 s, elapsed        0.441 s
  | RMS charge density error from multipole expansion :   0.100562E-01
  | Average real-space part of the electrostatic potential :      0.25752295 eV

  Integrating Hamiltonian matrix: batch-based integration.
  Time summed over all CPUs for integration: real work        0.557 s, elapsed        0.557 s

  Updating Kohn-Sham eigenvalues, eigenvectors, occupation numbers, and Fermi level.
  Solving generalized eigenproblem

  Obtaining occupation numbers and chemical potential using ELSI.
  | Chemical potential (Fermi level):    -5.26972446eV
  What follows are estimated values for band gap, HOMO, LUMO, etc.
  | They are estimated on a discrete k-point grid and not necessarily exact.
  | For converged numbers, create a DOS and/or band structure plot on a denser k-grid.

  Highest occupied state (VBM) at     -5.80021174 eV (relative to internal zero)
  | Occupation number:      2.00000000
  | K-point:       1 at    0.000000    0.000000    0.000000 (in units of recip. lattice)

  Lowest unoccupied state (CBM) at    -5.21738319 eV (relative to internal zero)
  | Occupation number:      0.00000000
  | K-point:     105 at    0.000000    0.562500    0.562500 (in units of recip. lattice)

  ESTIMATED overall HOMO-LUMO gap:      0.58282855 eV between HOMO at k-point 1 and LUMO at k-point 105
  | This appears to be an indirect band gap.
  | Smallest direct gap :      2.48253127 eV for k_point 1475 at    0.000000    0.562500    0.562500 (in units of recip. lattice)
  The gap value is above 0.2 eV. Unless you are using a very sparse k-point grid,
  this system is most likely an insulator or a semiconductor.

  Total energy components:
  | Sum of eigenvalues            :        -327.61661966 Ha       -8914.90180606 eV
  | XC energy correction          :         -39.68298058 Ha       -1079.82884260 eV
  | XC potential correction       :          52.42757317 Ha        1426.62685181 eV
  | Free-atom electrostatic energy:        -263.39488195 Ha       -7167.33940814 eV
  | Hartree energy correction     :          -0.46886009 Ha         -12.75833210 eV
  | Entropy correction            :          -0.00000000 Ha          -0.00000000 eV
  | ---------------------------
  | Total energy                  :        -578.73576911 Ha      -15748.20153710 eV
  | Total energy, T -> 0          :        -578.73576911 Ha      -15748.20153710 eV  <-- do not rely on this value for anything but (periodic) metals
  | Electronic free energy        :        -578.73576911 Ha      -15748.20153710 eV

  Derived energy quantities:
[...]
  | Total energy evaluation                    :        0.000 s           0.000 s

  Partial memory accounting:
  | Current value for overall tracked memory usage on task 0  :          24.377 MB
  | Peak value for overall tracked memory usage on task 0     :          27.050 MB after allocating wave
  | Largest tracked array allocation on task 0 so far         :          23.639 MB  when allocating +KS_eigenvector_complex
  Note:  These values currently only include a subset of arrays which are explicitly tracked.
  The "true" memory usage will be greater.
------------------------------------------------------------

------------------------------------------------------------
          Begin self-consistency iteration #   11

  Date     :  20190513, Time     :  134926.830
------------------------------------------------------------
  Evaluating new KS density using the density matrix
  Evaluating density matrix
  Time summed over all CPUs for getting density from density matrix: real work        0.959 s, elapsed        0.959 s
  Integration grid: deviation in total charge (<rho> - N_e) =   5.684342E-14
  Pulay mixing of updated and previous charge densities.

  Evaluating partitioned Hartree potential by multipole expansion.
  | Analytical far-field extrapolation by fixed multipoles:
  | Hartree multipole sum: apparent total charge =   0.472270E-02
  Summing up the Hartree potential.
  Time summed over all CPUs for potential: real work        0.461 s, elapsed        0.461 s
  | RMS charge density error from multipole expansion :   0.100222E-01
  | Average real-space part of the electrostatic potential :      0.25131932 eV

  Integrating Hamiltonian matrix: batch-based integration.
  Time summed over all CPUs for integration: real work        0.573 s, elapsed        0.573 s

  Updating Kohn-Sham eigenvalues, eigenvectors, occupation numbers, and Fermi level.
  Solving generalized eigenproblem

  Obtaining occupation numbers and chemical potential using ELSI.
  | Chemical potential (Fermi level):    -5.27600150eV
  What follows are estimated values for band gap, HOMO, LUMO, etc.
  | They are estimated on a discrete k-point grid and not necessarily exact.
  | For converged numbers, create a DOS and/or band structure plot on a denser k-grid.

  Highest occupied state (VBM) at     -5.80778337 eV (relative to internal zero)
  | Occupation number:      2.00000000
  | K-point:       1 at    0.000000    0.000000    0.000000 (in units of recip. lattice)

  Lowest unoccupied state (CBM) at    -5.21979821 eV (relative to internal zero)
  | Occupation number:      0.00000000
  | K-point:     105 at    0.000000    0.562500    0.562500 (in units of recip. lattice)

  ESTIMATED overall HOMO-LUMO gap:      0.58798516 eV between HOMO at k-point 1 and LUMO at k-point 105
  | This appears to be an indirect band gap.
  | Smallest direct gap :      2.48354815 eV for k_point 8 at    0.000000    0.562500    0.562500 (in units of recip. lattice)
  The gap value is above 0.2 eV. Unless you are using a very sparse k-point grid,
  this system is most likely an insulator or a semiconductor.

  Total energy components:
  | Sum of eigenvalues            :        -327.64949546 Ha       -8915.79640218 eV
  | XC energy correction          :         -39.67970703 Ha       -1079.73976486 eV
  | XC potential correction       :          52.42323776 Ha        1426.50887947 eV
  | Free-atom electrostatic energy:        -263.39488195 Ha       -7167.33940814 eV
  | Hartree energy correction     :          -0.43491117 Ha         -11.83453508 eV
  | Entropy correction            :          -0.00000000 Ha          -0.00000000 eV
  | ---------------------------
  | Total energy                  :        -578.73575785 Ha      -15748.20123080 eV
  | Total energy, T -> 0          :        -578.73575785 Ha      -15748.20123080 eV  <-- do not rely on this value for anything but (periodic) metals
  | Electronic free energy        :        -578.73575785 Ha      -15748.20123080 eV

  Derived energy quantities:
  | Kinetic energy                :         579.48856222 Ha       15768.68607999 eV
  | Electrostatic energy          :       -1118.54461304 Ha      -30437.14754593 eV
  | Energy correction for multipole
  | error in Hartree potential    :           0.01291289 Ha           0.35137756 eV
  | Sum of eigenvalues per atom                           :       -4457.89820109 eV
  | Total energy (T->0) per atom                          :       -7874.10061540 eV  <-- do not rely on this value for anything but (periodic) metals
  | Electronic free energy per atom                       :       -7874.10061540 eV

  Self-consistency convergence accuracy:
  | Change of charge density      :  0.1118E-05
  | Change of sum of eigenvalues  : -0.1006E-03 eV
  | Change of total energy        :  0.6318E-07 eV

  End self-consistency iteration #    11       :  max(cpu_time)    wall_clock(cpu1)
  | Time for this iteration                    :        3.389 s           3.390 s
  | Charge density update                      :        1.106 s           1.106 s
  | Density mixing & preconditioning           :        0.046 s           0.047 s
  | Hartree multipole update                   :        0.001 s           0.001 s
  | Hartree multipole summation                :        0.466 s           0.465 s
  | Integration                                :        0.573 s           0.573 s
  | Solution of K.-S. eqns.                    :        1.197 s           1.197 s
  | Total energy evaluation                    :        0.000 s           0.001 s

  Partial memory accounting:
  | Current value for overall tracked memory usage on task 0  :          24.377 MB
  | Peak value for overall tracked memory usage on task 0     :          27.050 MB after allocating wave
  | Largest tracked array allocation on task 0 so far         :          23.639 MB  when allocating +KS_eigenvector_complex
  Note:  These values currently only include a subset of arrays which are explicitly tracked.
  The "true" memory usage will be greater.
------------------------------------------------------------

------------------------------------------------------------
          Begin self-consistency iteration #   12

  Date     :  20190513, Time     :  134930.220
------------------------------------------------------------
  Evaluating new KS density using the density matrix
  Evaluating density matrix
  Time summed over all CPUs for getting density from density matrix: real work        1.009 s, elapsed        1.009 s
  Integration grid: deviation in total charge (<rho> - N_e) =   9.947598E-14
  Pulay mixing of updated and previous charge densities.

  Evaluating partitioned Hartree potential by multipole expansion.
  | Analytical far-field extrapolation by fixed multipoles:
  | Hartree multipole sum: apparent total charge =   0.472286E-02
  Summing up the Hartree potential.
  Time summed over all CPUs for potential: real work        0.442 s, elapsed        0.442 s
  | RMS charge density error from multipole expansion :   0.100221E-01
  | Average real-space part of the electrostatic potential :      0.25131771 eV

  Integrating Hamiltonian matrix: batch-based integration.
  Time summed over all CPUs for integration: real work        0.565 s, elapsed        0.565 s

  Updating Kohn-Sham eigenvalues, eigenvectors, occupation numbers, and Fermi level.
  Solving generalized eigenproblem

  Obtaining occupation numbers and chemical potential using ELSI.
  | Chemical potential (Fermi level):    -5.27600234eV
  What follows are estimated values for band gap, HOMO, LUMO, etc.
  | They are estimated on a discrete k-point grid and not necessarily exact.
  | For converged numbers, create a DOS and/or band structure plot on a denser k-grid.

  Highest occupied state (VBM) at     -5.80778444 eV (relative to internal zero)
  | Occupation number:      2.00000000
  | K-point:       1 at    0.000000    0.000000    0.000000 (in units of recip. lattice)

  Lowest unoccupied state (CBM) at    -5.21979871 eV (relative to internal zero)
  | Occupation number:      0.00000000
  | K-point:     105 at    0.000000    0.562500    0.562500 (in units of recip. lattice)

  ESTIMATED overall HOMO-LUMO gap:      0.58798573 eV between HOMO at k-point 1 and LUMO at k-point 105
  | This appears to be an indirect band gap.
  | Smallest direct gap :      2.48354819 eV for k_point 94 at    0.000000    0.562500    0.562500 (in units of recip. lattice)
  The gap value is above 0.2 eV. Unless you are using a very sparse k-point grid,
  this system is most likely an insulator or a semiconductor.

  Total energy components:
  | Sum of eigenvalues            :        -327.64950126 Ha       -8915.79656015 eV
  | XC energy correction          :         -39.67970621 Ha       -1079.73974253 eV
  | XC potential correction       :          52.42323668 Ha        1426.50884990 eV
  | Free-atom electrostatic energy:        -263.39488195 Ha       -7167.33940814 eV
  | Hartree energy correction     :          -0.43490510 Ha         -11.83436992 eV
  | Entropy correction            :          -0.00000000 Ha          -0.00000000 eV
  | ---------------------------
  | Total energy                  :        -578.73575785 Ha      -15748.20123084 eV
  | Total energy, T -> 0          :        -578.73575785 Ha      -15748.20123084 eV  <-- do not rely on this value for anything but (periodic) metals
  | Electronic free energy        :        -578.73575785 Ha      -15748.20123084 eV

  Derived energy quantities:
  | Kinetic energy                :         579.48855343 Ha       15768.68584071 eV
  | Electrostatic energy          :       -1118.54460507 Ha      -30437.14732902 eV
  | Energy correction for multipole
  | error in Hartree potential    :           0.01291283 Ha           0.35137593 eV
  | Sum of eigenvalues per atom                           :       -4457.89828007 eV
  | Total energy (T->0) per atom                          :       -7874.10061542 eV  <-- do not rely on this value for anything but (periodic) metals
  | Electronic free energy per atom                       :       -7874.10061542 eV

  Self-consistency convergence accuracy:
  | Change of charge density      :  0.5654E-06
  | Change of sum of eigenvalues  : -0.1580E-03 eV
  | Change of total energy        : -0.4103E-07 eV

  Preliminary charge convergence reached. Turning off preconditioner.

  Writing Kohn-Sham eigenvalues.
  K-point:       1 at    0.000000    0.000000    0.000000 (in units of recip. lattice)

  State    Occupation    Eigenvalue [Ha]    Eigenvalue [eV]
      1       2.00000         -65.491789        -1782.12226
      2       2.00000         -65.491789        -1782.12226
      3       2.00000          -5.097232         -138.70274
      4       2.00000          -5.096984         -138.69599
      5       2.00000          -3.510778          -95.53314
      6       2.00000          -3.510778          -95.53314
      7       2.00000          -3.510778          -95.53314
      8       2.00000          -3.510238          -95.51843
      9       2.00000          -3.510238          -95.51843
     10       2.00000          -3.510238          -95.51843
     11       2.00000          -0.643669          -17.51512
     12       2.00000          -0.213432           -5.80778
     13       2.00000          -0.213432           -5.80778
     14       2.00000          -0.213432           -5.80778
     15       0.00000          -0.119708           -3.25741
     16       0.00000          -0.119708           -3.25741
     17       0.00000          -0.119708           -3.25741
     18       0.00000          -0.107724           -2.93133
     19       0.00000           0.076751            2.08849
     20       0.00000           0.076751            2.08849

  What follows are estimated values for band gap, HOMO, LUMO, etc.
  | They are estimated on a discrete k-point grid and not necessarily exact.
  | For converged numbers, create a DOS and/or band structure plot on a denser k-grid.

  Highest occupied state (VBM) at     -5.80778444 eV (relative to internal zero)
  | Occupation number:      2.00000000
  | K-point:       1 at    0.000000    0.000000    0.000000 (in units of recip. lattice)

  Lowest unoccupied state (CBM) at    -5.21979871 eV (relative to internal zero)
  | Occupation number:      0.00000000
  | K-point:     105 at    0.000000    0.562500    0.562500 (in units of recip. lattice)

  ESTIMATED overall HOMO-LUMO gap:      0.58798573 eV between HOMO at k-point 1 and LUMO at k-point 105
  | This appears to be an indirect band gap.
  | Smallest direct gap :      2.48354819 eV for k_point 94 at    0.000000    0.562500    0.562500 (in units of recip. lattice)
  The gap value is above 0.2 eV. Unless you are using a very sparse k-point grid,
  this system is most likely an insulator or a semiconductor.

  Self-consistency cycle converged.

  End self-consistency iteration #    12       :  max(cpu_time)    wall_clock(cpu1)
  | Time for this iteration                    :        3.459 s           3.458 s
  | Charge density update                      :        1.164 s           1.163 s
  | Density mixing                             :        0.047 s           0.047 s
  | Hartree multipole update                   :        0.001 s           0.001 s
  | Hartree multipole summation                :        0.445 s           0.445 s
  | Integration                                :        0.565 s           0.565 s
  | Solution of K.-S. eqns.                    :        1.236 s           1.236 s
  | Total energy evaluation                    :        0.001 s           0.001 s

  Partial memory accounting:
  | Current value for overall tracked memory usage on task 0  :          24.377 MB
  | Peak value for overall tracked memory usage on task 0     :          27.050 MB after allocating wave
  | Largest tracked array allocation on task 0 so far         :          23.639 MB  when allocating +KS_eigenvector_complex
  Note:  These values currently only include a subset of arrays which are explicitly tracked.
  The "true" memory usage will be greater.
------------------------------------------------------------

  Energy and forces in a compact form:
  | Total energy uncorrected      :         -0.157482012308404E+05 eV
  | Total energy corrected        :         -0.157482012308404E+05 eV  <-- do not rely on this value for anything but (periodic) metals
  | Electronic free energy        :         -0.157482012308404E+05 eV

  ------------------------------------ 
  Start decomposition of the XC Energy 
  ------------------------------------ 
  X and C from original XC functional choice 
  Hartree-Fock Energy :          0.000000000 Ha              0.000000000 eV
  X Energy            :        -37.536125499 Ha          -1021.409943592 eV
  C Energy            :         -2.143580711 Ha            -58.329798936 eV
  Total XC Energy     :        -39.679706210 Ha          -1079.739742528 eV
  ------------------------------------ 
  LDA X and C from self-consistent density 
  X Energy LDA        :        -37.536125499 Ha          -1021.409943592 eV
  C Energy LDA        :         -2.143580711 Ha            -58.329798936 eV
  ------------------------------------ 
  End decomposition of the XC Energy 
  ------------------------------------ 

------------------------------------------------------------

------------------------------------------------------------------------------
  Final output of selected total energy values:

  The following output summarizes some interesting total energy values
  at the end of a run (AFTER all relaxation, molecular dynamics, etc.).

  | Total energy of the DFT / Hartree-Fock s.c.f. calculation      :         -15748.201230840 eV
  | Final zero-broadening corrected energy (caution - metals only) :         -15748.201230840 eV
  | For reference only, the value of 1 Hartree used in FHI-aims is :             27.211384500 eV

  Before relying on these values, please be sure to understand exactly which
  total energy value is referred to by a given number. Different objects may
  all carry the same name 'total energy'. Definitions:

  Total energy of the DFT / Hartree-Fock s.c.f. calculation:
  | Note that this energy does not include ANY quantities calculated after the
  | s.c.f. cycle, in particular not ANY RPA, MP2, etc. many-body perturbation terms.

  Final zero-broadening corrected energy:
  | For metallic systems only, a broadening of the occupation numbers at the Fermi
  | level can be extrapolated back to zero broadening by an electron-gas inspired
  | formula. For all systems that are not real metals, this value can be
  | meaningless and should be avoided.

------------------------------------------------------------------------------
  Methods described in the following list of references were used in this FHI-aims run.
  If you publish the results, please make sure to cite these reference if they apply.
  FHI-aims is an academic code, and for our developers (often, Ph.D. students
  and postdocs), scientific credit in the community is essential.
  Thank you for helping us!

  For any use of FHI-aims, please cite:

    Volker Blum, Ralf Gehrke, Felix Hanke, Paula Havu, Ville Havu,
    Xinguo Ren, Karsten Reuter, and Matthias Scheffler
    'Ab initio molecular simulations with numeric atom-centered orbitals'
    Computer Physics Communications 180, 2175-2196 (2009)
    http://dx.doi.org/10.1016/j.cpc.2009.06.022


  For the real-space grid partitioning and parallelization used in this calculation, please cite:

    Ville Havu, Volker Blum, Paula Havu, and Matthias Scheffler,
    'Efficient O(N) integration for all-electron electronic structure calculation'
    'using numerically tabulated basis functions'
    Journal of Computational Physics 228, 8367-8379 (2009).
    http://dx.doi.org/10.1016/j.jcp.2009.08.008

  Of course, there are many other important community references, e.g., those cited in the
  above references. Our list is limited to references that describe implementations in the
  FHI-aims code. The reason is purely practical (length of this list) - please credit others as well.

------------------------------------------------------------
          Leaving FHI-aims.
          Date     :  20190513, Time     :  134933.686

          Computational steps:
          | Number of self-consistency cycles          :           12
          | Number of SCF (re)initializations          :            1

          Detailed time accounting                     :  max(cpu_time)    wall_clock(cpu1)
          | Total time                                 :       45.942 s          45.992 s
          | Preparation time                           :        0.092 s           0.092 s
          | Boundary condition initalization           :        0.047 s           0.047 s
          | Grid partitioning                          :        0.036 s           0.037 s
          | Preloading free-atom quantities on grid    :        0.001 s           0.002 s
          | Free-atom superposition energy             :        0.036 s           0.036 s
          | Total time for integrations                :        8.175 s           8.185 s
          | Total time for solution of K.-S. equations :       17.387 s          17.405 s
          | Total time for density update              :       13.932 s          13.947 s
          | Total time for mixing & preconditioning    :        0.555 s           0.556 s
          | Total time for Hartree multipole update    :        0.009 s           0.012 s
          | Total time for Hartree multipole sum       :        5.498 s           5.502 s
          | Total time for total energy evaluation     :        0.008 s           0.006 s
          | Total time for scaled ZORA corrections     :        0.000 s           0.000 s

 This is a stub MPI_ALLREDUCE call.
 You should not be here. Check your
 setting on the use_mpi variable, or
 link against true MPI-libraries.
