------------------------------------------------------------
          Invoking FHI-aims ...
          Version 171221_1
          Compiled on 2019/05/06 at 14:26:40 on host ffph0xx.

          When using FHI-aims, please cite the following reference:

          Volker Blum, Ralf Gehrke, Felix Hanke, Paula Havu,
          Ville Havu, Xinguo Ren, Karsten Reuter, and Matthias Scheffler,
          'Ab Initio Molecular Simulations with Numeric Atom-Centered Orbitals',
          Computer Physics Communications 180, 2175-2196 (2009)

          For any questions about FHI-aims, please visit the aimsclub website
          with its forums and wiki. Contributions to both the forums and the
          wiki are warmly encouraged - they are for you, and everyone is welcome there.

------------------------------------------------------------



  Date     :  20190508, Time     :  141357.050
  Time zero on CPU 1             :   0.788000000000000E-03  s.
  Internal wall clock time zero  :           326556837.050  s.

  FHI-aims created a unique identifier for this run for later identification
  aims_uuid : 313C70D5-C7BC-4AFB-A01C-641172E07624


  Performing system and environment tests:
  *** Environment variable OMP_NUM_THREADS is not set
  *** For performance reasons you might want to set it to 1
  | Stacksize not measured: no C compiler

  Obtaining array dimensions for all initial allocations:
  
  -----------------------------------------------------------------------
  Parsing control.in (first pass over file, find array dimensions only).
  The contents of control.in will be repeated verbatim below
  unless switched off by setting 'verbatim_writeout .false.' .
  in the first line of control.in .
  -----------------------------------------------------------------------
  
  #--- Specification of method ---
  xc hf
  charge 0.0
  spin collinear # collinear ... unrestructed hf, none ... restricted hf
  default_initial_moment 1  # initial total spin, only required for unrestricted hf
  #---
  
  #--- iteration limit ---
  sc_iter_limit 100
  
  # other possible thresholds
  # sc_accuracy_eev ... for sum of Kohn-Sham eigen values
  # sc_accuracy_etot .. total energy
  # sc_accuracy_rho ... electron density
  #---
  
  # add external perturbation (removed after a few steps), to help with convergence
  switch_external_pert 10 safe
  
  ################## Species Defaults (Tight) ###################
  
  ################################################################################
  #
  #  FHI-aims code project
  # Volker Blum, Fritz Haber Institute Berlin, 2009
  #
  #  Suggested "tight" defaults for F atom (to be pasted into control.in file)
  #
  ################################################################################
    species        F
  #     global species definitions
      nucleus             9
      mass                18.9984032
  #
      l_hartree           6
  #
      cut_pot             4.0  2.0  1.0
      basis_dep_cutoff    1e-4
  #
      radial_base         37 7.0
      radial_multiplier   2
      angular_grids specified
        division   0.4014  110
        division   0.5291  194
        division   0.6019  302
        division   0.6814  434
  #      division   0.7989  590
  #      division   0.8965  770
  #      division   1.3427  974
  #      outer_grid   974
        outer_grid  434
  ################################################################################
  #
  #  Definition of "minimal" basis
  #
  ################################################################################
  #     valence basis states
      valence      2  s   2.
      valence      2  p   5.
  #     ion occupancy
      ion_occ      2  s   1.
      ion_occ      2  p   4.
  ################################################################################
  #
  #  Suggested additional basis functions. For production calculations,
  #  uncomment them one after another (the most important basis functions are
  #  listed first).
  #
  #  Constructed for dimers: 1.2 A, 1.418 A, 1.75 A, 2.25 A, 3.25 A
  #
  ################################################################################
  #  "First tier" - improvements: -149.44 meV to -45.88 meV
       hydro 2 p 1.7
       hydro 3 d 7.4
       hydro 3 s 6.8
  #  "Second tier" - improvements: -12.96 meV to -1.56 meV
       hydro 4 f 11.2
       ionic 2 p auto
       hydro 1 s 0.75
       hydro 4 d 8.8
       hydro 5 g 16.8
  #  "Third tier" - improvements: -0.58 meV to -0.05 meV
  #     hydro 3 p 6.2
  #     hydro 3 s 3.2
  #     hydro 4 f 9.6
  #     hydro 3 s 19.6
  #     hydro 4 d 8.6
  #     hydro 5 g 14.4
  # Further basis functions: -0.05 meV and below
  #     hydro 3 p 4.2
  ################################################################################
  #
  # For methods that use the localized form of the "resolution of identity" for
  # the two-electron Coulomb operator (RI_method LVL), particularly Hartree-Fock and
  # hybrid density functional calculations, the highest accuracy can be obtained by
  # uncommenting the line beginning with "for_aux"  below, thus adding an extra g radial
  # function to the construction of the product basis set for the expansion.
  # See Ref. New J. Phys. 17, 093020 (2015) for more information, particularly Figs. 1 and 6.
  #
  ################################################################################
  #
  # for_aux hydro 5 g 6.0
  
  -----------------------------------------------------------------------
  Completed first pass over input file control.in .
  -----------------------------------------------------------------------
  
  
  -----------------------------------------------------------------------
  Parsing geometry.in (first pass over file, find array dimensions only).
  The contents of geometry.in will be repeated verbatim below
  unless switched off by setting 'verbatim_writeout .false.' .
  in the first line of geometry.in .
  -----------------------------------------------------------------------
  
  # The hydrogen atom
  atom 0.0 0.0 0.0 F
  
  -----------------------------------------------------------------------
  Completed first pass over input file geometry.in .
  -----------------------------------------------------------------------
  

  Basic array size parameters:
  | Number of species                 :        1
  | Number of atoms                   :        1
  | Max. basis fn. angular momentum   :        4
  | Max. atomic/ionic basis occupied n:        2
  | Max. number of basis fn. types    :        3
  | Max. radial fns per species/type  :        7
  | Max. logarithmic grid size        :     1310
  | Max. radial integration grid size :       75
  | Max. angular integration grid size:      434
  | Max. angular grid division number :        8
  | Radial grid for Hartree potential :     1310
  | Number of spin channels           :        2
  | External embedding multipoles     :        0

------------------------------------------------------------
          Reading file control.in.
------------------------------------------------------------

  Hartree-Fock calculation starts ...... 
  Attention: this version of Hartree-Fock employs an auxiliary basis. 

  Charge =   0.000000E+00: Neutral system requested explicitly.
  Spin treatment: Spin density functional theory - collinear spins.
  Initial spin moment per atom:   1.0000
  Maximum number of s.-c. iterations  :   100
  External perturbation switched on up to cycle :         10

  Reading configuration options for species F                   .
  | Found nuclear charge :   9.0000
  | Found atomic mass :    18.998403199999998      amu
  | Found l_max for Hartree potential  :   6
  | Found cutoff potl. onset [A], width [A], scale factor :    4.00000    2.00000    1.00000
  | Threshold for basis-dependent cutoff potential is   0.100000E-03
  | Found data for basic radial integration grid :    37 points, outermost radius =    7.000 A
  | Found multiplier for basic radial grid :   2
  | Found angular grid specification: user-specified.
  | Specified grid contains     5 separate shells.
  | Check grid settings after all constraints further below.
  | Found free-atom valence shell :  2 s   2.000
  | Found free-atom valence shell :  2 p   5.000
  | Found free-ion valence shell :  2 s   1.000
  | Found free-ion valence shell :  2 p   4.000
  | Found hydrogenic basis function :  2 p   1.700
  | Found hydrogenic basis function :  3 d   7.400
  | Found hydrogenic basis function :  3 s   6.800
  | Found hydrogenic basis function :  4 f  11.200
  | Found ionic basis function :  2 p , default cutoff radius.
  | Found hydrogenic basis function :  1 s   0.750
  | Found hydrogenic basis function :  4 d   8.800
  | Found hydrogenic basis function :  5 g  16.800
  Species F                   : Missing cutoff potential type.
  Defaulting to exp(1/x)/(1-x)^2 type cutoff potential.
  Species F : No 'logarithmic' tag. Using default grid for free atom:
  | Default logarithmic grid data [bohr] : 0.1000E-03 0.1000E+03 0.1012E+01
  | Will include ionic basis functions of  2.0-fold positive F                    ion.
  Species F : On-site basis accuracy parameter (for Gram-Schmidt orthonormalisation) not specified.
  Using default value basis_acc =  0.1000000E-03.
  Species F                   : Using default innermost maximum threshold i_radial=  2 for radial functions.
  Species F                   : Default cutoff onset for free atom density etc. : 0.40000000E+01 AA.
  Species F                   : Basic radial grid will be enhanced according to radial_multiplier =   2, to contain    75 grid points.

  Finished reading input file 'control.in'. Consistency checks are next.

  MPI_IN_PLACE appears to work with this MPI implementation.
  | Keeping use_mpi_in_place .true. (see manual).
  Explicit treatment of the Coulomb operator is needed, but the RI method is not specified.
  Coulomb operator: Defaulting to 'LVL fast' resolution of identity - RI_type = LVL_fast 
  Species F: Using default value for prodbas_acc =   1.000000E-04.
  Species F: Using default value max_l_prodbas =    20.
  Target number of points in a grid batch is not set. Defaulting to  100
  Method for grid partitioning is not set. Defaulting to 'maxmin' partitioning.
  Batch size limit is not set. Defaulting to    200
  By default, will store active basis functions for each batch.
  If in need of memory, prune_basis_once .false. can be used to disable this option.
  communication_type for Hartree potential was not specified.
  Defaulting to calc_hartree .
 * Attention: 
 * You may want to set distributed_spline_storage to .true. in order to save memory.
 * This doesn't harm performance and is perfectly ok unless:
 * - you get error messages in postprocessing (about missing atoms in get_rho_multipole_spl)
 * - you need full spline storage in hirshfeld_analysis
  Defaulting to Pulay charge density mixer.
  Pulay mixer: Number of relevant iterations not set.
  Defaulting to    8 iterations.
  Pulay mixer: Number of initial linear mixing iterations not set.
  Defaulting to    0 iterations.
  Work space size for distributed Hartree potential not set.
  Defaulting to   0.200000E+03 MB.
  Mixing parameter for charge density mixing has not been set.
  Using default: charge_mix_param =     0.0500.
  The mixing parameter will be adjusted in iteration number     2 of the first full s.c.f. cycle only.
  Mixing parameter for spin density mixing has not been set.
  Using charge_mix_param as default:     0.0500.
  Algorithm-dependent basis array size parameters:
  | n_max_pulay                         :        8
 * Notice: The s.c.f. convergence criterion sc_accuracy_rho was not provided.
 * We used to stop in this case, and ask the user to provide reasonable
 * scf convergence criteria. However, this led some users to employ criteria
 * that led to extremely long run times, e.g., for simple relaxation.
 * We now preset a default value for sc_accuracy_rho if it is not set.
 * You may still wish to check if this setting is too tight or too loose for your needs.
 * Based on n_atoms, FHI-aims chose sc_accuracy_rho =  0.100000E-05 .
  Presetting      1001 iterations before the initial mixing cycle
  is restarted anyway using the sc_init_iter criterion / keyword.
  Presetting a factor      1.000 between actual scf density residual
  and density convergence criterion sc_accuracy_rho below which sc_init_iter
  takes no effect.
 * No s.c.f. convergence criteria (sc_accuracy_*) were provided in control.in.
 * The run will proceed with a reasonable default guess, but please check whether.
 * the s.c.f. cycles seem to take too much or too little time.
  Calculation of forces was not defined in control.in. No forces will be calculated.
  Geometry relaxation not requested: no relaxation will be performed.
  No accuracy limit for integral partition fn. given. Defaulting to  0.1000E-14.
  No threshold value for u(r) in integrations given. Defaulting to  0.1000E-05.

  Attention! Symmetry-breaking settings requested above.
  Enforcing the following defaults: 
    Occupation (smearing) type: Gaussian broadening
    Gaussian broadening width :   0.100000E-04 eV.

  No accuracy for occupation numbers given. Defaulting to  0.1000E-12.
  No threshold value for occupation numbers given. Defaulting to  0.0000E+00.
  No accuracy for fermi level given. Defaulting to  0.1000E-19.
  Maximum # of iterations to find E_F not set. Defaulting to  200.
  Preferred method for the eigenvalue solver ('KS_method') not specified in 'control.in'.
  Defaulting to serial version, 'lapack_fast'.
  Will not use alltoall communication since running on < 1024 CPUs.
  Threshold for basis singularities not set.
  Default threshold for basis singularities:  0.1000E-04
  partition_type (choice of integration weights) for integrals was not specified.
  | Using a version of the partition function of Stratmann and coworkers ('stratmann_smoother').
  | At each grid point, the set of atoms used to build the partition table is smoothly restricted to
  | only those atoms whose free-atom density would be non-zero at that grid point.
  Partitioning for Hartree potential was not defined. Using partition_type for integrals.
  | Adjusted default value of keyword multip_moments_threshold to:       0.10000000E-11
  | This value may affect high angular momentum components of the Hartree potential in periodic systems.
  Threshold for auxiliary basis singularities not set.
  Default threshold for auxiliary basis singularities:  0.1000E-04
  No q(lm)/r^(l+1) cutoff set for long-range Hartree potential.
  | Using default value of  0.100000E-09 .
  | Verify using the multipole_threshold keyword.
  Defaulting to new monopole extrapolation.
  Density update method: automatic selection selected.
  Coulomb operator: Defaulting to screening threshold for four-center integrals:   0.100000E-06
  Coulomb operator: Defaulting to screening threshold for Coulomb matrix:   0.100000E-09
  Coulomb operator: Defaulting to 'LVL_fast' resolution of identity - RI_type = LVL_fast 
  No other resolution of identity version is supported for periodic boundary conditions at present.
  Coulomb operator: Defaulting to logarithmic spherical Bessel transform integrals (use_logsbt .true.).
  LVL not implemented with density matrix yet
  -> switching to transformed overlap
  LVL probably works better with logsbt
  Default to 1D ("use_logsbt") integrations for auxiliary 2-center integrals.
  Default onset of logarithmic r-grid for SBT is-38.000000000000
  Default onset of logarithmic k-grid for SBT is-25.000000000000
  Default range of logarithmic r- and k-grid for SBT is 45.000000000000
  Default number of logarithmic r- and k-grid for SBT is  4096
------------------------------------------------------------


------------------------------------------------------------
          Reading geometry description geometry.in.
------------------------------------------------------------
  Attention! Symmetry-breaking settings requested in control.in.
    Homogeneous external field: Initial settings   0.000000E+00  0.000000E+00  0.100000E-02
 * Warning! You did not set the 'relativistic' flag in input file 'control.in'.
 * Since you are not attempting to treat any elements beyond Ca(Z=20), FHI-aims
 * will default to 'relativistic none'.
 * You must ensure that this is really what you want!!
 * For example, DO NOT compute total-energy differences between results from
 * different settings of the 'relativistic' flag.
  Input structure read successfully.
  The structure contains        1 atoms,  and a total of          9.000 electrons.

  Input geometry:
  | No unit cell requested.
  | Atomic structure:
  |       Atom                x [A]            y [A]            z [A]
  |    1: Species F             0.00000000        0.00000000        0.00000000
  |

  | Isolated single atom, no quantum-mechanical atoms close by.

  Initial moments and charges:
  |  Atom   Moment         Charge        Species
  |     1   0.100000E+01   0.000000E+00   F

  Number of empty states per atom not set in control.in - providing a guess from actual geometry.
  | Total number of empty states used during s.c.f. cycle:        3
  If you use a very high smearing, use empty_states (per atom!) in control.in to increase this value.

  Structure-dependent array size parameters: 
  | Number of distinct atom types in initial rho :        1
  | Maximum number of distinct radial functions  :       11
  | Maximum number of basis functions            :       39
  | Number of Kohn-Sham states (occupied + empty):        8
------------------------------------------------------------
  Setting Coulomb cut-width to  1.091868692359 * rcut.
  Setting Coulomb cutting radius rcut to  8.000000000000 A.

------------------------------------------------------------
          Preparing all fixed parts of the calculation.
------------------------------------------------------------
  Determining machine precision:
     2.2250738585072014E-308
  Setting up grids for atomic and cluster calculations.

  Creating wave function, potential, and density for free atoms.

  Species: F

  List of occupied orbitals and eigenvalues:
    n    l              occ      energy [Ha]    energy [eV]
    1    0           2.0000       -24.189290      -658.2241
    2    0           2.0000        -1.086670       -29.5698
    2    1           5.0000        -0.415437       -11.3046

  Spin-polarized or charged system:
  Charge density initialized according to selected moments and charges.

  Creating spin-polarized density from free atoms.

  Species: F
  Charge:   0.000000
  Moment:   1.000000

  List of occupied orbitals and eigenvalues:
    n    l      energy [Ha]    energy [eV]    occupation
  Spin-up
    1    0       -24.200723      -658.5352     1.00000000
    2    0        -1.113816       -30.3085     1.00000000
    2    1        -0.441917       -12.0252     3.00000000
  Spin-down
    1    0       -24.169969      -657.6983     1.00000000
    2    0        -1.054001       -28.6808     1.00000000
    2    1        -0.383853       -10.4452     2.00000000

  Creating fixed part of basis set: Ionic, confined, hydrogenic.

  F                    ion:

  List of free ionic orbitals and eigenvalues:
    n    l      energy [Ha]    energy [eV]
    1    0       -25.877814      -704.1711
    2    0        -2.473609       -67.3103
    2    1        -1.793419       -48.8014


  List of ionic basis orbitals and eigenvalues:
    n    l      energy [Ha]    energy [eV]    outer radius [A]
    2    1        -1.793414       -48.8013       3.346402


  F                    hydrogenic:

  List of hydrogenic basis orbitals: 
    n    l      effective z      eigenvalue [eV]  inner max. [A]     outer max. [A]     outer radius [A]   
    2    1         1.700000        -9.8152           1.243167           1.243167           5.456923
    3    2         7.400000       -82.7830           0.642437           0.642437           3.645380
    3    0         6.800000       -69.9029           0.057798           1.022307           4.119412
    4    3        11.200000      -106.6685           0.753096           0.753096           3.645380
    1    0         0.750000        -7.6499           0.708442           0.708442           5.390618
    4    2         8.800000       -65.8514           0.408685           1.273937           4.598524
    5    4        16.800000      -153.6028           0.790838           0.790838           3.471409


  Adding cutoff potential to free-atom effective potential.
  Creating atomic-like basis functions for current effective potential.

  Species F                   :

  List of atomic basis orbitals and eigenvalues:
    n    l      energy [Ha]    energy [eV]    outer radius [A]
    1    0       -24.189290      -658.2241       1.258458
    2    0        -1.086670       -29.5698       4.948503
    2    1        -0.415437       -11.3046       5.260416

  Assembling full basis from fixed parts.
  | Species F :   atomic orbital   1 s accepted.
  | Species F :    hydro orbital   3 s accepted.
  | Species F :   atomic orbital   2 s accepted.
  | Species F :    hydro orbital   1 s accepted.
  | Species F :    ionic orbital   2 p accepted.
  | Species F :   atomic orbital   2 p accepted.
  | Species F :    hydro orbital   2 p accepted.
  | Species F :    hydro orbital   3 d accepted.
  | Species F :    hydro orbital   4 d accepted.
  | Species F :    hydro orbital   4 f accepted.
  | Species F :    hydro orbital   5 g accepted.

  Basis size parameters after reduction:
  | Total number of radial functions:       11
  | Total number of basis functions :       39

  Per-task memory consumption for arrays in subroutine allocate_ext:
  |           1.845964MB.
  Testing on-site integration grid accuracy.
  |  Species  Function  <phi|h_atom|phi> (log., in eV)  <phi|h_atom|phi> (rad., in eV)
           1        1               -658.2240627267               -658.2240559863
           1        2                 16.5676115617                 16.5675928459
           1        3                -27.9944307831                -27.9944408000
           1        4                 12.6576950752                 12.6574271498
           1        5                -10.3243022769                -10.3243022526
           1        6                 13.9678398314                 13.9678356819
           1        7                 14.3732245562                 14.3725150720
           1        8                 44.6852168370                 44.6852168667
           1        9                 56.5164537384                 56.5164546144
           1       10                 81.0888475212                 81.0888475522
           1       11                131.0308046381                131.0308045636

  Preparing densities etc. for the partition functions (integrals / Hartree potential).

  Preparations completed.
  max(cpu_time)          :      0.117 s.
  Wall clock time (cpu1) :      0.117 s.
------------------------------------------------------------

------------------------------------------------------------
          Begin self-consistency loop: Initialization.

          Date     :  20190508, Time     :  141357.169
------------------------------------------------------------

  Initializing index lists of integration centers etc. from given atomic structure:
  | Number of centers in hartree potential         :         1
  | Number of centers in hartree multipole         :         1
  | Number of centers in electron density summation:         1
  | Number of centers in basis integrals           :         1
  | Number of centers in integrals                 :         1
  | Number of centers in hamiltonian               :         1
  Partitioning the integration grid into batches with maxmin method.
  | Maximal weight for a single point:     1.000
  | Minimal weight for a single point:     0.000
  | Number of batches:      256
  | Maximal batch size:      93
  | Minimal batch size:      76
  | Average batch size:      84.398
  | Standard deviation of batch sizes:       5.699
  Initializing partition tables, free-atom densities, potentials, etc. across the integration grid (initialize_grid_storage).
  | initialize_grid_storage: Actual outermost partition radius vs. multipole_radius_free
  | (-- VB: in principle, multipole_radius_free should be larger, hence this output)
  | Species        1: Confinement radius =              6.000000000000000 AA, multipole_radius_free =              6.017578497268912 AA.
  | Species        1: outer_partition_radius set to              6.017578497268912 AA .
  | Original list of interatomic distances with           1 x          1 entries is created.
  | Net number of integration points:    21606
  | of which are non-zero points    :    21606
  Renormalizing the initial density to the exact electron count on the 3D integration grid.
  | Initial density: Formal number of electrons (from input files) :       9.0000000000
  | Integrated number of electrons on 3D grid     :       8.9999999569
  | Charge integration error                      :      -0.0000000431
  | Normalization factor for density and gradient :       1.0000000048
  Obtaining max. number of non-zero basis functions in each batch (get_n_compute_maxes).
  | Maximal number of non-zero basis functions:       39 in task     0
  Selecting the method for density update.
  Loop over occupied states selected for charge density update.
  Allocating        0.005 MB for KS_eigenvector
  Integrating Hamiltonian matrix: batch-based integration.
  Time summed over all CPUs for integration: real work        0.046 s, elapsed        0.046 s
  Integrating overlap matrix.
  Time summed over all CPUs for integration: real work        0.016 s, elapsed        0.016 s

  Updating Kohn-Sham eigenvalues, eigenvectors, occupation numbers, and Fermi level.
  Solving generalized eigenproblem
  Updating Kohn-Sham eigenvalues and eigenfunctions.
  Transforming overlap matrix and checking for singularities.
  Overlap matrix is nonsingular:
  | Lowest eigenvalue:  0.100000E+01
  Solving real generalised eigenvalue problem by standard LAPACK (fast)
  Updating Kohn-Sham eigenvalues and eigenfunctions.
  Solving real generalised eigenvalue problem by standard LAPACK (fast)

  Obtaining occupation numbers and chemical potential using ELSI.
  | Chemical potential (Fermi level):   -10.48644341eV
  Writing Kohn-Sham eigenvalues.

  Spin-up eigenvalues:

  State    Occupation    Eigenvalue [Ha]    Eigenvalue [eV]
      1       1.00000         -24.204404         -658.63535
      2       1.00000          -1.115392          -30.35137
      3       1.00000          -0.443485          -12.06784
      4       1.00000          -0.443485          -12.06784
      5       1.00000          -0.443485          -12.06784
      6       0.00000           0.069975            1.90413
      7       0.00000           0.129818            3.53253
      8       0.00000           0.129818            3.53253

  Spin-down eigenvalues:

  State    Occupation    Eigenvalue [Ha]    Eigenvalue [eV]
      1       1.00000         -24.173649         -657.79847
      2       1.00000          -1.055556          -28.72315
      3       0.66668          -0.385370          -10.48645
      4       0.66668          -0.385370          -10.48645
      5       0.66664          -0.385370          -10.48645
      6       0.00000           0.075111            2.04386
      7       0.00000           0.134808            3.66830
      8       0.00000           0.134808            3.66830

  Current spin moment of the entire structure :
  | N = N_up - N_down :    1.00
  | S                 :    0.50
  | J                 :    2.00

  Highest occupied state (VBM) at    -10.48644646 eV
  | Occupation number:      0.66664274
  | Spin channel:        2

  Lowest unoccupied state (CBM) at     1.90412618 eV
  | Occupation number:      0.00000000
  | Spin channel:        1

  Overall HOMO-LUMO gap:     12.39057264 eV.
  This system has fractional occupation numbers. Thus, it is a degenerate system
  within the approximate finite broadening function (occupation_type)
  applied to determine the occupation numbers.
  This may not be harmful. However, for some systems (free atoms), a different, non-degenerate
  ground state might exist by using a smaller broadening (see keyword occupation_type).
  Calculating total energy contributions from superposition of free atom densities.

  Total energy components:
  | Sum of eigenvalues            :         -52.65019608 Ha       -1432.68472956 eV
  | XC energy correction          :          -9.63693506 Ha        -262.23434530 eV
  | XC potential correction       :          12.70907758 Ha         345.83159680 eV
  | Free-atom electrostatic energy:         -49.53312557 Ha       -1347.86492550 eV
  | Hartree energy correction     :          -0.00000000 Ha          -0.00000000 eV
  | Ionic    embedding energy     :           0.00000000 Ha           0.00000000 eV
  | Density  embedding energy     :          -0.00000000 Ha          -0.00000000 eV
  | Nonlocal embedding energy     :           0.00000000 Ha           0.00000000 eV
  | External embedding energy     :          -0.00000000 Ha          -0.00000000 eV
  | Entropy correction            :          -0.00000014 Ha          -0.00000386 eV
  | ---------------------------
  | Total energy                  :         -99.11117913 Ha       -2696.95240357 eV
  | Total energy, T -> 0          :         -99.11117927 Ha       -2696.95240742 eV  <-- do not rely on this value for anything but (periodic) metals
  | Electronic free energy        :         -99.11117941 Ha       -2696.95241128 eV

  Total energy including external embedding contributions:
  | Total energy + embedding      :         -99.11117913 Ha       -2696.95240357 eV
  | Total energy + embedding, T->0:         -99.11117927 Ha       -2696.95240742 eV  <-- do not rely on this value for anything but (periodic) metals
  | Elec. free energy + embedding :         -99.11117941 Ha       -2696.95241128 eV

  Derived energy quantities:
  | Kinetic energy                :          98.67768407 Ha        2685.15640273 eV
  | Electrostatic energy          :        -188.15192814 Ha       -5119.87446100 eV
  | Energy correction for multipole
  | error in Hartree potential    :           0.00000000 Ha           0.00000000 eV
  | Sum of eigenvalues per atom                           :       -1432.68472956 eV
  | Total energy (T->0) per atom                          :       -2696.95240742 eV  <-- do not rely on this value for anything but (periodic) metals
  | Electronic free energy per atom                       :       -2696.95241128 eV
  
  --------------------------------------------
  Constructing auxiliary basis (full product) ...
  
  Product basis:
  | charge radius: extent of product basis function
  | field radius: extent of its Coulomb potential
  | Species   l  charge radius    field radius  multipol momen
  |    F      0     1.816000 A      1.816000 A       -3.736840E-17 a.u.
  |    F      1     3.514108 A      3.514108 A       -6.462006E-17 a.u.
  |    F      1     3.514108 A      3.514108 A       -6.645376E-17 a.u.
  |    F      7     3.601087 A      3.601087 A        3.155157E-15 a.u.
  |    F      2     3.645380 A      3.645380 A       -2.662291E-17 a.u.
  |    F      6     3.645380 A      3.645380 A       -3.872603E-15 a.u.
  |    F      1     3.735608 A      3.735608 A       -1.918810E-16 a.u.
  |    F      1     3.735608 A      3.735608 A        3.886464E-17 a.u.
  |    F      0     3.828069 A      3.828069 A       -2.997336E-17 a.u.
  |    F      6     3.828069 A      3.828069 A        2.515853E-14 a.u.
  |    F      4     3.875154 A      3.875154 A       -6.754096E-16 a.u.
  |    F      5     3.875154 A      3.875154 A        3.800743E-16 a.u.
  |    F      5     3.875154 A      3.875154 A       -8.954779E-15 a.u.
  |    F      3     3.922819 A      3.922819 A       -4.221291E-16 a.u.
  |    F      5     3.922819 A      3.922819 A       -1.388839E-15 a.u.
  |    F      5     3.971070 A      3.971070 A        1.372404E-14 a.u.
  |    F      0     4.019914 A      4.019914 A        7.439409E-17 a.u.
  |    F      3     4.019914 A      4.019914 A        1.416164E-15 a.u.
  |    F      3     4.019914 A      4.019914 A       -3.280174E-15 a.u.
  |    F      0     4.221373 A      4.221373 A       -1.170614E-16 a.u.
  |    F      1     4.432928 A      4.432928 A       -1.651628E-16 a.u.
  |    F      4     4.542649 A      4.542649 A       -1.256674E-15 a.u.
  |    F      4     4.542649 A      4.542649 A        5.325042E-15 a.u.
  |    F      4     4.598524 A      4.598524 A       -1.652847E-14 a.u.
  |    F      4     4.598524 A      4.598524 A       -1.577389E-14 a.u.
  |    F      4     4.655085 A      4.655085 A       -4.101844E-15 a.u.
  |    F      0     4.828980 A      4.828980 A       -3.407697E-17 a.u.
  |    F      0     4.828980 A      4.828980 A        6.381630E-17 a.u.
  |    F      0     4.828980 A      4.828980 A        1.304100E-16 a.u.
  |    F      3     4.888376 A      4.888376 A       -2.525359E-15 a.u.
  |    F      3     4.888376 A      4.888376 A       -8.508339E-16 a.u.
  |    F      3     4.948503 A      4.948503 A        3.738439E-15 a.u.
  |    F      3     4.948503 A      4.948503 A        7.851739E-15 a.u.
  |    F      2     5.260416 A      5.260416 A       -3.767382E-16 a.u.
  |    F      2     5.325119 A      5.325119 A       -3.893606E-16 a.u.
  |    F      0     5.325119 A      5.390618 A        5.292485E-17 a.u.
  |    F      1     5.390618 A      5.390618 A       -4.670330E-16 a.u.
  |    F      2     5.390618 A      5.390618 A        4.861892E-16 a.u.
  |    F      2     5.390618 A      5.390618 A        1.129466E-15 a.u.
  |    F      0     5.390618 A      5.456923 A       -1.704891E-16 a.u.
  |    F      1     5.390618 A      5.456923 A       -1.006326E-16 a.u.
  |    F      2     5.456923 A      5.456923 A        8.955787E-16 a.u.
  |    F      2     5.456923 A      5.456923 A       -7.279375E-16 a.u.
  |    F      0     5.456923 A      5.524043 A       -9.467179E-17 a.u.
  |    F      1     5.456923 A      5.524043 A       -7.735941E-16 a.u.
  |    F      1     5.456923 A      5.524043 A        7.182848E-16 a.u.
  |    F      2     5.456923 A      5.524043 A        4.221460E-15 a.u.
  |    F      8     3.471409 A  2.457866E+01 A           80.057807 a.u.
  |    F      7     3.601087 A  3.944074E+01 A           75.777761 a.u.
  |    F      6     3.875154 A  7.810777E+01 A          121.462406 a.u.
  |    F      5     3.922819 A  1.814322E+02 A          129.261746 a.u.
  |    F      4     4.655085 A  5.204464E+02 A           73.225897 a.u.
  |    F      3     4.948503 A  2.433569E+03 A           35.592657 a.u.
  |    F      2     5.456923 A  2.974555E+04 A           14.133597 a.u.
  |    F      1     5.456923 A  3.137337E+06 A            2.797114 a.u.
  |    F      0     5.456923 A  4.659896E+12 A            0.700753 a.u.

  | Shrink_full_auxil_basis : there are       56  radial auxiliary wave functions
                            accepted and      94 rejected.
  | Shrink_full_auxil_basis : there are totally                 346 partial auxiliary wave functions.
  prodbas_tasks_distribution_pbc not up to date - distributing tasks.

  | Number of product basis functions per thread :   346
  Parallel distribution of product basis not up to date - distributing tasks.

  | Number of product basis functions per thread :   346
  | Minimal requirement for computer memory :           0.003 Gbs
  -----------------------------------------
  --- Initializing Fock matrix calculations
  -----------------------------------------
  screening_threshold (crit_val) =  0.000000100000
  coul_mat_threshold =  0.000000000100
  Number of super-cells in X Y Z:       0       0       0
  Number of atoms pairs total:            1
  Atom pair distribution:
  Cell:        0       0       0 atom pairs:        1
  Number of atoms pairs in BvK cells:            1
  Initializing work distribution for fock matrix calculation
  -----------------------------------------------------
  Dividing atoms among tasks for exact exchange energy:
  Atom:     1 Weight:   346.00

  Average weight per task:   346.00

  Number of "big" (above average) atoms  :     0
  Number of "small" (below average) atoms:     1

  All atoms have below average work per task
  No atom will be divided among tasks, atoms will be sorted to get best load distribution

  Atom division among tasks:
  Atom     1: (initial) task:     0, # of tasks:     1

  -----------------------------------------------------
  Task     0 : Coulomb matrix distribution changed.
  Overall Coulomb matrix distribution changed.
  Coulomb matrix subdivision:
  Task     0 works on full atoms (no Coulomb matrix division)
  Task      0: my_n_atoms:      1 my_atom_list:      1
  Task      0: my_n_atom_pairs:      1
  Memory needs for ovlp3fn and Coulomb matrix:
  For Coulomb matrix, this is the upper limit if no compression occurs
  ovlp3fn:        4.210 MB, Coulomb:        0.958 MB
  --- Initializing LVL triples
  | Storage requirements for basis-basbas products (processor-local):
  |   Species F: n_prodsfn:  1141; storage:       35.66 MiB.

  --- Initializing Coulomb matrix calculations
  Preparing TB like auxiliary 2-center Coulomb matrix
  SBT integration errors (all should be 'small'):
  large logFT aliasing -> increase N/lnrange
  large SBT aliasing -> decrease lnk0 & increase lnk0+lnrange
  large SBT ringing -> decrease lnr0 & increase lnr0+lnrange
  |            El't  L: logFT-al.   small-k   large-k   small-r   large-r
  | Need to store  3877 splines of    14 points taking        488 KiB.
  | Spline reduction from  4096 to    14 points by (cutting and)     1 x coarsening gives error:  0.00E+00
  Finished with initialize_tb_auxmat/lvl_triples, time:        0.743
  --- Calculating OVLP3FN
  Allocating        8.420 MB for coeff_3fn
  --- Done calculating OVLP3FN, time:        0.633
  Atomic logSBT for LVL-triples                :  max(cpu_time)    wall_clock(cpu1)
  | Multiplication with kernel                 :        0.000 s           0.000 s
  | Main matrix multiplication                 :        0.014 s           0.016 s
  | Analytic angular integration               :        0.000 s           0.000 s
  | Kernel construction                        :        0.000 s           0.000 s
  | Overall 2-center overlap time              :        0.017 s           0.017 s
  | 3-center preparation multiplications       :        0.021 s           0.022 s
  | 3-center preparation SBTs                  :        0.315 s           0.314 s
  | 3-center combinations                      :        0.038 s           0.039 s
  | Overal 3-center time                       :        0.378 s           0.378 s
  | LVL initialization                         :        0.062 s           0.063 s
  | Whole LVL-triples                          :        0.062 s           0.063 s

  --- Done getting norm of OVLP3FN, time:        0.000
  --- Calculating Coulomb matrices
  Allocating        0.958 MB for aux_mat
  Time to calculate Coulomb Matrices   :        0.001
  Number of Coulomb matrix elements:
  | Task     0 total:         119716, > threshold:           2184, stored:         119716
  --- Done init_fock_matrix_calculations
  Atomic logSBT for 2-center Coulomb matrix    :  max(cpu_time)    wall_clock(cpu1)
  | TB initialization                          :        0.681 s           0.680 s
  | TB usage                                   :        0.001 s           0.001 s

  Calculating non-local Hartree-Fock exchange by two-center RI (RI-LVL).
  screening_threshold (crit_val) =  0.000000100000
  Allocating        0.024 MB for dm_cols
  Allocating        0.216 MB for ovlp3fn_rcv
  Allocating        0.024 MB for fock_matrix
  Allocating        0.001 MB for fock_matrix_row
  Exact exchange progress report - outermost basis function loop i_basis_r1: 1 ..  39
  |        1         2         3         4         5         6         7         8         9        10
  |       11        12        13        14        15        16        17        18        19        20
  |       21        22        23        24        25        26        27        28        29        30
  |       31        32        33        34        35        36        37        38        39  
  Full exact exchange energy:     263.219888163832 eV.
  Times            DM_x_o3fn   CM_x_o3fn    Products        Sync   Imbalance    Pre/Post       Other  Total calc
  | Times    0:        0.009       0.524       0.095       0.000       0.000       0.000       0.013       0.641
  | Times  sum:        0.009       0.524       0.095       0.000       0.000       0.000       0.013       0.641

  Decomposition of Other based on code block (only on MPI task 0):
  Times             Block #1    Block #2    Block #3    Block #4    Block #5    Block #6    Block #7    Block #8
  | Times    0:        0.000       0.000       0.000       0.001       0.001       0.000       0.003       0.001

  Times             Block #9   Block #10   Block #11   Block #12   Block #13   Block #14   Block #15   Block #16
  | Times    0:        0.001       0.002       0.000       0.000       0.001       0.000       0.000       0.000

  Times            Block Sum    Expected
  | Times    0:        0.010       0.013
  Initialize hartree_potential_storage
  Max. number of atoms included in rho_multipole:            1

  End scf initialization - timings             :  max(cpu_time)    wall_clock(cpu1)
  | Time for scf. initialization               :        2.148 s           2.149 s
  | Boundary condition initialization          :        0.000 s           0.000 s
  | Integration                                :        0.062 s           0.062 s
  | Solution of K.-S. eqns.                    :        0.001 s           0.001 s
  | Grid partitioning                          :        0.015 s           0.015 s
  | Preloading free-atom quantities on grid    :        0.003 s           0.003 s
  | Free-atom superposition energy             :        0.013 s           0.013 s
  | Total energy evaluation                    :        0.000 s           0.000 s
  | Product basis setup: Total time            :        2.047 s           2.048 s

  Partial memory accounting:
  | Current value for overall tracked memory usage on task 0  :           5.219 MB
  | Peak value for overall tracked memory usage on task 0     :          12.679 MB after allocating d_coeff_3fn
  | Largest tracked array allocation on task 0 so far         :           8.420 MB  when allocating +coeff_3fn
  Note:  These values currently only include a subset of arrays which are explicitly tracked.
  The "true" memory usage will be greater.
------------------------------------------------------------

------------------------------------------------------------
          Begin self-consistency iteration #    1

  Date     :  20190508, Time     :  141359.318
------------------------------------------------------------
  Evaluating new KS density.
  Integration grid: deviation in total charge (<rho> - N_e) =  -5.684342E-14
  | <rho_up-rho_dn> = N_up-N_dn =      1.0000; <|rho_up-rho_dn|> =      1.0004
  Pulay mixing of updated and previous charge densities.

  Evaluating partitioned Hartree potential by multipole expansion.
  | Analytical far-field extrapolation by fixed multipoles:
  | Hartree multipole sum: apparent total charge =  -0.386298E-07
  Summing up the Hartree potential.
  Time summed over all CPUs for potential: real work        0.004 s, elapsed        0.004 s
  | RMS charge density error from multipole expansion :   0.314028E-11

  Integrating Hamiltonian matrix: batch-based integration.
  Time summed over all CPUs for integration: real work        0.036 s, elapsed        0.036 s
  Calculating non-local Hartree-Fock exchange by two-center RI (RI-LVL).
  screening_threshold (crit_val) =  0.000000100000
  Allocating        0.024 MB for dm_cols
  Allocating        0.216 MB for ovlp3fn_rcv
  Allocating        0.024 MB for fock_matrix
  Allocating        0.001 MB for fock_matrix_row
  Exact exchange progress report - outermost basis function loop i_basis_r1: 1 ..  39
  |        1         2         3         4         5         6         7         8         9        10
  |       11        12        13        14        15        16        17        18        19        20
  |       21        22        23        24        25        26        27        28        29        30
  |       31        32        33        34        35        36        37        38        39  
  Full exact exchange energy:     263.219888163832 eV.
  Times            DM_x_o3fn   CM_x_o3fn    Products        Sync   Imbalance    Pre/Post       Other  Total calc
  | Times    0:        0.017       0.544       0.103       0.000       0.000       0.001       0.011       0.676
  | Times  sum:        0.017       0.544       0.103       0.000       0.000       0.001       0.011       0.676

  Decomposition of Other based on code block (only on MPI task 0):
  Times             Block #1    Block #2    Block #3    Block #4    Block #5    Block #6    Block #7    Block #8
  | Times    0:        0.000       0.000       0.000       0.000       0.001       0.000       0.001       0.000

  Times             Block #9   Block #10   Block #11   Block #12   Block #13   Block #14   Block #15   Block #16
  | Times    0:        0.002       0.000       0.002       0.001       0.001       0.000       0.000       0.000

  Times            Block Sum    Expected
  | Times    0:        0.008       0.011

  Updating Kohn-Sham eigenvalues, eigenvectors, occupation numbers, and Fermi level.
  Solving generalized eigenproblem
  Updating Kohn-Sham eigenvalues and eigenfunctions.
  Solving real generalised eigenvalue problem by standard LAPACK (fast)
  Updating Kohn-Sham eigenvalues and eigenfunctions.
  Solving real generalised eigenvalue problem by standard LAPACK (fast)

  Obtaining occupation numbers and chemical potential using ELSI.
  | Chemical potential (Fermi level):   -12.12755065eV
  Writing Kohn-Sham eigenvalues.

  Spin-up eigenvalues:

  State    Occupation    Eigenvalue [Ha]    Eigenvalue [eV]
      1       1.00000         -26.437841         -719.41025
      2       1.00000          -1.687580          -45.92140
      3       1.00000          -0.789599          -21.48609
      4       1.00000          -0.789599          -21.48609
      5       1.00000          -0.789599          -21.48609
      6       0.00000           0.170033            4.62684
      7       0.00000           0.208316            5.66857
      8       0.00000           0.208316            5.66857

  Spin-down eigenvalues:

  State    Occupation    Eigenvalue [Ha]    Eigenvalue [eV]
      1       1.00000         -26.387170         -718.03143
      2       1.00000          -1.498903          -40.78723
      3       1.00000          -0.445697          -12.12803
      4       1.00000          -0.445697          -12.12803
      5       0.00000          -0.445667          -12.12722
      6       0.00000           0.175512            4.77594
      7       0.00000           0.218742            5.95228
      8       0.00000           0.218742            5.95228

  Current spin moment of the entire structure :
  | N = N_up - N_down :    1.00
  | S                 :    0.50
  | J                 :    2.00

  Highest occupied state (VBM) at    -12.12802683 eV
  | Occupation number:      1.00000000
  | Spin channel:        2

  Lowest unoccupied state (CBM) at   -12.12722017 eV
  | Occupation number:      0.00000000
  | Spin channel:        2

  Overall HOMO-LUMO gap:      0.00080666 eV.

  Total energy components:
  | Sum of eigenvalues            :         -59.27168603 Ha       -1612.86463841 eV
  | XC energy correction          :           9.66771004 Ha         263.07177523 eV
  | XC potential correction       :          -0.00000000 Ha          -0.00000000 eV
  | Free-atom electrostatic energy:         -49.53312557 Ha       -1347.86492550 eV
  | Hartree energy correction     :          -0.01973944 Ha          -0.53713739 eV
  | Ionic    embedding energy     :           0.00000000 Ha           0.00000000 eV
  | Density  embedding energy     :          -0.00000000 Ha          -0.00000000 eV
  | Nonlocal embedding energy     :           0.00000000 Ha           0.00000000 eV
  | External embedding energy     :          -0.00000000 Ha          -0.00000000 eV
  | Entropy correction            :          -0.00000000 Ha          -0.00000000 eV
  | ---------------------------
  | Total energy                  :         -99.15684099 Ha       -2698.19492606 eV
  | Total energy, T -> 0          :         -99.15684099 Ha       -2698.19492606 eV  <-- do not rely on this value for anything but (periodic) metals
  | Electronic free energy        :         -99.15684099 Ha       -2698.19492606 eV

  Total energy including external embedding contributions:
  | Total energy + embedding      :         -99.15684099 Ha       -2698.19492606 eV
  | Total energy + embedding, T->0:         -99.15684099 Ha       -2698.19492606 eV  <-- do not rely on this value for anything but (periodic) metals
  | Elec. free energy + embedding :         -99.15684099 Ha       -2698.19492606 eV

  Derived energy quantities:
  | Kinetic energy                :          98.67728352 Ha        2685.14550334 eV
  | Electrostatic energy          :        -188.16641447 Ha       -5120.26865417 eV
  | Energy correction for multipole
  | error in Hartree potential    :           0.00000000 Ha           0.00000000 eV
  | Sum of eigenvalues per atom                           :       -1612.86463841 eV
  | Total energy (T->0) per atom                          :       -2698.19492606 eV  <-- do not rely on this value for anything but (periodic) metals
  | Electronic free energy per atom                       :       -2698.19492606 eV

  Self-consistency convergence accuracy:
  | Change of charge/spin density :  0.2615E-02  0.3890E-02
  | Change of sum of eigenvalues  : -0.1802E+03 eV
  | Change of total energy        : -0.1243E+01 eV

  End self-consistency iteration #     1       :  max(cpu_time)    wall_clock(cpu1)
  | Time for this iteration                    :        0.730 s           0.729 s
  | Charge density update                      :        0.012 s           0.012 s
  | Density mixing                             :        0.000 s           0.000 s
  | Hartree multipole update                   :        0.001 s           0.001 s
  | Hartree multipole summation                :        0.004 s           0.004 s
  | Integration                                :        0.036 s           0.036 s
  | Fock matrix evaluation                     :        0.676 s           0.676 s
  | Solution of K.-S. eqns.                    :        0.001 s           0.000 s
  | Total energy evaluation                    :        0.000 s           0.000 s

  Partial memory accounting:
  | Current value for overall tracked memory usage on task 0  :           5.219 MB
  | Peak value for overall tracked memory usage on task 0     :          12.679 MB after allocating d_coeff_3fn
  | Largest tracked array allocation on task 0 so far         :           8.420 MB  when allocating +coeff_3fn
  Note:  These values currently only include a subset of arrays which are explicitly tracked.
  The "true" memory usage will be greater.
------------------------------------------------------------

------------------------------------------------------------
          Begin self-consistency iteration #    2

  Date     :  20190508, Time     :  141400.047
------------------------------------------------------------
  Evaluating new KS density.
  Integration grid: deviation in total charge (<rho> - N_e) =  -8.171241E-14
  | <rho_up-rho_dn> = N_up-N_dn =      1.0000; <|rho_up-rho_dn|> =      1.1400
  Pulay mixing of updated and previous charge densities.

  Evaluating partitioned Hartree potential by multipole expansion.
  | Analytical far-field extrapolation by fixed multipoles:
  | Hartree multipole sum: apparent total charge =  -0.386301E-07
  Summing up the Hartree potential.
  Time summed over all CPUs for potential: real work        0.004 s, elapsed        0.004 s
  | RMS charge density error from multipole expansion :   0.437919E-10

  Integrating Hamiltonian matrix: batch-based integration.
  Time summed over all CPUs for integration: real work        0.034 s, elapsed        0.034 s
  Calculating non-local Hartree-Fock exchange by two-center RI (RI-LVL).
  screening_threshold (crit_val) =  0.000000100000
  Allocating        0.024 MB for dm_cols
  Allocating        0.216 MB for ovlp3fn_rcv
  Allocating        0.024 MB for fock_matrix
  Allocating        0.001 MB for fock_matrix_row
  Exact exchange progress report - outermost basis function loop i_basis_r1: 1 ..  39
  |        1         2         3         4         5         6         7         8         9        10
  |       11        12        13        14        15        16        17        18        19        20
  |       21        22        23        24        25        26        27        28        29        30
  |       31        32        33        34        35        36        37        38        39  
  Full exact exchange energy:     270.357663648979 eV.
  Times            DM_x_o3fn   CM_x_o3fn    Products        Sync   Imbalance    Pre/Post       Other  Total calc
  | Times    0:        0.014       0.520       0.096       0.001       0.002       0.001       0.009       0.643
  | Times  sum:        0.014       0.520       0.096       0.001       0.002       0.001       0.009       0.643

  Decomposition of Other based on code block (only on MPI task 0):
  Times             Block #1    Block #2    Block #3    Block #4    Block #5    Block #6    Block #7    Block #8
  | Times    0:        0.000       0.000       0.000       0.000       0.000       0.000       0.001       0.001

  Times             Block #9   Block #10   Block #11   Block #12   Block #13   Block #14   Block #15   Block #16
  | Times    0:        0.002       0.000       0.000       0.002       0.001       0.000       0.000       0.000

  Times            Block Sum    Expected
  | Times    0:        0.007       0.009

  Updating Kohn-Sham eigenvalues, eigenvectors, occupation numbers, and Fermi level.
  Solving generalized eigenproblem
  Updating Kohn-Sham eigenvalues and eigenfunctions.
  Solving real generalised eigenvalue problem by standard LAPACK (fast)
  Updating Kohn-Sham eigenvalues and eigenfunctions.
  Solving real generalised eigenvalue problem by standard LAPACK (fast)

  Obtaining occupation numbers and chemical potential using ELSI.
  | Chemical potential (Fermi level):   -12.12755399eV
  Current spin moment of the entire structure :
  | N = N_up - N_down :    1.00
  | S                 :    0.50
  | J                 :    2.00

  Highest occupied state (VBM) at    -12.12816256 eV
  | Occupation number:      1.00000000
  | Spin channel:        2

  Lowest unoccupied state (CBM) at   -12.12695210 eV
  | Occupation number:      0.00000000
  | Spin channel:        2

  Overall HOMO-LUMO gap:      0.00121046 eV.

  Checking to see if s.c.f. parameters should be adjusted.
  Adjusted the Pulay mixing parameter (charge_mix_param) for an expected low-gap system. New value:   0.020000 .

  Total energy components:
  | Sum of eigenvalues            :         -59.27170006 Ha       -1612.86502032 eV
  | XC energy correction          :           9.66772793 Ha         263.07226207 eV
  | XC potential correction       :          -0.00000000 Ha          -0.00000000 eV
  | Free-atom electrostatic energy:         -49.53312557 Ha       -1347.86492550 eV
  | Hartree energy correction     :          -0.01973517 Ha          -0.53702122 eV
  | Ionic    embedding energy     :           0.00000000 Ha           0.00000000 eV
  | Density  embedding energy     :          -0.00000000 Ha          -0.00000000 eV
  | Nonlocal embedding energy     :           0.00000000 Ha           0.00000000 eV
  | External embedding energy     :          -0.00000000 Ha          -0.00000000 eV
  | Entropy correction            :          -0.00000000 Ha          -0.00000000 eV
  | ---------------------------
  | Total energy                  :         -99.15683287 Ha       -2698.19470496 eV
  | Total energy, T -> 0          :         -99.15683287 Ha       -2698.19470496 eV  <-- do not rely on this value for anything but (periodic) metals
  | Electronic free energy        :         -99.15683287 Ha       -2698.19470496 eV

  Total energy including external embedding contributions:
  | Total energy + embedding      :         -99.15683287 Ha       -2698.19470496 eV
  | Total energy + embedding, T->0:         -99.15683287 Ha       -2698.19470496 eV  <-- do not rely on this value for anything but (periodic) metals
  | Elec. free energy + embedding :         -99.15683287 Ha       -2698.19470496 eV

  Derived energy quantities:
  | Kinetic energy                :          98.67730795 Ha        2685.14616799 eV
  | Electrostatic energy          :        -188.16641288 Ha       -5120.26861088 eV
  | Energy correction for multipole
  | error in Hartree potential    :          -0.00000000 Ha          -0.00000000 eV
  | Sum of eigenvalues per atom                           :       -1612.86502032 eV
  | Total energy (T->0) per atom                          :       -2698.19470496 eV  <-- do not rely on this value for anything but (periodic) metals
  | Electronic free energy per atom                       :       -2698.19470496 eV

  Self-consistency convergence accuracy:
  | Change of charge/spin density :  0.2542E+00  0.2584E+00
  | Change of sum of eigenvalues  : -0.3819E-03 eV
  | Change of total energy        :  0.2211E-03 eV

  End self-consistency iteration #     2       :  max(cpu_time)    wall_clock(cpu1)
  | Time for this iteration                    :        0.694 s           0.695 s
  | Charge density update                      :        0.011 s           0.012 s
  | Density mixing                             :        0.000 s           0.000 s
  | Hartree multipole update                   :        0.001 s           0.001 s
  | Hartree multipole summation                :        0.004 s           0.004 s
  | Integration                                :        0.034 s           0.034 s
  | Fock matrix evaluation                     :        0.642 s           0.643 s
  | Solution of K.-S. eqns.                    :        0.001 s           0.000 s
  | Total energy evaluation                    :        0.000 s           0.000 s

  Partial memory accounting:
  | Current value for overall tracked memory usage on task 0  :           5.220 MB
  | Peak value for overall tracked memory usage on task 0     :          12.679 MB after allocating d_coeff_3fn
  | Largest tracked array allocation on task 0 so far         :           8.420 MB  when allocating +coeff_3fn
  Note:  These values currently only include a subset of arrays which are explicitly tracked.
  The "true" memory usage will be greater.
------------------------------------------------------------

------------------------------------------------------------
          Begin self-consistency iteration #    3

  Date     :  20190508, Time     :  141400.742
------------------------------------------------------------
  Evaluating new KS density.
  Integration grid: deviation in total charge (<rho> - N_e) =  -4.440892E-14
  | <rho_up-rho_dn> = N_up-N_dn =      1.0000; <|rho_up-rho_dn|> =      1.1400
  Pulay mixing of updated and previous charge densities.

  Evaluating partitioned Hartree potential by multipole expansion.
  | Analytical far-field extrapolation by fixed multipoles:
  | Hartree multipole sum: apparent total charge =  -0.414265E-07
  Summing up the Hartree potential.
  Time summed over all CPUs for potential: real work        0.005 s, elapsed        0.005 s
  | RMS charge density error from multipole expansion :   0.123887E-09

  Integrating Hamiltonian matrix: batch-based integration.
  Time summed over all CPUs for integration: real work        0.035 s, elapsed        0.035 s
  Calculating non-local Hartree-Fock exchange by two-center RI (RI-LVL).
  screening_threshold (crit_val) =  0.000000100000
  Allocating        0.024 MB for dm_cols
  Allocating        0.216 MB for ovlp3fn_rcv
  Allocating        0.024 MB for fock_matrix
  Allocating        0.001 MB for fock_matrix_row
  Exact exchange progress report - outermost basis function loop i_basis_r1: 1 ..  39
  |        1         2         3         4         5         6         7         8         9        10
  |       11        12        13        14        15        16        17        18        19        20
  |       21        22        23        24        25        26        27        28        29        30
  |       31        32        33        34        35        36        37        38        39  
  Full exact exchange energy:     270.357722373082 eV.
  Times            DM_x_o3fn   CM_x_o3fn    Products        Sync   Imbalance    Pre/Post       Other  Total calc
  | Times    0:        0.013       0.518       0.108       0.000       0.000       0.000       0.011       0.650
  | Times  sum:        0.013       0.518       0.108       0.000       0.000       0.000       0.011       0.650

  Decomposition of Other based on code block (only on MPI task 0):
  Times             Block #1    Block #2    Block #3    Block #4    Block #5    Block #6    Block #7    Block #8
  | Times    0:        0.000       0.000       0.000       0.000       0.000       0.000       0.001       0.000

  Times             Block #9   Block #10   Block #11   Block #12   Block #13   Block #14   Block #15   Block #16
  | Times    0:        0.000       0.002       0.001       0.003       0.001       0.001       0.000       0.000

  Times            Block Sum    Expected
  | Times    0:        0.009       0.011

  Updating Kohn-Sham eigenvalues, eigenvectors, occupation numbers, and Fermi level.
  Solving generalized eigenproblem
  Updating Kohn-Sham eigenvalues and eigenfunctions.
  Solving real generalised eigenvalue problem by standard LAPACK (fast)
  Updating Kohn-Sham eigenvalues and eigenfunctions.
  Solving real generalised eigenvalue problem by standard LAPACK (fast)

  Obtaining occupation numbers and chemical potential using ELSI.
  | Chemical potential (Fermi level):   -11.92883801eV
  Current spin moment of the entire structure :
  | N = N_up - N_down :    1.00
  | S                 :    0.50
  | J                 :    2.00

  Highest occupied state (VBM) at    -11.92883804 eV
  | Occupation number:      0.50152037
  | Spin channel:        2

  Lowest unoccupied state (CBM) at   -11.92883799 eV
  | Occupation number:      0.49847963
  | Spin channel:        2

  Overall HOMO-LUMO gap:      0.00000005 eV.
  This system has fractional occupation numbers. Thus, it is a degenerate system
  within the approximate finite broadening function (occupation_type)
  applied to determine the occupation numbers.
  This may not be harmful. However, for some systems (free atoms), a different, non-degenerate
  ground state might exist by using a smaller broadening (see keyword occupation_type).

  Total energy components:
  | Sum of eigenvalues            :         -59.27419842 Ha       -1612.93300427 eV
  | XC energy correction          :           9.67213181 Ha         263.19209757 eV
  | XC potential correction       :          -0.00000000 Ha          -0.00000000 eV
  | Free-atom electrostatic energy:         -49.53312557 Ha       -1347.86492550 eV
  | Hartree energy correction     :          -0.02473666 Ha          -0.67311872 eV
  | Ionic    embedding energy     :           0.00000000 Ha           0.00000000 eV
  | Density  embedding energy     :           0.00000000 Ha           0.00000000 eV
  | Nonlocal embedding energy     :           0.00000000 Ha           0.00000000 eV
  | External embedding energy     :           0.00000000 Ha           0.00000000 eV
  | Entropy correction            :          -0.00000010 Ha          -0.00000282 eV
  | ---------------------------
  | Total energy                  :         -99.15992885 Ha       -2698.27895092 eV
  | Total energy, T -> 0          :         -99.15992895 Ha       -2698.27895374 eV  <-- do not rely on this value for anything but (periodic) metals
  | Electronic free energy        :         -99.15992906 Ha       -2698.27895656 eV

  Total energy including external embedding contributions:
  | Total energy + embedding      :         -99.15992885 Ha       -2698.27895092 eV
  | Total energy + embedding, T->0:         -99.15992895 Ha       -2698.27895374 eV  <-- do not rely on this value for anything but (periodic) metals
  | Elec. free energy + embedding :         -99.15992906 Ha       -2698.27895656 eV

  Derived energy quantities:
  | Kinetic energy                :          98.67969916 Ha        2685.21123613 eV
  | Electrostatic energy          :        -188.16749620 Ha       -5120.29808948 eV
  | Energy correction for multipole
  | error in Hartree potential    :          -0.00000000 Ha          -0.00000000 eV
  | Sum of eigenvalues per atom                           :       -1612.93300427 eV
  | Total energy (T->0) per atom                          :       -2698.27895374 eV  <-- do not rely on this value for anything but (periodic) metals
  | Electronic free energy per atom                       :       -2698.27895656 eV

  Self-consistency convergence accuracy:
  | Change of charge/spin density :  0.2542E+00  0.2584E+00
  | Change of sum of eigenvalues  : -0.6798E-01 eV
  | Change of total energy        : -0.8425E-01 eV

  End self-consistency iteration #     3       :  max(cpu_time)    wall_clock(cpu1)
  | Time for this iteration                    :        0.704 s           0.704 s
  | Charge density update                      :        0.012 s           0.012 s
  | Density mixing                             :        0.001 s           0.000 s
  | Hartree multipole update                   :        0.001 s           0.001 s
  | Hartree multipole summation                :        0.005 s           0.005 s
  | Integration                                :        0.035 s           0.035 s
  | Fock matrix evaluation                     :        0.650 s           0.650 s
  | Solution of K.-S. eqns.                    :        0.001 s           0.001 s
  | Total energy evaluation                    :        0.000 s           0.000 s

  Partial memory accounting:
  | Current value for overall tracked memory usage on task 0  :           5.220 MB
  | Peak value for overall tracked memory usage on task 0     :          12.679 MB after allocating d_coeff_3fn
  | Largest tracked array allocation on task 0 so far         :           8.420 MB  when allocating +coeff_3fn
  Note:  These values currently only include a subset of arrays which are explicitly tracked.
  The "true" memory usage will be greater.
------------------------------------------------------------

------------------------------------------------------------
          Begin self-consistency iteration #    4

  Date     :  20190508, Time     :  141401.446
------------------------------------------------------------
  Evaluating new KS density.
  Integration grid: deviation in total charge (<rho> - N_e) =  -2.309264E-14
  | <rho_up-rho_dn> = N_up-N_dn =      1.0000; <|rho_up-rho_dn|> =      1.0692
  Pulay mixing of updated and previous charge densities.

  Evaluating partitioned Hartree potential by multipole expansion.
  | Analytical far-field extrapolation by fixed multipoles:
  | Hartree multipole sum: apparent total charge =  -0.414626E-07
  Summing up the Hartree potential.
  Time summed over all CPUs for potential: real work        0.004 s, elapsed        0.004 s
  | RMS charge density error from multipole expansion :   0.109122E-09

  Integrating Hamiltonian matrix: batch-based integration.
  Time summed over all CPUs for integration: real work        0.033 s, elapsed        0.033 s
  Calculating non-local Hartree-Fock exchange by two-center RI (RI-LVL).
  screening_threshold (crit_val) =  0.000000100000
  Allocating        0.024 MB for dm_cols
  Allocating        0.216 MB for ovlp3fn_rcv
  Allocating        0.024 MB for fock_matrix
  Allocating        0.001 MB for fock_matrix_row
  Exact exchange progress report - outermost basis function loop i_basis_r1: 1 ..  39
  |        1         2         3         4         5         6         7         8         9        10
  |       11        12        13        14        15        16        17        18        19        20
  |       21        22        23        24        25        26        27        28        29        30
  |       31        32        33        34        35        36        37        38        39  
  Full exact exchange energy:     264.870428045534 eV.
  Times            DM_x_o3fn   CM_x_o3fn    Products        Sync   Imbalance    Pre/Post       Other  Total calc
  | Times    0:        0.014       0.605       0.129       0.001       0.000       0.001       0.011       0.761
  | Times  sum:        0.014       0.605       0.129       0.001       0.000       0.001       0.011       0.761

  Decomposition of Other based on code block (only on MPI task 0):
  Times             Block #1    Block #2    Block #3    Block #4    Block #5    Block #6    Block #7    Block #8
  | Times    0:        0.000       0.000       0.001       0.000       0.000       0.000       0.000       0.000

  Times             Block #9   Block #10   Block #11   Block #12   Block #13   Block #14   Block #15   Block #16
  | Times    0:        0.001       0.000       0.001       0.003       0.003       0.000       0.001       0.000

  Times            Block Sum    Expected
  | Times    0:        0.010       0.011

  Updating Kohn-Sham eigenvalues, eigenvectors, occupation numbers, and Fermi level.
  Solving generalized eigenproblem
  Updating Kohn-Sham eigenvalues and eigenfunctions.
  Solving real generalised eigenvalue problem by standard LAPACK (fast)
  Updating Kohn-Sham eigenvalues and eigenfunctions.
  Solving real generalised eigenvalue problem by standard LAPACK (fast)

  Obtaining occupation numbers and chemical potential using ELSI.
  | Chemical potential (Fermi level):   -11.88093258eV
  Current spin moment of the entire structure :
  | N = N_up - N_down :    1.00
  | S                 :    0.50
  | J                 :    2.00

  Highest occupied state (VBM) at    -11.88093772 eV
  | Occupation number:      0.76608265
  | Spin channel:        2

  Lowest unoccupied state (CBM) at   -11.88092745 eV
  | Occupation number:      0.23391735
  | Spin channel:        2

  Overall HOMO-LUMO gap:      0.00001027 eV.
  This system has fractional occupation numbers. Thus, it is a degenerate system
  within the approximate finite broadening function (occupation_type)
  applied to determine the occupation numbers.
  This may not be harmful. However, for some systems (free atoms), a different, non-degenerate
  ground state might exist by using a smaller broadening (see keyword occupation_type).

  Total energy components:
  | Sum of eigenvalues            :         -59.27455001 Ha       -1612.94257130 eV
  | XC energy correction          :           9.67317097 Ha         263.22037454 eV
  | XC potential correction       :          -0.00000000 Ha          -0.00000000 eV
  | Free-atom electrostatic energy:         -49.53312557 Ha       -1347.86492550 eV
  | Hartree energy correction     :          -0.02619837 Ha          -0.71289383 eV
  | Ionic    embedding energy     :           0.00000000 Ha           0.00000000 eV
  | Density  embedding energy     :           0.00000000 Ha           0.00000000 eV
  | Nonlocal embedding energy     :           0.00000000 Ha           0.00000000 eV
  | External embedding energy     :           0.00000000 Ha           0.00000000 eV
  | Entropy correction            :          -0.00000008 Ha          -0.00000217 eV
  | ---------------------------
  | Total energy                  :         -99.16070298 Ha       -2698.30001609 eV
  | Total energy, T -> 0          :         -99.16070306 Ha       -2698.30001826 eV  <-- do not rely on this value for anything but (periodic) metals
  | Electronic free energy        :         -99.16070314 Ha       -2698.30002043 eV

  Total energy including external embedding contributions:
  | Total energy + embedding      :         -99.16070298 Ha       -2698.30001609 eV
  | Total energy + embedding, T->0:         -99.16070306 Ha       -2698.30001826 eV  <-- do not rely on this value for anything but (periodic) metals
  | Elec. free energy + embedding :         -99.16070314 Ha       -2698.30002043 eV

  Derived energy quantities:
  | Kinetic energy                :          98.68043621 Ha        2685.23129221 eV
  | Electrostatic energy          :        -188.16796822 Ha       -5120.31093377 eV
  | Energy correction for multipole
  | error in Hartree potential    :           0.00000000 Ha           0.00000000 eV
  | Sum of eigenvalues per atom                           :       -1612.94257130 eV
  | Total energy (T->0) per atom                          :       -2698.30001826 eV  <-- do not rely on this value for anything but (periodic) metals
  | Electronic free energy per atom                       :       -2698.30002043 eV

  Self-consistency convergence accuracy:
  | Change of charge/spin density :  0.1234E+00  0.1327E+00
  | Change of sum of eigenvalues  : -0.9567E-02 eV
  | Change of total energy        : -0.2107E-01 eV

  End self-consistency iteration #     4       :  max(cpu_time)    wall_clock(cpu1)
  | Time for this iteration                    :        0.814 s           0.814 s
  | Charge density update                      :        0.012 s           0.012 s
  | Density mixing                             :        0.001 s           0.001 s
  | Hartree multipole update                   :        0.001 s           0.001 s
  | Hartree multipole summation                :        0.005 s           0.004 s
  | Integration                                :        0.034 s           0.034 s
  | Fock matrix evaluation                     :        0.761 s           0.761 s
  | Solution of K.-S. eqns.                    :        0.001 s           0.001 s
  | Total energy evaluation                    :        0.000 s           0.000 s

  Partial memory accounting:
  | Current value for overall tracked memory usage on task 0  :           5.221 MB
  | Peak value for overall tracked memory usage on task 0     :          12.679 MB after allocating d_coeff_3fn
  | Largest tracked array allocation on task 0 so far         :           8.420 MB  when allocating +coeff_3fn
  Note:  These values currently only include a subset of arrays which are explicitly tracked.
  The "true" memory usage will be greater.
------------------------------------------------------------

------------------------------------------------------------
          Begin self-consistency iteration #    5

  Date     :  20190508, Time     :  141402.260
------------------------------------------------------------
  Evaluating new KS density.
  Integration grid: deviation in total charge (<rho> - N_e) =  -4.440892E-14
  | <rho_up-rho_dn> = N_up-N_dn =      1.0000; <|rho_up-rho_dn|> =      1.0843
  Pulay mixing of updated and previous charge densities.

  Evaluating partitioned Hartree potential by multipole expansion.
  | Analytical far-field extrapolation by fixed multipoles:
  | Hartree multipole sum: apparent total charge =  -0.414626E-07
  Summing up the Hartree potential.
  Time summed over all CPUs for potential: real work        0.009 s, elapsed        0.009 s
  | RMS charge density error from multipole expansion :   0.109126E-09

  Integrating Hamiltonian matrix: batch-based integration.
  Time summed over all CPUs for integration: real work        0.046 s, elapsed        0.046 s
  Calculating non-local Hartree-Fock exchange by two-center RI (RI-LVL).
  screening_threshold (crit_val) =  0.000000100000
  Allocating        0.024 MB for dm_cols
  Allocating        0.216 MB for ovlp3fn_rcv
  Allocating        0.024 MB for fock_matrix
  Allocating        0.001 MB for fock_matrix_row
  Exact exchange progress report - outermost basis function loop i_basis_r1: 1 ..  39
  |        1         2         3         4         5         6         7         8         9        10
  |       11        12        13        14        15        16        17        18        19        20
  |       21        22        23        24        25        26        27        28        29        30
  |       31        32        33        34        35        36        37        38        39  
  Full exact exchange energy:     266.436130175114 eV.
  Times            DM_x_o3fn   CM_x_o3fn    Products        Sync   Imbalance    Pre/Post       Other  Total calc
  | Times    0:        0.018       0.560       0.110       0.000       0.000       0.000       0.016       0.704
  | Times  sum:        0.018       0.560       0.110       0.000       0.000       0.000       0.016       0.704

  Decomposition of Other based on code block (only on MPI task 0):
  Times             Block #1    Block #2    Block #3    Block #4    Block #5    Block #6    Block #7    Block #8
  | Times    0:        0.000       0.000       0.001       0.001       0.000       0.000       0.001       0.000

  Times             Block #9   Block #10   Block #11   Block #12   Block #13   Block #14   Block #15   Block #16
  | Times    0:        0.000       0.001       0.003       0.003       0.002       0.001       0.000       0.000

  Times            Block Sum    Expected
  | Times    0:        0.013       0.016

  Updating Kohn-Sham eigenvalues, eigenvectors, occupation numbers, and Fermi level.
  Solving generalized eigenproblem
  Updating Kohn-Sham eigenvalues and eigenfunctions.
  Solving real generalised eigenvalue problem by standard LAPACK (fast)
  Updating Kohn-Sham eigenvalues and eigenfunctions.
  Solving real generalised eigenvalue problem by standard LAPACK (fast)

  Obtaining occupation numbers and chemical potential using ELSI.
  | Chemical potential (Fermi level):   -11.88092386eV
  Current spin moment of the entire structure :
  | N = N_up - N_down :    1.00
  | S                 :    0.50
  | J                 :    2.00

  Highest occupied state (VBM) at    -11.88092490 eV
  | Occupation number:      0.55827540
  | Spin channel:        2

  Lowest unoccupied state (CBM) at   -11.88092282 eV
  | Occupation number:      0.44172460
  | Spin channel:        2

  Overall HOMO-LUMO gap:      0.00000207 eV.
  This system has fractional occupation numbers. Thus, it is a degenerate system
  within the approximate finite broadening function (occupation_type)
  applied to determine the occupation numbers.
  This may not be harmful. However, for some systems (free atoms), a different, non-degenerate
  ground state might exist by using a smaller broadening (see keyword occupation_type).

  Total energy components:
  | Sum of eigenvalues            :         -59.27454998 Ha       -1612.94257045 eV
  | XC energy correction          :           9.67317117 Ha         263.22038002 eV
  | XC potential correction       :          -0.00000000 Ha          -0.00000000 eV
  | Free-atom electrostatic energy:         -49.53312557 Ha       -1347.86492550 eV
  | Hartree energy correction     :          -0.02619863 Ha          -0.71290107 eV
  | Ionic    embedding energy     :           0.00000000 Ha           0.00000000 eV
  | Density  embedding energy     :           0.00000000 Ha           0.00000000 eV
  | Nonlocal embedding energy     :           0.00000000 Ha           0.00000000 eV
  | External embedding energy     :           0.00000000 Ha           0.00000000 eV
[...]
  | Nonlocal embedding energy     :           0.00000000 Ha           0.00000000 eV
  | External embedding energy     :          -0.00000000 Ha          -0.00000003 eV
  | Entropy correction            :          -0.00000000 Ha          -0.00000000 eV
  | ---------------------------
  | Total energy                  :         -99.40678187 Ha       -2704.99616334 eV
  | Total energy, T -> 0          :         -99.40678187 Ha       -2704.99616334 eV  <-- do not rely on this value for anything but (periodic) metals
  | Electronic free energy        :         -99.40678187 Ha       -2704.99616334 eV

  Total energy including external embedding contributions:
  | Total energy + embedding      :         -99.40678187 Ha       -2704.99616337 eV
  | Total energy + embedding, T->0:         -99.40678187 Ha       -2704.99616337 eV  <-- do not rely on this value for anything but (periodic) metals
  | Elec. free energy + embedding :         -99.40678187 Ha       -2704.99616337 eV

  Derived energy quantities:
  | Kinetic energy                :          99.03132494 Ha        2694.77946043 eV
  | Electrostatic energy          :        -188.43104914 Ha       -5127.46972991 eV
  | Energy correction for multipole
  | error in Hartree potential    :          -0.00000000 Ha          -0.00000000 eV
  | Sum of eigenvalues per atom                           :       -1620.71176593 eV
  | Total energy (T->0) per atom                          :       -2704.99616334 eV  <-- do not rely on this value for anything but (periodic) metals
  | Electronic free energy per atom                       :       -2704.99616334 eV

  Self-consistency convergence accuracy:
  | Change of charge/spin density :  0.1593E-05  0.6368E-06
  | Change of sum of eigenvalues  :  0.1197E-03 eV
  | Change of total energy        : -0.7516E-05 eV

  End self-consistency iteration #    37       :  max(cpu_time)    wall_clock(cpu1)
  | Time for this iteration                    :        0.705 s           0.705 s
  | Charge density update                      :        0.012 s           0.012 s
  | Density mixing                             :        0.002 s           0.002 s
  | Hartree multipole update                   :        0.001 s           0.001 s
  | Hartree multipole summation                :        0.008 s           0.008 s
  | Integration                                :        0.034 s           0.033 s
  | Fock matrix evaluation                     :        0.648 s           0.648 s
  | Solution of K.-S. eqns.                    :        0.001 s           0.001 s
  | Total energy evaluation                    :        0.000 s           0.000 s

  Partial memory accounting:
  | Current value for overall tracked memory usage on task 0  :           5.222 MB
  | Peak value for overall tracked memory usage on task 0     :          12.679 MB after allocating d_coeff_3fn
  | Largest tracked array allocation on task 0 so far         :           8.420 MB  when allocating +coeff_3fn
  Note:  These values currently only include a subset of arrays which are explicitly tracked.
  The "true" memory usage will be greater.
------------------------------------------------------------

------------------------------------------------------------
          Begin self-consistency iteration #   38

  Date     :  20190508, Time     :  141426.882
------------------------------------------------------------
  Evaluating new KS density.
  Integration grid: deviation in total charge (<rho> - N_e) =  -9.237056E-14
  | <rho_up-rho_dn> = N_up-N_dn =      1.0000; <|rho_up-rho_dn|> =      1.0763
  Pulay mixing of updated and previous charge densities.

  Evaluating partitioned Hartree potential by multipole expansion.
  | Analytical far-field extrapolation by fixed multipoles:
  | Hartree multipole sum: apparent total charge =  -0.520903E-07
  Summing up the Hartree potential.
  Time summed over all CPUs for potential: real work        0.007 s, elapsed        0.007 s
  | RMS charge density error from multipole expansion :   0.227911E-08

  Integrating Hamiltonian matrix: batch-based integration.
  Time summed over all CPUs for integration: real work        0.035 s, elapsed        0.035 s
  Calculating non-local Hartree-Fock exchange by two-center RI (RI-LVL).
  screening_threshold (crit_val) =  0.000000100000
  Allocating        0.024 MB for dm_cols
  Allocating        0.216 MB for ovlp3fn_rcv
  Allocating        0.024 MB for fock_matrix
  Allocating        0.001 MB for fock_matrix_row
  Exact exchange progress report - outermost basis function loop i_basis_r1: 1 ..  39
  |        1         2         3         4         5         6         7         8         9        10
  |       11        12        13        14        15        16        17        18        19        20
  |       21        22        23        24        25        26        27        28        29        30
  |       31        32        33        34        35        36        37        38        39  
  Full exact exchange energy:     272.305891713034 eV.
  Times            DM_x_o3fn   CM_x_o3fn    Products        Sync   Imbalance    Pre/Post       Other  Total calc
  | Times    0:        0.014       0.514       0.103       0.000       0.001       0.000       0.015       0.647
  | Times  sum:        0.014       0.514       0.103       0.000       0.001       0.000       0.015       0.647

  Decomposition of Other based on code block (only on MPI task 0):
  Times             Block #1    Block #2    Block #3    Block #4    Block #5    Block #6    Block #7    Block #8
  | Times    0:        0.000       0.000       0.000       0.000       0.000       0.000       0.001       0.000

  Times             Block #9   Block #10   Block #11   Block #12   Block #13   Block #14   Block #15   Block #16
  | Times    0:        0.000       0.001       0.002       0.004       0.003       0.000       0.000       0.000

  Times            Block Sum    Expected
  | Times    0:        0.011       0.015

  Updating Kohn-Sham eigenvalues, eigenvectors, occupation numbers, and Fermi level.
  Solving generalized eigenproblem
  Updating Kohn-Sham eigenvalues and eigenfunctions.
  Solving real generalised eigenvalue problem by standard LAPACK (fast)
  Updating Kohn-Sham eigenvalues and eigenfunctions.
  Solving real generalised eigenvalue problem by standard LAPACK (fast)

  Obtaining occupation numbers and chemical potential using ELSI.
  | Chemical potential (Fermi level):   -16.75316893eV
  Current spin moment of the entire structure :
  | N = N_up - N_down :    1.00
  | S                 :    0.50
  | J                 :    2.00

  Highest occupied state (VBM) at    -18.54619299 eV
  | Occupation number:      1.00000000
  | Spin channel:        2

  Lowest unoccupied state (CBM) at     0.93487934 eV
  | Occupation number:      0.00000000
  | Spin channel:        2

  Overall HOMO-LUMO gap:     19.48107234 eV.

  Total energy components:
  | Sum of eigenvalues            :         -59.56006254 Ha       -1620.71176249 eV
  | XC energy correction          :          10.00705767 Ha         272.30589401 eV
  | XC potential correction       :          -0.00000000 Ha          -0.00000000 eV
  | Free-atom electrostatic energy:         -49.53312557 Ha       -1347.86492550 eV
  | Hartree energy correction     :          -0.32065144 Ha          -8.72536971 eV
  | Ionic    embedding energy     :           0.00000000 Ha           0.00000000 eV
  | Density  embedding energy     :          -0.00000000 Ha          -0.00000003 eV
  | Nonlocal embedding energy     :           0.00000000 Ha           0.00000000 eV
  | External embedding energy     :          -0.00000000 Ha          -0.00000003 eV
  | Entropy correction            :          -0.00000000 Ha          -0.00000000 eV
  | ---------------------------
  | Total energy                  :         -99.40678188 Ha       -2704.99616366 eV
  | Total energy, T -> 0          :         -99.40678188 Ha       -2704.99616366 eV  <-- do not rely on this value for anything but (periodic) metals
  | Electronic free energy        :         -99.40678188 Ha       -2704.99616366 eV

  Total energy including external embedding contributions:
  | Total energy + embedding      :         -99.40678188 Ha       -2704.99616369 eV
  | Total energy + embedding, T->0:         -99.40678188 Ha       -2704.99616369 eV  <-- do not rely on this value for anything but (periodic) metals
  | Elec. free energy + embedding :         -99.40678188 Ha       -2704.99616369 eV

  Derived energy quantities:
  | Kinetic energy                :          99.03132499 Ha        2694.77946194 eV
  | Electrostatic energy          :        -188.43104920 Ha       -5127.46973162 eV
  | Energy correction for multipole
  | error in Hartree potential    :          -0.00000000 Ha          -0.00000000 eV
  | Sum of eigenvalues per atom                           :       -1620.71176249 eV
  | Total energy (T->0) per atom                          :       -2704.99616366 eV  <-- do not rely on this value for anything but (periodic) metals
  | Electronic free energy per atom                       :       -2704.99616366 eV

  Self-consistency convergence accuracy:
  | Change of charge/spin density :  0.1039E-06  0.1527E-06
  | Change of sum of eigenvalues  :  0.3442E-05 eV
  | Change of total energy        : -0.3227E-06 eV

  Writing Kohn-Sham eigenvalues.

  Spin-up eigenvalues:

  State    Occupation    Eigenvalue [Ha]    Eigenvalue [eV]
      1       1.00000         -26.391983         -718.16239
      2       1.00000          -1.672834          -45.52012
      3       1.00000          -0.846227          -23.02701
      4       1.00000          -0.733593          -19.96209
      5       1.00000          -0.733593          -19.96209
      6       0.00000           0.172666            4.69849
      7       0.00000           0.202710            5.51603
      8       0.00000           0.213528            5.81040

  Spin-down eigenvalues:

  State    Occupation    Eigenvalue [Ha]    Eigenvalue [eV]
      1       1.00000         -26.339318         -716.72932
      2       1.00000          -1.479394          -40.25635
      3       1.00000          -0.681560          -18.54620
      4       1.00000          -0.681560          -18.54619
      5       0.00000           0.034356            0.93488
      6       0.00000           0.177983            4.84315
      7       0.00000           0.215826            5.87293
      8       0.00000           0.215826            5.87293

  Current spin moment of the entire structure :
  | N = N_up - N_down :    1.00
  | S                 :    0.50
  | J                 :    2.00

  Highest occupied state (VBM) at    -18.54619299 eV
  | Occupation number:      1.00000000
  | Spin channel:        2

  Lowest unoccupied state (CBM) at     0.93487934 eV
  | Occupation number:      0.00000000
  | Spin channel:        2

  Overall HOMO-LUMO gap:     19.48107234 eV.

  Self-consistency cycle converged.

  End self-consistency iteration #    38       :  max(cpu_time)    wall_clock(cpu1)
  | Time for this iteration                    :        0.705 s           0.705 s
  | Charge density update                      :        0.012 s           0.012 s
  | Density mixing                             :        0.002 s           0.002 s
  | Hartree multipole update                   :        0.001 s           0.001 s
  | Hartree multipole summation                :        0.007 s           0.007 s
  | Integration                                :        0.034 s           0.035 s
  | Fock matrix evaluation                     :        0.648 s           0.647 s
  | Solution of K.-S. eqns.                    :        0.001 s           0.001 s
  | Total energy evaluation                    :        0.000 s           0.000 s

  Partial memory accounting:
  | Current value for overall tracked memory usage on task 0  :           5.222 MB
  | Peak value for overall tracked memory usage on task 0     :          12.679 MB after allocating d_coeff_3fn
  | Largest tracked array allocation on task 0 so far         :           8.420 MB  when allocating +coeff_3fn
  Note:  These values currently only include a subset of arrays which are explicitly tracked.
  The "true" memory usage will be greater.
------------------------------------------------------------

  Energy and forces in a compact form:
  | Total energy uncorrected      :         -0.270499616368794E+04 eV
  | Total energy corrected        :         -0.270499616368794E+04 eV  <-- do not rely on this value for anything but (periodic) metals
  | Electronic free energy        :         -0.270499616368794E+04 eV

  ------------------------------------ 
  Start decomposition of the XC Energy 
  ------------------------------------ 
  X and C from original XC functional choice 
  Hartree-Fock Energy :        -10.007057587 Ha           -272.305891713 eV
  X Energy            :        -10.007057587 Ha           -272.305891713 eV
  C Energy            :          0.000000000 Ha              0.000000000 eV
  Total XC Energy     :        -10.007057587 Ha           -272.305891713 eV
  ------------------------------------ 
  LDA X and C from self-consistent density 
  X Energy LDA        :         -9.070497122 Ha           -246.820784805 eV
  C Energy LDA        :         -0.635983446 Ha            -17.305990079 eV
  ------------------------------------ 
  End decomposition of the XC Energy 
  ------------------------------------ 

------------------------------------------------------------

------------------------------------------------------------------------------
  Final output of selected total energy values:

  The following output summarizes some interesting total energy values
  at the end of a run (AFTER all relaxation, molecular dynamics, etc.).

  | Total energy of the DFT / Hartree-Fock s.c.f. calculation      :          -2704.996163688 eV
  | Final zero-broadening corrected energy (caution - metals only) :          -2704.996163688 eV
  | For reference only, the value of 1 Hartree used in FHI-aims is :             27.211384500 eV

  Before relying on these values, please be sure to understand exactly which
  total energy value is referred to by a given number. Different objects may
  all carry the same name 'total energy'. Definitions:

  Total energy of the DFT / Hartree-Fock s.c.f. calculation:
  | Note that this energy does not include ANY quantities calculated after the
  | s.c.f. cycle, in particular not ANY RPA, MP2, etc. many-body perturbation terms.

  Final zero-broadening corrected energy:
  | For metallic systems only, a broadening of the occupation numbers at the Fermi
  | level can be extrapolated back to zero broadening by an electron-gas inspired
  | formula. For all systems that are not real metals, this value can be
  | meaningless and should be avoided.

------------------------------------------------------------------------------
  Methods described in the following list of references were used in this FHI-aims run.
  If you publish the results, please make sure to cite these reference if they apply.
  FHI-aims is an academic code, and for our developers (often, Ph.D. students
  and postdocs), scientific credit in the community is essential.
  Thank you for helping us!

  For any use of FHI-aims, please cite:

    Volker Blum, Ralf Gehrke, Felix Hanke, Paula Havu, Ville Havu,
    Xinguo Ren, Karsten Reuter, and Matthias Scheffler
    'Ab initio molecular simulations with numeric atom-centered orbitals'
    Computer Physics Communications 180, 2175-2196 (2009)
    http://dx.doi.org/10.1016/j.cpc.2009.06.022


  For pseudopotentials or QM/MM embedding infrastructure used in your run, please cite:

    D. Berger, A. J. Logsdail, H. Oberhofer, M. R. Farrow, C. R. A. Catlow, P. Sherwood,
    A. A. Sokol, V. Blum, and K. Reuter,
    'Embedded-cluster calculations in a numeric atomic orbital'
    'density-functional theory framework'
    The Journal of Chemical Physics 141, (2014).
    http://dx.doi.org/10.1063/1.4885816


  For Hartree-Fock, hybrid functionals, or many-body perturbation theory used in your run, please cite:

    Xinguo Ren, Patrick Rinke, Volker Blum, Juergen Wieferink, Alex Tkatchenko,
    Andrea Sanfilippo, Karsten Reuter, and Matthias Scheffler,
    'Resolution-of-identity approach to Hartree-Fock, hybrid density functionals,
    RPA, MP2, and GW with numeric atom-centered orbital basis functions'
    New Journal of Physics 14, 053020 (2012).
    http://dx.doi.org/10.1088/1367-2630/14/5/053020


  For the real-space grid partitioning and parallelization used in this calculation, please cite:

    Ville Havu, Volker Blum, Paula Havu, and Matthias Scheffler,
    'Efficient O(N) integration for all-electron electronic structure calculation'
    'using numerically tabulated basis functions'
    Journal of Computational Physics 228, 8367-8379 (2009).
    http://dx.doi.org/10.1016/j.jcp.2009.08.008


  The high-level electronic structure method used in your calculation
  employed our efficient localized resolution of identity for the Coulomb operator.
  Some calculations, especially large-scale hybrid density functional theory,
  are only possible thanks to this development. For this feature, please cite:

    Arvid Ihrig, Juergen Wieferink, Igor Ying Zhang, Matti Ropo, Xinguo Ren,
    Patrick Rinke, Matthias Scheffler, and Volker Blum,
    'Accurate localized resolution of identity approach for linear-scaling
    hybrid density functionals and for many-body perturbation theory'
    New Journal of Physics 117, 093020 (2015).
    http://dx.doi.org/10.1088/1367-2630/17/9/093020

  Of course, there are many other important community references, e.g., those cited in the
  above references. Our list is limited to references that describe implementations in the
  FHI-aims code. The reason is purely practical (length of this list) - please credit others as well.

------------------------------------------------------------
          Leaving FHI-aims.
          Date     :  20190508, Time     :  141427.599

          Computational steps:
          | Number of self-consistency cycles          :           38
          | Number of SCF (re)initializations          :            1

          Detailed time accounting                     :  max(cpu_time)    wall_clock(cpu1)
          | Total time                                 :       30.545 s          30.549 s
          | Preparation time                           :        0.117 s           0.117 s
          | Boundary condition initalization           :        0.000 s           0.000 s
          | Grid partitioning                          :        0.015 s           0.015 s
          | Preloading free-atom quantities on grid    :        0.003 s           0.003 s
          | Free-atom superposition energy             :        0.013 s           0.013 s
          | Total time for integrations                :        1.451 s           1.449 s
          | Product basis setup: Total time            :        2.047 s           2.048 s
          | Total time evaluating exchange matrix      :       25.971 s          25.975 s
          | Total time for solution of K.-S. equations :        0.026 s           0.028 s
          | Total time for density update              :        0.474 s           0.476 s
          | Total time for mixing                      :        0.064 s           0.065 s
          | Total time for Hartree multipole update    :        0.052 s           0.046 s
          | Total time for Hartree multipole sum       :        0.278 s           0.282 s
          | Total time for total energy evaluation     :        0.004 s           0.003 s
          | Total time for QM/MM embedding             :        0.000 s           0.000 s

 This is a stub MPI_ALLREDUCE call.
 You should not be here. Check your
 setting on the use_mpi variable, or
 link against true MPI-libraries.
