------------------------------------------------------------
          Invoking FHI-aims ...
          Version 171221_1
          Compiled on 2019/05/06 at 14:26:40 on host ffph0xx.

          When using FHI-aims, please cite the following reference:

          Volker Blum, Ralf Gehrke, Felix Hanke, Paula Havu,
          Ville Havu, Xinguo Ren, Karsten Reuter, and Matthias Scheffler,
          'Ab Initio Molecular Simulations with Numeric Atom-Centered Orbitals',
          Computer Physics Communications 180, 2175-2196 (2009)

          For any questions about FHI-aims, please visit the aimsclub website
          with its forums and wiki. Contributions to both the forums and the
          wiki are warmly encouraged - they are for you, and everyone is welcome there.

------------------------------------------------------------



  Date     :  20190513, Time     :  134149.248
  Time zero on CPU 1             :   0.746000000000000E-03  s.
  Internal wall clock time zero  :           326986909.248  s.

  FHI-aims created a unique identifier for this run for later identification
  aims_uuid : 6A09DD57-43FE-4EA0-A62F-7BE990C1786B


  Performing system and environment tests:
  *** Environment variable OMP_NUM_THREADS is not set
  *** For performance reasons you might want to set it to 1
  | Stacksize not measured: no C compiler

  Obtaining array dimensions for all initial allocations:
  
  -----------------------------------------------------------------------
  Parsing control.in (first pass over file, find array dimensions only).
  The contents of control.in will be repeated verbatim below
  unless switched off by setting 'verbatim_writeout .false.' .
  in the first line of control.in .
  -----------------------------------------------------------------------
  
  #--- method ---
  xc pw-lda
  spin none
  relativistic atomic_zora scalar
  #---
  
  #--- k-grid settings ---
  k_grid 8 8 8
  #---
  
  
  
  
  
  
  
  
  
  
  
  #-------------------------------------------------------------------------------
  #--- Species defaults for Si
  #-------------------------------------------------------------------------------
  
  ################################################################################
  #
  #  FHI-aims code project
  #  VB, Fritz-Haber Institut, 2009
  #
  #  Suggested "light" defaults for Si atom (to be pasted into control.in file)
  #  Be sure to double-check any results obtained with these settings for post-processing,
  #  e.g., with the "tight" defaults and larger basis sets.
  #
  ################################################################################
    species        Si
  #     global species definitions
      nucleus             14
      mass                28.0855
  #
      l_hartree           4
  #
      cut_pot             3.5          1.5  1.0
      basis_dep_cutoff    1e-4
  #
      radial_base         42 5.0
      radial_multiplier   1
      angular_grids       specified
        division   0.5866   50
        division   0.9616  110
        division   1.2249  194
        division   1.3795  302
  #      division   1.4810  434
  #      division   1.5529  590
  #      division   1.6284  770
  #      division   1.7077  974
  #      division   2.4068 1202
  #      outer_grid   974
        outer_grid 302
  ################################################################################
  #
  #  Definition of "minimal" basis
  #
  ################################################################################
  #     valence basis states
      valence      3  s   2.
      valence      3  p   2.
  #     ion occupancy
      ion_occ      3  s   1.
      ion_occ      3  p   1.
  ################################################################################
  #
  #  Suggested additional basis functions. For production calculations,
  #  uncomment them one after another (the most important basis functions are
  #  listed first).
  #
  #  Constructed for dimers: 1.75 A, 2.0 A, 2.25 A, 2.75 A, 3.75 A
  #
  ################################################################################
  #  "First tier" - improvements: -571.96 meV to -37.03 meV
       hydro 3 d 4.2
       hydro 2 p 1.4
  #     hydro 4 f 6.2
       ionic 3 s auto
  #  "Second tier" - improvements: -16.76 meV to -3.03 meV
  #     hydro 3 d 9
  #     hydro 5 g 9.4
  #     hydro 4 p 4
  #     hydro 1 s 0.65
  #  "Third tier" - improvements: -3.89 meV to -0.60 meV
  #     ionic 3 d auto
  #     hydro 3 s 2.6
  #     hydro 4 f 8.4
  #     hydro 3 d 3.4
  #     hydro 3 p 7.8
  #  "Fourth tier" - improvements: -0.33 meV to -0.11 meV
  #     hydro 2 p 1.6
  #     hydro 5 g 10.8
  #     hydro 5 f 11.2
  #     hydro 3 d 1
  #     hydro 4 s 4.5
  #  Further basis functions that fell out of the optimization - noise
  #  level... < -0.08 meV
  #     hydro 4 d 6.6
  #     hydro 5 g 16.4
  #     hydro 4 d 9
  
  -----------------------------------------------------------------------
  Completed first pass over input file control.in .
  -----------------------------------------------------------------------
  
  
  -----------------------------------------------------------------------
  Parsing geometry.in (first pass over file, find array dimensions only).
  The contents of geometry.in will be repeated verbatim below
  unless switched off by setting 'verbatim_writeout .false.' .
  in the first line of geometry.in .
  -----------------------------------------------------------------------
  
  lattice_vector   0.000000   2.750000   2.750000
  lattice_vector   2.750000   0.000000   2.750000
  lattice_vector   2.750000   2.750000   0.000000
  atom_frac   0.000000   0.000000   0.000000 Si
  atom_frac   0.250000   0.250000   0.250000 Si
  
  -----------------------------------------------------------------------
  Completed first pass over input file geometry.in .
  -----------------------------------------------------------------------
  

  Basic array size parameters:
  | Number of species                 :        1
  | Number of atoms                   :        2
  | Number of lattice vectors         :        3
  | Max. basis fn. angular momentum   :        2
  | Max. atomic/ionic basis occupied n:        3
  | Max. number of basis fn. types    :        3
  | Max. radial fns per species/type  :        5
  | Max. logarithmic grid size        :     1346
  | Max. radial integration grid size :       42
  | Max. angular integration grid size:      302
  | Max. angular grid division number :        8
  | Radial grid for Hartree potential :     1346
  | Number of spin channels           :        1

------------------------------------------------------------
          Reading file control.in.
------------------------------------------------------------
  XC: Using Perdew-Wang parametrisation of Ceperley-Alder LDA.
  Spin treatment: No spin polarisation.
  Scalar relativistic treatment of kinetic energy: on-site free-atom approximation to ZORA.
  Found k-point grid:         8         8         8

  Reading configuration options for species Si                  .
  | Found nuclear charge :  14.0000
  | Found atomic mass :    28.085500000000000      amu
  | Found l_max for Hartree potential  :   4
  | Found cutoff potl. onset [A], width [A], scale factor :    3.50000    1.50000    1.00000
  | Threshold for basis-dependent cutoff potential is   0.100000E-03
  | Found data for basic radial integration grid :    42 points, outermost radius =    5.000 A
  | Found multiplier for basic radial grid :   1
  | Found angular grid specification: user-specified.
  | Specified grid contains     5 separate shells.
  | Check grid settings after all constraints further below.
  | Found free-atom valence shell :  3 s   2.000
  | Found free-atom valence shell :  3 p   2.000
  | Found free-ion valence shell :  3 s   1.000
  | Found free-ion valence shell :  3 p   1.000
  | Found hydrogenic basis function :  3 d   4.200
  | Found hydrogenic basis function :  2 p   1.400
  | Found ionic basis function :  3 s , default cutoff radius.
  Species Si                  : Missing cutoff potential type.
  Defaulting to exp(1/x)/(1-x)^2 type cutoff potential.
  Species Si: No 'logarithmic' tag. Using default grid for free atom:
  | Default logarithmic grid data [bohr] : 0.1000E-03 0.1000E+03 0.1012E+01
  | Will include ionic basis functions of  2.0-fold positive Si                   ion.
  Species Si: On-site basis accuracy parameter (for Gram-Schmidt orthonormalisation) not specified.
  Using default value basis_acc =  0.1000000E-03.
  Species Si                  : Using default innermost maximum threshold i_radial=  2 for radial functions.
  Species Si                  : Default cutoff onset for free atom density etc. : 0.35000000E+01 AA.
  Species Si                  : Basic radial grid will be enhanced according to radial_multiplier =   1, to contain    42 grid points.

  Finished reading input file 'control.in'. Consistency checks are next.

  MPI_IN_PLACE appears to work with this MPI implementation.
  | Keeping use_mpi_in_place .true. (see manual).
  Target number of points in a grid batch is not set. Defaulting to  100
  Method for grid partitioning is not set. Defaulting to 'maxmin' partitioning.
  Batch size limit is not set. Defaulting to    200
  By default, will store active basis functions for each batch.
  If in need of memory, prune_basis_once .false. can be used to disable this option.
  communication_type for Hartree potential was not specified.
  Defaulting to calc_hartree .
 * Attention: 
 * You may want to set distributed_spline_storage to .true. in order to save memory.
 * This doesn't harm performance and is perfectly ok unless:
 * - you get error messages in postprocessing (about missing atoms in get_rho_multipole_spl)
 * - you need full spline storage in hirshfeld_analysis
  Defaulting to Pulay charge density mixer.
  Pulay mixer: Number of relevant iterations not set.
  Defaulting to    8 iterations.
  Pulay mixer: Number of initial linear mixing iterations not set.
  Defaulting to    0 iterations.
  Work space size for distributed Hartree potential not set.
  Defaulting to   0.200000E+03 MB.
  Mixing parameter for charge density mixing has not been set.
  Using default: charge_mix_param =     0.0500.
  The mixing parameter will be adjusted in iteration number     2 of the first full s.c.f. cycle only.
  Algorithm-dependent basis array size parameters:
  | n_max_pulay                         :        8
 * Notice: The s.c.f. convergence criterion sc_accuracy_rho was not provided.
 * We used to stop in this case, and ask the user to provide reasonable
 * scf convergence criteria. However, this led some users to employ criteria
 * that led to extremely long run times, e.g., for simple relaxation.
 * We now preset a default value for sc_accuracy_rho if it is not set.
 * You may still wish to check if this setting is too tight or too loose for your needs.
 * Based on n_atoms, FHI-aims chose sc_accuracy_rho =  0.100000E-05 .
  Maximum number of self-consistency iterations not provided.
  Presetting  1000 iterations.
  Presetting      1001 iterations before the initial mixing cycle
  is restarted anyway using the sc_init_iter criterion / keyword.
  Presetting a factor      1.000 between actual scf density residual
  and density convergence criterion sc_accuracy_rho below which sc_init_iter
  takes no effect.
 * No s.c.f. convergence criteria (sc_accuracy_*) were provided in control.in.
 * The run will proceed with a reasonable default guess, but please check whether.
 * the s.c.f. cycles seem to take too much or too little time.
  Calculation of forces was not defined in control.in. No forces will be calculated.
  Geometry relaxation not requested: no relaxation will be performed.
  No accuracy limit for integral partition fn. given. Defaulting to  0.1000E-14.
  No threshold value for u(r) in integrations given. Defaulting to  0.1000E-05.
  No occupation type (smearing scheme) given. Defaulting to Gaussian broadening, width =  0.1000E-01 eV.
  The width will be adjusted in iteration number     2 of the first full s.c.f. cycle only.
  S.C.F. convergence parameters will be adjusted in iteration number     2 of the first full s.c.f. cycle only.
  No accuracy for occupation numbers given. Defaulting to  0.1000E-12.
  No threshold value for occupation numbers given. Defaulting to  0.0000E+00.
  No accuracy for fermi level given. Defaulting to  0.1000E-19.
  Maximum # of iterations to find E_F not set. Defaulting to  200.
  Preferred method for the eigenvalue solver ('KS_method') not specified in 'control.in'.
  Defaulting to serial version, 'lapack_fast'.
  Will not use alltoall communication since running on < 1024 CPUs.
  Threshold for basis singularities not set.
  Default threshold for basis singularities:  0.1000E-04
  partition_type (choice of integration weights) for integrals was not specified.
  | Using a version of the partition function of Stratmann and coworkers ('stratmann_smoother').
  | At each grid point, the set of atoms used to build the partition table is smoothly restricted to
  | only those atoms whose free-atom density would be non-zero at that grid point.
  Partitioning for Hartree potential was not defined. Using partition_type for integrals.
  | Adjusted default value of keyword multip_moments_threshold to:       0.10000000E-11
  | This value may affect high angular momentum components of the Hartree potential in periodic systems.
  Angular momentum expansion for Kerker preconditioner not set explicitly.
  | Using default value of   0
  No explicit requirement for turning off preconditioner.
  | By default, it will be turned off when the charge convergence reaches
  | sc_accuracy_rho  =   0.100000E-05
  No special mixing parameter while Kerker preconditioner is on.
  Using default: charge_mix_param =     0.0500.
  No q(lm)/r^(l+1) cutoff set for long-range Hartree potential.
  | Using default value of  0.100000E-09 .
  | Verify using the multipole_threshold keyword.
  Defaulting to new monopole extrapolation.
  Density update method: automatic selection selected.
  Using density matrix based charge density update.
  Using density matrix based charge density update.
  Using packed matrix style: index .
  Defaulting to use time-reversal symmetry for k-point grid.
------------------------------------------------------------


------------------------------------------------------------
          Reading geometry description geometry.in.
------------------------------------------------------------
  Input structure read successfully.
  The structure contains        2 atoms,  and a total of         28.000 electrons.

  Input geometry:
  | Unit cell:
  |        0.00000000        2.75000000        2.75000000
  |        2.75000000        0.00000000        2.75000000
  |        2.75000000        2.75000000        0.00000000
  | Atomic structure:
  |       Atom                x [A]            y [A]            z [A]
  |    1: Species Si            0.00000000        0.00000000        0.00000000
  |    2: Species Si            1.37500000        1.37500000        1.37500000

  Lattice parameters for 3D lattice (in Angstroms) :     3.889087    3.889087    3.889087
  Angle(s) between unit vectors (in degrees)      :    60.000000   60.000000   60.000000

  |

  | The smallest distance between any two atoms is         2.38156986 AA.
  |
  | The first atom of this pair is atom number                      1 .
  | The second atom of this pair is atom number                     2 .
  | Wigner-Seitz cell of the first atom image           0     0     0 .
  | (The Wigner-Seitz cell of the second atom is 0 0 0  by definition.)

  Quantities derived from the lattice vectors:
  | Reciprocal lattice vector 1: -1.142397  1.142397  1.142397
  | Reciprocal lattice vector 2:  1.142397 -1.142397  1.142397
  | Reciprocal lattice vector 3:  1.142397  1.142397 -1.142397
  | Unit cell volume                               :   0.415938E+02  A^3

  Range separation radius for Ewald summation (hartree_convergence_parameter):      3.94337166 bohr.

  Fractional coordinates:
                         L1                L2                L3
       atom_frac         0.00000000        0.00000000        0.00000000  Si
       atom_frac         0.25000000        0.25000000        0.25000000  Si

  Number of empty states per atom not set in control.in - providing a guess from actual geometry.
  | Total number of empty states used during s.c.f. cycle:        6
  If you use a very high smearing, use empty_states (per atom!) in control.in to increase this value.

  Structure-dependent array size parameters: 
  | Maximum number of distinct radial functions  :        8
  | Maximum number of basis functions            :       36
  | Number of Kohn-Sham states (occupied + empty):       20
------------------------------------------------------------

------------------------------------------------------------
          Preparing all fixed parts of the calculation.
------------------------------------------------------------
  Determining machine precision:
     2.2250738585072014E-308
  Setting up grids for atomic and cluster calculations.

  Creating wave function, potential, and density for free atoms.

  Species: Si

  List of occupied orbitals and eigenvalues:
    n    l              occ      energy [Ha]    energy [eV]
    1    0           2.0000       -65.491668     -1782.1190
    2    0           2.0000        -5.087967      -138.4506
    3    0           2.0000        -0.391471       -10.6525
    2    1           6.0000        -3.502246       -95.3010
    3    1           2.0000        -0.143943        -3.9169

  Creating fixed part of basis set: Ionic, confined, hydrogenic.

  Si                   ion:

  List of free ionic orbitals and eigenvalues:
    n    l      energy [Ha]    energy [eV]
    1    0       -66.364436     -1805.8682
    2    0        -5.935799      -161.5213
    3    0        -1.078166       -29.3384
    2    1        -4.351123      -118.4001
    3    1        -0.781733       -21.2720


  List of ionic basis orbitals and eigenvalues:
    n    l      energy [Ha]    energy [eV]    outer radius [A]
    3    0        -1.078146       -29.3378       4.214062


  Si                   hydrogenic:

  List of hydrogenic basis orbitals: 
    n    l      effective z      eigenvalue [eV]  inner max. [A]     outer max. [A]     outer radius [A]   
    3    2         4.200000       -26.6624           1.139231           1.139231           4.534782
    2    1         1.400000        -6.4613           1.472672           1.472672           4.590560


  Adding cutoff potential to free-atom effective potential.
  Creating atomic-like basis functions for current effective potential.

  Species Si                  :

  List of atomic basis orbitals and eigenvalues:
    n    l      energy [Ha]    energy [eV]    outer radius [A]
    1    0       -65.491668     -1782.1190       0.789468
    2    0        -5.087967      -138.4506       2.815114
    3    0        -0.391471       -10.6525       4.534782
    2    1        -3.502246       -95.3010       3.259919
    3    1        -0.143943        -3.9169       4.590560

  Assembling full basis from fixed parts.
  | Species Si :   atomic orbital   1 s accepted.
  | Species Si :   atomic orbital   2 s accepted.
  | Species Si :    ionic orbital   3 s accepted.
  | Species Si :   atomic orbital   3 s accepted.
  | Species Si :   atomic orbital   2 p accepted.
  | Species Si :   atomic orbital   3 p accepted.
  | Species Si :    hydro orbital   2 p accepted.
  | Species Si :    hydro orbital   3 d accepted.

  Basis size parameters after reduction:
  | Total number of radial functions:        8
  | Total number of basis functions :       36

  Per-task memory consumption for arrays in subroutine allocate_ext:
  |           2.757868MB.
  Testing on-site integration grid accuracy.
  |  Species  Function  <phi|h_atom|phi> (log., in eV)  <phi|h_atom|phi> (rad., in eV)
           1        1              -1782.1189727076              -1782.1182429251
           1        2               -138.4506350693               -138.4506310079
           1        3                -10.3030408815                -10.3029120678
           1        4                  5.0238999146                  4.9457540310 ***
           1        5                -95.3009689499                -95.3009689315
           1        6                 -3.9266496564                 -3.9420918374
           1        7                  6.3453628447                  6.1632372158 ***
           1        8                  6.2883050744                  6.2861881409
 * Note: Onsite integrals marked "***" above are less accurate than
 * onsite_accuracy_threshold =    0.03000 eV. Usually, this is harmless.
 * When in doubt, tighten the "radial" and/or "radial_multiplier" flags to check.

  Preparing densities etc. for the partition functions (integrals / Hartree potential).

  Preparations completed.
  max(cpu_time)          :      0.100 s.
  Wall clock time (cpu1) :      0.100 s.
------------------------------------------------------------

------------------------------------------------------------
          Begin self-consistency loop: Initialization.

          Date     :  20190513, Time     :  134149.349
------------------------------------------------------------

  Initializing index lists of integration centers etc. from given atomic structure:
  Mapping all atomic coordinates to central unit cell.

  Initializing the k-points
          Using symmetry for reducing the k-points
  | k-points reduced from:      512 to      260
  | Number of k-points                             :       260
  The eigenvectors in the calculations are COMPLEX.
  | K-points in task   0:       260
  | Number of basis functions in the Hamiltonian integrals :      1454
  | Number of basis functions in a single unit cell        :        36
  | Number of centers in hartree potential         :       732
  | Number of centers in hartree multipole         :       318
  | Number of centers in electron density summation:       190
  | Number of centers in basis integrals           :       198
  | Number of centers in integrals                 :       101
  | Number of centers in hamiltonian               :       190
  | Consuming        455 KiB for k_phase.
  | Number of super-cells (origin) [n_cells]                     :        2197
  | Number of super-cells (after PM_index) [n_cells]             :         112
  | Number of super-cells in hamiltonian [n_cells_in_hamiltonian]:         112
  | Size of matrix packed + index [n_hamiltonian_matrix_size] :       41847
  Partitioning the integration grid into batches with maxmin method.
  | Maximal weight for a single point:     1.000
  | Minimal weight for a single point:     0.645
  | Number of batches:      128
  | Maximal batch size:      90
  | Minimal batch size:      85
  | Average batch size:      87.562
  | Standard deviation of batch sizes:       1.493
  Initializing partition tables, free-atom densities, potentials, etc. across the integration grid (initialize_grid_storage).
  | initialize_grid_storage: Actual outermost partition radius vs. multipole_radius_free
  | (-- VB: in principle, multipole_radius_free should be larger, hence this output)
  | Species        1: Confinement radius =              4.999999999999999 AA, multipole_radius_free =              5.000694715736543 AA.
  | Species        1: outer_partition_radius set to              5.000694715736543 AA .
  | Original list of interatomic distances with         198 x        198 entries is created.
  | Net number of integration points:    11208
  | of which are non-zero points    :     9844
  | Numerical average free-atom electrostatic potential    :    -12.65157614 eV
  Renormalizing the initial density to the exact electron count on the 3D integration grid.
  | Initial density: Formal number of electrons (from input files) :      28.0000000000
  | Integrated number of electrons on 3D grid     :      28.0046443613
  | Charge integration error                      :       0.0046443613
  | Normalization factor for density and gradient :       0.9998341575
  Obtaining max. number of non-zero basis functions in each batch (get_n_compute_maxes).
  | Maximal number of non-zero basis functions:      448 in task     0
  Allocating        2.995 MB for KS_eigenvector_complex
  Integrating Hamiltonian matrix: batch-based integration.
  Time summed over all CPUs for integration: real work        0.557 s, elapsed        0.557 s
  Integrating overlap matrix.
  Time summed over all CPUs for integration: real work        0.391 s, elapsed        0.392 s
  Decreasing sparse matrix size:
   Tolerance:   9.9999998245167004E-014
   Hamiltonian matrix
  | Array has    36494 nonzero elements out of    41847 elements
  | Sparsity factor is 0.128
   Overlap matrix
  | Array has    34236 nonzero elements out of    41847 elements
  | Sparsity factor is 0.182
  New size of hamiltonian matrix:       36751

  Updating Kohn-Sham eigenvalues, eigenvectors, occupation numbers, and Fermi level.
  Solving generalized eigenproblem
  Transforming overlap matrix and checking for singularities.
  Overlap matrix is nonsingular at first k-point:
  | Lowest eigenvalue:  0.493089E-02

  Obtaining occupation numbers and chemical potential using ELSI.
  | Chemical potential (Fermi level):    -5.54532109eV
  Writing Kohn-Sham eigenvalues.
  K-point:       1 at    0.000000    0.000000    0.000000 (in units of recip. lattice)

  State    Occupation    Eigenvalue [Ha]    Eigenvalue [eV]
      1       2.00000         -65.511153        -1782.64916
      2       2.00000         -65.511153        -1782.64916
      3       2.00000          -5.112074         -139.10660
      4       2.00000          -5.111824         -139.09980
      5       2.00000          -3.526350          -95.95687
      6       2.00000          -3.526350          -95.95687
      7       2.00000          -3.526350          -95.95687
      8       2.00000          -3.525803          -95.94197
      9       2.00000          -3.525803          -95.94197
     10       2.00000          -3.525803          -95.94197
     11       2.00000          -0.655680          -17.84196
     12       2.00000          -0.230449           -6.27085
     13       2.00000          -0.230449           -6.27085
     14       2.00000          -0.230449           -6.27085
     15       0.00000          -0.128212           -3.48884
     16       0.00000          -0.128212           -3.48884
     17       0.00000          -0.128212           -3.48884
     18       0.00000          -0.124308           -3.38258
     19       0.00000           0.067790            1.84465
     20       0.00000           0.067790            1.84465

  What follows are estimated values for band gap, HOMO, LUMO, etc.
  | They are estimated on a discrete k-point grid and not necessarily exact.
  | For converged numbers, create a DOS and/or band structure plot on a denser k-grid.

  Highest occupied state (VBM) at     -6.27084700 eV (relative to internal zero)
  | Occupation number:      2.00000000
  | K-point:       1 at    0.000000    0.000000    0.000000 (in units of recip. lattice)

  Lowest unoccupied state (CBM) at    -5.33698128 eV (relative to internal zero)
  | Occupation number:      0.00000000
  | K-point:      30 at    0.000000    0.625000    0.625000 (in units of recip. lattice)

  ESTIMATED overall HOMO-LUMO gap:      0.93386571 eV between HOMO at k-point 1 and LUMO at k-point 30
  | This appears to be an indirect band gap.
  | Smallest direct gap :      2.60778269 eV for k_point 205 at    0.000000    0.625000    0.625000 (in units of recip. lattice)
  The gap value is above 0.2 eV. Unless you are using a very sparse k-point grid,
  this system is most likely an insulator or a semiconductor.
  Calculating total energy contributions from superposition of free atom densities.

  Total energy components:
  | Sum of eigenvalues            :        -328.07769308 Ha       -8927.44825228 eV
  | XC energy correction          :         -39.64012500 Ha       -1078.66268311 eV
  | XC potential correction       :          52.37117597 Ha        1425.09220607 eV
  | Free-atom electrostatic energy:        -263.39488195 Ha       -7167.33940814 eV
  | Hartree energy correction     :          -0.00000000 Ha          -0.00000000 eV
  | Entropy correction            :          -0.00000000 Ha          -0.00000000 eV
  | ---------------------------
  | Total energy                  :        -578.74152407 Ha      -15748.35813747 eV
  | Total energy, T -> 0          :        -578.74152407 Ha      -15748.35813747 eV  <-- do not rely on this value for anything but (periodic) metals
  | Electronic free energy        :        -578.74152407 Ha      -15748.35813747 eV

  Derived energy quantities:
  | Kinetic energy                :         579.65300143 Ha       15773.16069837 eV
  | Electrostatic energy          :       -1118.75440049 Ha      -30442.85615273 eV
  | Energy correction for multipole
  | error in Hartree potential    :           0.00000000 Ha           0.00000000 eV
  | Sum of eigenvalues per atom                           :       -4463.72412614 eV
  | Total energy (T->0) per atom                          :       -7874.17906874 eV  <-- do not rely on this value for anything but (periodic) metals
  | Electronic free energy per atom                       :       -7874.17906874 eV
  Initialize hartree_potential_storage
  Max. number of atoms included in rho_multipole:            2

  End scf initialization - timings             :  max(cpu_time)    wall_clock(cpu1)
  | Time for scf. initialization               :        1.492 s           1.492 s
  | Boundary condition initialization          :        0.037 s           0.037 s
  | Integration                                :        0.948 s           0.949 s
  | Solution of K.-S. eqns.                    :        0.298 s           0.298 s
  | Grid partitioning                          :        0.031 s           0.031 s
  | Preloading free-atom quantities on grid    :        0.001 s           0.001 s
  | Free-atom superposition energy             :        0.028 s           0.029 s
  | Total energy evaluation                    :        0.000 s           0.000 s

  Partial memory accounting:
  | Current value for overall tracked memory usage on task 0  :           3.730 MB
  | Peak value for overall tracked memory usage on task 0     :           6.406 MB after allocating wave
  | Largest tracked array allocation on task 0 so far         :           2.995 MB  when allocating +KS_eigenvector_complex
  Note:  These values currently only include a subset of arrays which are explicitly tracked.
  The "true" memory usage will be greater.
------------------------------------------------------------

------------------------------------------------------------
          Begin self-consistency iteration #    1

  Date     :  20190513, Time     :  134150.841
------------------------------------------------------------
  Evaluating new KS density using the density matrix
  Evaluating density matrix
  Time summed over all CPUs for getting density from density matrix: real work        0.918 s, elapsed        0.918 s
  Integration grid: deviation in total charge (<rho> - N_e) =   1.776357E-13
  Pulay mixing of updated and previous charge densities.

  Evaluating partitioned Hartree potential by multipole expansion.
  | Analytical far-field extrapolation by fixed multipoles:
  | Hartree multipole sum: apparent total charge =   0.486677E-02
  Summing up the Hartree potential.
  | Estimated reciprocal-space cutoff momentum G_max:         2.36574414 bohr^-1 .
  | Reciprocal lattice points for long-range Hartree potential:      58
  Time summed over all CPUs for potential: real work        0.360 s, elapsed        0.360 s
  | RMS charge density error from multipole expansion :   0.493041E-03
  | Average real-space part of the electrostatic potential :     -0.00391993 eV

  Integrating Hamiltonian matrix: batch-based integration.
  Time summed over all CPUs for integration: real work        0.559 s, elapsed        0.559 s

  Updating Kohn-Sham eigenvalues, eigenvectors, occupation numbers, and Fermi level.
  Solving generalized eigenproblem

  Obtaining occupation numbers and chemical potential using ELSI.
  | Chemical potential (Fermi level):    -5.53080613eV
  Writing Kohn-Sham eigenvalues.
  K-point:       1 at    0.000000    0.000000    0.000000 (in units of recip. lattice)

  State    Occupation    Eigenvalue [Ha]    Eigenvalue [eV]
      1       2.00000         -65.514257        -1782.73364
      2       2.00000         -65.514257        -1782.73364
      3       2.00000          -5.112671         -139.12285
      4       2.00000          -5.112421         -139.11605
      5       2.00000          -3.527034          -95.97549
      6       2.00000          -3.527034          -95.97549
      7       2.00000          -3.527034          -95.97549
      8       2.00000          -3.526488          -95.96062
      9       2.00000          -3.526488          -95.96062
     10       2.00000          -3.526488          -95.96062
     11       2.00000          -0.655155          -17.82769
     12       2.00000          -0.229713           -6.25080
     13       2.00000          -0.229713           -6.25080
     14       2.00000          -0.229713           -6.25080
     15       0.00000          -0.127838           -3.47865
     16       0.00000          -0.127838           -3.47865
     17       0.00000          -0.127838           -3.47865
     18       0.00000          -0.123677           -3.36542
     19       0.00000           0.068244            1.85700
     20       0.00000           0.068244            1.85700

  What follows are estimated values for band gap, HOMO, LUMO, etc.
  | They are estimated on a discrete k-point grid and not necessarily exact.
  | For converged numbers, create a DOS and/or band structure plot on a denser k-grid.

  Highest occupied state (VBM) at     -6.25079526 eV (relative to internal zero)
  | Occupation number:      2.00000000
  | K-point:       1 at    0.000000    0.000000    0.000000 (in units of recip. lattice)

  Lowest unoccupied state (CBM) at    -5.33035762 eV (relative to internal zero)
  | Occupation number:      0.00000000
  | K-point:     133 at    0.375000    0.000000    0.375000 (in units of recip. lattice)

  ESTIMATED overall HOMO-LUMO gap:      0.92043764 eV between HOMO at k-point 1 and LUMO at k-point 133
  | This appears to be an indirect band gap.
  | Smallest direct gap :      2.60140249 eV for k_point 205 at    0.375000    0.000000    0.375000 (in units of recip. lattice)
  The gap value is above 0.2 eV. Unless you are using a very sparse k-point grid,
  this system is most likely an insulator or a semiconductor.

  Total energy components:
  | Sum of eigenvalues            :        -328.09615743 Ha       -8927.95069270 eV
  | XC energy correction          :         -39.64260964 Ha       -1078.73029347 eV
  | XC potential correction       :          52.37445116 Ha        1425.18132840 eV
  | Free-atom electrostatic energy:        -263.39488195 Ha       -7167.33940814 eV
  | Hartree energy correction     :           0.01820280 Ha           0.49532339 eV
  | Entropy correction            :          -0.00000000 Ha          -0.00000000 eV
  | ---------------------------
  | Total energy                  :        -578.74099506 Ha      -15748.34374253 eV
  | Total energy, T -> 0          :        -578.74099506 Ha      -15748.34374253 eV  <-- do not rely on this value for anything but (periodic) metals
  | Electronic free energy        :        -578.74099506 Ha      -15748.34374253 eV

  Derived energy quantities:
  | Kinetic energy                :         579.52101089 Ha       15769.56905309 eV
  | Electrostatic energy          :       -1118.61939631 Ha      -30439.18250215 eV
  | Energy correction for multipole
  | error in Hartree potential    :           0.00063747 Ha           0.01734641 eV
  | Sum of eigenvalues per atom                           :       -4463.97534635 eV
  | Total energy (T->0) per atom                          :       -7874.17187126 eV  <-- do not rely on this value for anything but (periodic) metals
  | Electronic free energy per atom                       :       -7874.17187126 eV

  Self-consistency convergence accuracy:
  | Change of charge density      :  0.1014E+00
  | Change of sum of eigenvalues  : -0.5024E+00 eV
  | Change of total energy        :  0.1439E-01 eV

  End self-consistency iteration #     1       :  max(cpu_time)    wall_clock(cpu1)
  | Time for this iteration                    :        2.059 s           2.059 s
  | Charge density update                      :        0.936 s           0.936 s
  | Density mixing & preconditioning           :        0.049 s           0.049 s
  | Hartree multipole update                   :        0.001 s           0.000 s
  | Hartree multipole summation                :        0.364 s           0.364 s
  | Integration                                :        0.559 s           0.559 s
  | Solution of K.-S. eqns.                    :        0.150 s           0.150 s
  | Total energy evaluation                    :        0.000 s           0.000 s

  Partial memory accounting:
  | Current value for overall tracked memory usage on task 0  :           3.730 MB
  | Peak value for overall tracked memory usage on task 0     :           6.406 MB after allocating wave
  | Largest tracked array allocation on task 0 so far         :           2.995 MB  when allocating +KS_eigenvector_complex
  Note:  These values currently only include a subset of arrays which are explicitly tracked.
  The "true" memory usage will be greater.
------------------------------------------------------------

------------------------------------------------------------
          Begin self-consistency iteration #    2

  Date     :  20190513, Time     :  134152.900
------------------------------------------------------------
  Evaluating new KS density using the density matrix
  Evaluating density matrix
  Time summed over all CPUs for getting density from density matrix: real work        0.924 s, elapsed        0.924 s
  Integration grid: deviation in total charge (<rho> - N_e) =   4.263256E-14
  Pulay mixing of updated and previous charge densities.

  Evaluating partitioned Hartree potential by multipole expansion.
  | Analytical far-field extrapolation by fixed multipoles:
  | Hartree multipole sum: apparent total charge =   0.890501E-02
  Summing up the Hartree potential.
  Time summed over all CPUs for potential: real work        0.436 s, elapsed        0.436 s
  | RMS charge density error from multipole expansion :   0.966427E-02
  | Average real-space part of the electrostatic potential :      0.30168377 eV

  Integrating Hamiltonian matrix: batch-based integration.
  Time summed over all CPUs for integration: real work        0.554 s, elapsed        0.554 s

  Updating Kohn-Sham eigenvalues, eigenvectors, occupation numbers, and Fermi level.
  Solving generalized eigenproblem

  Obtaining occupation numbers and chemical potential using ELSI.
  | Chemical potential (Fermi level):    -5.54471939eV
  What follows are estimated values for band gap, HOMO, LUMO, etc.
  | They are estimated on a discrete k-point grid and not necessarily exact.
  | For converged numbers, create a DOS and/or band structure plot on a denser k-grid.

  Highest occupied state (VBM) at     -5.71986424 eV (relative to internal zero)
  | Occupation number:      2.00000000
  | K-point:       1 at    0.000000    0.000000    0.000000 (in units of recip. lattice)

  Lowest unoccupied state (CBM) at    -5.16277042 eV (relative to internal zero)
  | Occupation number:      0.00000000
  | K-point:      30 at    0.000000    0.625000    0.625000 (in units of recip. lattice)

  ESTIMATED overall HOMO-LUMO gap:      0.55709382 eV between HOMO at k-point 1 and LUMO at k-point 30
  | This appears to be an indirect band gap.
  | Smallest direct gap :      2.46814855 eV for k_point 205 at    0.000000    0.625000    0.625000 (in units of recip. lattice)
  The gap value is above 0.2 eV. Unless you are using a very sparse k-point grid,
  this system is most likely an insulator or a semiconductor.

  Checking to see if s.c.f. parameters should be adjusted.
  The system likely has a gap. Increased the default Pulay mixing parameter (charge_mix_param). Value:   0.200000 .
  Kept the default occupation width. Value:   0.010000 eV.

  Total energy components:
  | Sum of eigenvalues            :        -327.35353789 Ha       -8907.74298697 eV
  | XC energy correction          :         -39.69965073 Ha       -1080.28246066 eV
  | XC potential correction       :          52.44962377 Ha        1427.22687935 eV
  | Free-atom electrostatic energy:        -263.39488195 Ha       -7167.33940814 eV
  | Hartree energy correction     :          -0.73760925 Ha         -20.07136883 eV
  | Entropy correction            :          -0.00000000 Ha          -0.00000000 eV
  | ---------------------------
  | Total energy                  :        -578.73605605 Ha      -15748.20934526 eV
  | Total energy, T -> 0          :        -578.73605605 Ha      -15748.20934526 eV  <-- do not rely on this value for anything but (periodic) metals
  | Electronic free energy        :        -578.73605605 Ha      -15748.20934526 eV

  Derived energy quantities:
  | Kinetic energy                :         579.70078689 Ha       15774.46100693 eV
  | Electrostatic energy          :       -1118.73719220 Ha      -30442.38789153 eV
  | Energy correction for multipole
  | error in Hartree potential    :           0.01247719 Ha           0.33952153 eV
  | Sum of eigenvalues per atom                           :       -4453.87149349 eV
  | Total energy (T->0) per atom                          :       -7874.10467263 eV  <-- do not rely on this value for anything but (periodic) metals
  | Electronic free energy per atom                       :       -7874.10467263 eV

  Self-consistency convergence accuracy:
  | Change of charge density      :  0.9631E-01
  | Change of sum of eigenvalues  :  0.2021E+02 eV
  | Change of total energy        :  0.1344E+00 eV

  End self-consistency iteration #     2       :  max(cpu_time)    wall_clock(cpu1)
  | Time for this iteration                    :        2.132 s           2.135 s
  | Charge density update                      :        0.939 s           0.942 s
  | Density mixing & preconditioning           :        0.045 s           0.046 s
  | Hartree multipole update                   :        0.001 s           0.000 s
  | Hartree multipole summation                :        0.440 s           0.440 s
  | Integration                                :        0.554 s           0.554 s
  | Solution of K.-S. eqns.                    :        0.152 s           0.153 s
  | Total energy evaluation                    :        0.000 s           0.000 s

  Partial memory accounting:
  | Current value for overall tracked memory usage on task 0  :           3.732 MB
  | Peak value for overall tracked memory usage on task 0     :           6.406 MB after allocating wave
  | Largest tracked array allocation on task 0 so far         :           2.995 MB  when allocating +KS_eigenvector_complex
  Note:  These values currently only include a subset of arrays which are explicitly tracked.
  The "true" memory usage will be greater.
------------------------------------------------------------

------------------------------------------------------------
          Begin self-consistency iteration #    3

  Date     :  20190513, Time     :  134155.035
------------------------------------------------------------
  Evaluating new KS density using the density matrix
  Evaluating density matrix
  Time summed over all CPUs for getting density from density matrix: real work        0.943 s, elapsed        0.943 s
  Integration grid: deviation in total charge (<rho> - N_e) =   1.385558E-13
  Pulay mixing of updated and previous charge densities.

  Evaluating partitioned Hartree potential by multipole expansion.
  | Analytical far-field extrapolation by fixed multipoles:
  | Hartree multipole sum: apparent total charge =   0.836622E-02
  Summing up the Hartree potential.
  Time summed over all CPUs for potential: real work        0.443 s, elapsed        0.443 s
  | RMS charge density error from multipole expansion :   0.959653E-02
  | Average real-space part of the electrostatic potential :      0.29306322 eV

  Integrating Hamiltonian matrix: batch-based integration.
  Time summed over all CPUs for integration: real work        0.573 s, elapsed        0.573 s

  Updating Kohn-Sham eigenvalues, eigenvectors, occupation numbers, and Fermi level.
  Solving generalized eigenproblem

  Obtaining occupation numbers and chemical potential using ELSI.
  | Chemical potential (Fermi level):    -5.55908856eV
  What follows are estimated values for band gap, HOMO, LUMO, etc.
  | They are estimated on a discrete k-point grid and not necessarily exact.
  | For converged numbers, create a DOS and/or band structure plot on a denser k-grid.

  Highest occupied state (VBM) at     -5.73658006 eV (relative to internal zero)
  | Occupation number:      2.00000000
  | K-point:       1 at    0.000000    0.000000    0.000000 (in units of recip. lattice)

  Lowest unoccupied state (CBM) at    -5.16775074 eV (relative to internal zero)
  | Occupation number:      0.00000000
  | K-point:      30 at    0.000000    0.625000    0.625000 (in units of recip. lattice)

  ESTIMATED overall HOMO-LUMO gap:      0.56882932 eV between HOMO at k-point 1 and LUMO at k-point 30
  | This appears to be an indirect band gap.
  | Smallest direct gap :      2.47184901 eV for k_point 5 at    0.000000    0.625000    0.625000 (in units of recip. lattice)
  The gap value is above 0.2 eV. Unless you are using a very sparse k-point grid,
  this system is most likely an insulator or a semiconductor.

  Total energy components:
  | Sum of eigenvalues            :        -327.38756216 Ha       -8908.66883451 eV
  | XC energy correction          :         -39.69767858 Ha       -1080.22879570 eV
  | XC potential correction       :          52.44702323 Ha        1427.15611497 eV
  | Free-atom electrostatic energy:        -263.39488195 Ha       -7167.33940814 eV
  | Hartree energy correction     :          -0.70285893 Ha         -19.12576456 eV
  | Entropy correction            :          -0.00000000 Ha          -0.00000000 eV
  | ---------------------------
  | Total energy                  :        -578.73595840 Ha      -15748.20668795 eV
  | Total energy, T -> 0          :        -578.73595840 Ha      -15748.20668795 eV  <-- do not rely on this value for anything but (periodic) metals
  | Electronic free energy        :        -578.73595840 Ha      -15748.20668795 eV

  Derived energy quantities:
  | Kinetic energy                :         579.68944301 Ha       15774.15232438 eV
  | Electrostatic energy          :       -1118.72772283 Ha      -30442.13021663 eV
  | Energy correction for multipole
  | error in Hartree potential    :           0.01241660 Ha           0.33787286 eV
  | Sum of eigenvalues per atom                           :       -4454.33441726 eV
  | Total energy (T->0) per atom                          :       -7874.10334397 eV  <-- do not rely on this value for anything but (periodic) metals
  | Electronic free energy per atom                       :       -7874.10334397 eV

  Self-consistency convergence accuracy:
  | Change of charge density      :  0.1577E-01
  | Change of sum of eigenvalues  : -0.9258E+00 eV
  | Change of total energy        :  0.2657E-02 eV

  End self-consistency iteration #     3       :  max(cpu_time)    wall_clock(cpu1)
  | Time for this iteration                    :        2.182 s           2.183 s
  | Charge density update                      :        0.962 s           0.962 s
  | Density mixing & preconditioning           :        0.046 s           0.047 s
  | Hartree multipole update                   :        0.001 s           0.000 s
  | Hartree multipole summation                :        0.447 s           0.447 s
  | Integration                                :        0.573 s           0.573 s
  | Solution of K.-S. eqns.                    :        0.153 s           0.153 s
  | Total energy evaluation                    :        0.000 s           0.000 s

  Partial memory accounting:
  | Current value for overall tracked memory usage on task 0  :           3.732 MB
  | Peak value for overall tracked memory usage on task 0     :           6.406 MB after allocating wave
  | Largest tracked array allocation on task 0 so far         :           2.995 MB  when allocating +KS_eigenvector_complex
  Note:  These values currently only include a subset of arrays which are explicitly tracked.
  The "true" memory usage will be greater.
------------------------------------------------------------

------------------------------------------------------------
          Begin self-consistency iteration #    4

  Date     :  20190513, Time     :  134157.218
------------------------------------------------------------
  Evaluating new KS density using the density matrix
  Evaluating density matrix
  Time summed over all CPUs for getting density from density matrix: real work        0.932 s, elapsed        0.932 s
  Integration grid: deviation in total charge (<rho> - N_e) =   1.705303E-13
  Pulay mixing of updated and previous charge densities.

  Evaluating partitioned Hartree potential by multipole expansion.
  | Analytical far-field extrapolation by fixed multipoles:
  | Hartree multipole sum: apparent total charge =   0.554868E-02
  Summing up the Hartree potential.
  Time summed over all CPUs for potential: real work        0.445 s, elapsed        0.445 s
  | RMS charge density error from multipole expansion :   0.101725E-01
  | Average real-space part of the electrostatic potential :      0.27561878 eV

  Integrating Hamiltonian matrix: batch-based integration.
  Time summed over all CPUs for integration: real work        0.565 s, elapsed        0.565 s

  Updating Kohn-Sham eigenvalues, eigenvectors, occupation numbers, and Fermi level.
  Solving generalized eigenproblem

  Obtaining occupation numbers and chemical potential using ELSI.
  | Chemical potential (Fermi level):    -5.59528436eV
  What follows are estimated values for band gap, HOMO, LUMO, etc.
  | They are estimated on a discrete k-point grid and not necessarily exact.
  | For converged numbers, create a DOS and/or band structure plot on a denser k-grid.

  Highest occupied state (VBM) at     -5.77485156 eV (relative to internal zero)
  | Occupation number:      2.00000000
  | K-point:       1 at    0.000000    0.000000    0.000000 (in units of recip. lattice)

  Lowest unoccupied state (CBM) at    -5.17634604 eV (relative to internal zero)
  | Occupation number:      0.00000000
  | K-point:      30 at    0.000000    0.625000    0.625000 (in units of recip. lattice)

  ESTIMATED overall HOMO-LUMO gap:      0.59850552 eV between HOMO at k-point 1 and LUMO at k-point 30
  | This appears to be an indirect band gap.
  | Smallest direct gap :      2.47952390 eV for k_point 24 at    0.000000    0.625000    0.625000 (in units of recip. lattice)
  The gap value is above 0.2 eV. Unless you are using a very sparse k-point grid,
  this system is most likely an insulator or a semiconductor.

  Total energy components:
  | Sum of eigenvalues            :        -327.50831872 Ha       -8911.95478752 eV
  | XC energy correction          :         -39.69305119 Ha       -1080.10287803 eV
  | XC potential correction       :          52.44091058 Ha        1426.98978132 eV
  | Free-atom electrostatic energy:        -263.39488195 Ha       -7167.33940814 eV
  | Hartree energy correction     :          -0.58034499 Ha         -15.79199080 eV
  | Entropy correction            :          -0.00000000 Ha          -0.00000000 eV
  | ---------------------------
  | Total energy                  :        -578.73568628 Ha      -15748.19928317 eV
  | Total energy, T -> 0          :        -578.73568628 Ha      -15748.19928317 eV  <-- do not rely on this value for anything but (periodic) metals
  | Electronic free energy        :        -578.73568628 Ha      -15748.19928317 eV

  Derived energy quantities:
  | Kinetic energy                :         579.63854987 Ha       15772.76745147 eV
  | Electrostatic energy          :       -1118.68118495 Ha      -30440.86385661 eV
  | Energy correction for multipole
  | error in Hartree potential    :           0.01329811 Ha           0.36186011 eV
  | Sum of eigenvalues per atom                           :       -4455.97739376 eV
  | Total energy (T->0) per atom                          :       -7874.09964158 eV  <-- do not rely on this value for anything but (periodic) metals
  | Electronic free energy per atom                       :       -7874.09964158 eV

  Self-consistency convergence accuracy:
  | Change of charge density      :  0.1379E-01
  | Change of sum of eigenvalues  : -0.3286E+01 eV
  | Change of total energy        :  0.7405E-02 eV

  End self-consistency iteration #     4       :  max(cpu_time)    wall_clock(cpu1)
  | Time for this iteration                    :        2.166 s           2.166 s
  | Charge density update                      :        0.952 s           0.952 s
  | Density mixing & preconditioning           :        0.047 s           0.046 s
  | Hartree multipole update                   :        0.001 s           0.001 s
  | Hartree multipole summation                :        0.448 s           0.448 s
  | Integration                                :        0.564 s           0.565 s
  | Solution of K.-S. eqns.                    :        0.154 s           0.154 s
  | Total energy evaluation                    :        0.000 s           0.000 s

  Partial memory accounting:
  | Current value for overall tracked memory usage on task 0  :           3.732 MB
  | Peak value for overall tracked memory usage on task 0     :           6.406 MB after allocating wave
  | Largest tracked array allocation on task 0 so far         :           2.995 MB  when allocating +KS_eigenvector_complex
  Note:  These values currently only include a subset of arrays which are explicitly tracked.
  The "true" memory usage will be greater.
------------------------------------------------------------

------------------------------------------------------------
          Begin self-consistency iteration #    5

  Date     :  20190513, Time     :  134159.384
------------------------------------------------------------
  Evaluating new KS density using the density matrix
  Evaluating density matrix
  Time summed over all CPUs for getting density from density matrix: real work        0.928 s, elapsed        0.928 s
  Integration grid: deviation in total charge (<rho> - N_e) =   1.421085E-14
  Pulay mixing of updated and previous charge densities.

  Evaluating partitioned Hartree potential by multipole expansion.
  | Analytical far-field extrapolation by fixed multipoles:
  | Hartree multipole sum: apparent total charge =   0.458300E-02
  Summing up the Hartree potential.
  Time summed over all CPUs for potential: real work        0.447 s, elapsed        0.447 s
  | RMS charge density error from multipole expansion :   0.101484E-01
  | Average real-space part of the electrostatic potential :      0.27234588 eV

  Integrating Hamiltonian matrix: batch-based integration.
  Time summed over all CPUs for integration: real work        0.578 s, elapsed        0.578 s

  Updating Kohn-Sham eigenvalues, eigenvectors, occupation numbers, and Fermi level.
  Solving generalized eigenproblem

  Obtaining occupation numbers and chemical potential using ELSI.
  | Chemical potential (Fermi level):    -5.60288000eV
  What follows are estimated values for band gap, HOMO, LUMO, etc.
  | They are estimated on a discrete k-point grid and not necessarily exact.
  | For converged numbers, create a DOS and/or band structure plot on a denser k-grid.

  Highest occupied state (VBM) at     -5.78280419 eV (relative to internal zero)
  | Occupation number:      2.00000000
  | K-point:       1 at    0.000000    0.000000    0.000000 (in units of recip. lattice)

  Lowest unoccupied state (CBM) at    -5.17940414 eV (relative to internal zero)
  | Occupation number:      0.00000000
  | K-point:      30 at    0.000000    0.625000    0.625000 (in units of recip. lattice)

  ESTIMATED overall HOMO-LUMO gap:      0.60340005 eV between HOMO at k-point 1 and LUMO at k-point 30
  | This appears to be an indirect band gap.
  | Smallest direct gap :      2.48019957 eV for k_point 179 at    0.000000    0.625000    0.625000 (in units of recip. lattice)
  The gap value is above 0.2 eV. Unless you are using a very sparse k-point grid,
  this system is most likely an insulator or a semiconductor.

  Total energy components:
  | Sum of eigenvalues            :        -327.54297395 Ha       -8912.89780452 eV
  | XC energy correction          :         -39.69033576 Ha       -1080.02898725 eV
  | XC potential correction       :          52.43731171 Ha        1426.89185097 eV
  | Free-atom electrostatic energy:        -263.39488195 Ha       -7167.33940814 eV
  | Hartree energy correction     :          -0.54477508 Ha         -14.82408404 eV
  | Entropy correction            :          -0.00000000 Ha          -0.00000000 eV
  | ---------------------------
  | Total energy                  :        -578.73565503 Ha      -15748.19843299 eV
  | Total energy, T -> 0          :        -578.73565503 Ha      -15748.19843299 eV  <-- do not rely on this value for anything but (periodic) metals
  | Electronic free energy        :        -578.73565503 Ha      -15748.19843299 eV

  Derived energy quantities:
  | Kinetic energy                :         579.61473299 Ha       15772.11936131 eV
  | Electrostatic energy          :       -1118.66005227 Ha      -30440.28880705 eV
  | Energy correction for multipole
  | error in Hartree potential    :           0.01323485 Ha           0.36013865 eV
  | Sum of eigenvalues per atom                           :       -4456.44890226 eV
  | Total energy (T->0) per atom                          :       -7874.09921650 eV  <-- do not rely on this value for anything but (periodic) metals
  | Electronic free energy per atom                       :       -7874.09921650 eV

  Self-consistency convergence accuracy:
  | Change of charge density      :  0.7825E-02
  | Change of sum of eigenvalues  : -0.9430E+00 eV
  | Change of total energy        :  0.8502E-03 eV

  End self-consistency iteration #     5       :  max(cpu_time)    wall_clock(cpu1)
  | Time for this iteration                    :        2.183 s           2.183 s
  | Charge density update                      :        0.947 s           0.947 s
  | Density mixing & preconditioning           :        0.045 s           0.045 s
  | Hartree multipole update                   :        0.001 s           0.001 s
  | Hartree multipole summation                :        0.450 s           0.450 s
  | Integration                                :        0.578 s           0.578 s
  | Solution of K.-S. eqns.                    :        0.162 s           0.162 s
  | Total energy evaluation                    :        0.000 s           0.000 s

  Partial memory accounting:
  | Current value for overall tracked memory usage on task 0  :           3.732 MB
  | Peak value for overall tracked memory usage on task 0     :           6.406 MB after allocating wave
  | Largest tracked array allocation on task 0 so far         :           2.995 MB  when allocating +KS_eigenvector_complex
  Note:  These values currently only include a subset of arrays which are explicitly tracked.
  The "true" memory usage will be greater.
------------------------------------------------------------

------------------------------------------------------------
          Begin self-consistency iteration #    6

  Date     :  20190513, Time     :  134201.567
------------------------------------------------------------
  Evaluating new KS density using the density matrix
  Evaluating density matrix
  Time summed over all CPUs for getting density from density matrix: real work        0.958 s, elapsed        0.958 s
  Integration grid: deviation in total charge (<rho> - N_e) =   1.669775E-13
  Pulay mixing of updated and previous charge densities.

  Evaluating partitioned Hartree potential by multipole expansion.
  | Analytical far-field extrapolation by fixed multipoles:
  | Hartree multipole sum: apparent total charge =   0.455806E-02
  Summing up the Hartree potential.
  Time summed over all CPUs for potential: real work        0.466 s, elapsed        0.466 s
  | RMS charge density error from multipole expansion :   0.101674E-01
  | Average real-space part of the electrostatic potential :      0.27196003 eV

  Integrating Hamiltonian matrix: batch-based integration.
  Time summed over all CPUs for integration: real work        0.590 s, elapsed        0.590 s

  Updating Kohn-Sham eigenvalues, eigenvectors, occupation numbers, and Fermi level.
  Solving generalized eigenproblem

  Obtaining occupation numbers and chemical potential using ELSI.
  | Chemical potential (Fermi level):    -5.60318303eV
  What follows are estimated values for band gap, HOMO, LUMO, etc.
  | They are estimated on a discrete k-point grid and not necessarily exact.
  | For converged numbers, create a DOS and/or band structure plot on a denser k-grid.

  Highest occupied state (VBM) at     -5.78292578 eV (relative to internal zero)
  | Occupation number:      2.00000000
  | K-point:       1 at    0.000000    0.000000    0.000000 (in units of recip. lattice)

  Lowest unoccupied state (CBM) at    -5.17945398 eV (relative to internal zero)
  | Occupation number:      0.00000000
  | K-point:      30 at    0.000000    0.625000    0.625000 (in units of recip. lattice)

  ESTIMATED overall HOMO-LUMO gap:      0.60347180 eV between HOMO at k-point 1 and LUMO at k-point 30
  | This appears to be an indirect band gap.
  | Smallest direct gap :      2.48003333 eV for k_point 179 at    0.000000    0.625000    0.625000 (in units of recip. lattice)
  The gap value is above 0.2 eV. Unless you are using a very sparse k-point grid,
  this system is most likely an insulator or a semiconductor.

  Total energy components:
  | Sum of eigenvalues            :        -327.54826299 Ha       -8913.04172649 eV
  | XC energy correction          :         -39.68981241 Ha       -1080.01474613 eV
  | XC potential correction       :          52.43661727 Ha        1426.87295441 eV
  | Free-atom electrostatic energy:        -263.39488195 Ha       -7167.33940814 eV
  | Hartree energy correction     :          -0.53931128 Ha         -14.67540664 eV
  | Entropy correction            :          -0.00000000 Ha          -0.00000000 eV
  | ---------------------------
  | Total energy                  :        -578.73565136 Ha      -15748.19833300 eV
  | Total energy, T -> 0          :        -578.73565136 Ha      -15748.19833300 eV  <-- do not rely on this value for anything but (periodic) metals
  | Electronic free energy        :        -578.73565136 Ha      -15748.19833300 eV

  Derived energy quantities:
  | Kinetic energy                :         579.60699060 Ha       15771.90868005 eV
  | Electrostatic energy          :       -1118.65282955 Ha      -30440.09226691 eV
  | Energy correction for multipole
  | error in Hartree potential    :           0.01324977 Ha           0.36054470 eV
  | Sum of eigenvalues per atom                           :       -4456.52086325 eV
  | Total energy (T->0) per atom                          :       -7874.09916650 eV  <-- do not rely on this value for anything but (periodic) metals
  | Electronic free energy per atom                       :       -7874.09916650 eV

  Self-consistency convergence accuracy:
  | Change of charge density      :  0.6329E-02
  | Change of sum of eigenvalues  : -0.1439E+00 eV
  | Change of total energy        :  0.1000E-03 eV

  End self-consistency iteration #     6       :  max(cpu_time)    wall_clock(cpu1)
  | Time for this iteration                    :        2.241 s           2.242 s
  | Charge density update                      :        0.978 s           0.978 s
  | Density mixing & preconditioning           :        0.046 s           0.047 s
  | Hartree multipole update                   :        0.001 s           0.001 s
  | Hartree multipole summation                :        0.470 s           0.469 s
  | Integration                                :        0.589 s           0.590 s
  | Solution of K.-S. eqns.                    :        0.157 s           0.157 s
  | Total energy evaluation                    :        0.000 s           0.000 s

  Partial memory accounting:
  | Current value for overall tracked memory usage on task 0  :           3.733 MB
  | Peak value for overall tracked memory usage on task 0     :           6.406 MB after allocating wave
  | Largest tracked array allocation on task 0 so far         :           2.995 MB  when allocating +KS_eigenvector_complex
  Note:  These values currently only include a subset of arrays which are explicitly tracked.
  The "true" memory usage will be greater.
------------------------------------------------------------

------------------------------------------------------------
          Begin self-consistency iteration #    7

  Date     :  20190513, Time     :  134203.809
------------------------------------------------------------
  Evaluating new KS density using the density matrix
  Evaluating density matrix
  Time summed over all CPUs for getting density from density matrix: real work        0.947 s, elapsed        0.947 s
  Integration grid: deviation in total charge (<rho> - N_e) =   8.526513E-14
  Pulay mixing of updated and previous charge densities.

  Evaluating partitioned Hartree potential by multipole expansion.
  | Analytical far-field extrapolation by fixed multipoles:
  | Hartree multipole sum: apparent total charge =   0.457137E-02
  Summing up the Hartree potential.
  Time summed over all CPUs for potential: real work        0.441 s, elapsed        0.441 s
  | RMS charge density error from multipole expansion :   0.101376E-01
  | Average real-space part of the electrostatic potential :      0.26814717 eV

  Integrating Hamiltonian matrix: batch-based integration.
  Time summed over all CPUs for integration: real work        0.609 s, elapsed        0.609 s

  Updating Kohn-Sham eigenvalues, eigenvectors, occupation numbers, and Fermi level.
  Solving generalized eigenproblem

  Obtaining occupation numbers and chemical potential using ELSI.
  | Chemical potential (Fermi level):    -5.60748939eV
  What follows are estimated values for band gap, HOMO, LUMO, etc.
  | They are estimated on a discrete k-point grid and not necessarily exact.
  | For converged numbers, create a DOS and/or band structure plot on a denser k-grid.

  Highest occupied state (VBM) at     -5.78771026 eV (relative to internal zero)
  | Occupation number:      2.00000000
  | K-point:       1 at    0.000000    0.000000    0.000000 (in units of recip. lattice)

  Lowest unoccupied state (CBM) at    -5.18112194 eV (relative to internal zero)
  | Occupation number:      0.00000000
  | K-point:      30 at    0.000000    0.625000    0.625000 (in units of recip. lattice)

  ESTIMATED overall HOMO-LUMO gap:      0.60658832 eV between HOMO at k-point 1 and LUMO at k-point 30
  | This appears to be an indirect band gap.
  | Smallest direct gap :      2.48069730 eV for k_point 5 at    0.000000    0.625000    0.625000 (in units of recip. lattice)
  The gap value is above 0.2 eV. Unless you are using a very sparse k-point grid,
  this system is most likely an insulator or a semiconductor.

  Total energy components:
  | Sum of eigenvalues            :        -327.56758616 Ha       -8913.56753668 eV
  | XC energy correction          :         -39.68787166 Ha       -1079.96193560 eV
  | XC potential correction       :          52.43404766 Ha        1426.80303188 eV
  | Free-atom electrostatic energy:        -263.39488195 Ha       -7167.33940814 eV
  | Hartree energy correction     :          -0.51934610 Ha         -14.13212646 eV
  | Entropy correction            :          -0.00000000 Ha          -0.00000000 eV
  | ---------------------------
  | Total energy                  :        -578.73563820 Ha      -15748.19797500 eV
  | Total energy, T -> 0          :        -578.73563820 Ha      -15748.19797500 eV  <-- do not rely on this value for anything but (periodic) metals
  | Electronic free energy        :        -578.73563820 Ha      -15748.19797500 eV

  Derived energy quantities:
  | Kinetic energy                :         579.58437230 Ha       15771.29320482 eV
  | Electrostatic energy          :       -1118.63213885 Ha      -30439.52924422 eV
  | Energy correction for multipole
  | error in Hartree potential    :           0.01318422 Ha           0.35876075 eV
  | Sum of eigenvalues per atom                           :       -4456.78376834 eV
  | Total energy (T->0) per atom                          :       -7874.09898750 eV  <-- do not rely on this value for anything but (periodic) metals
  | Electronic free energy per atom                       :       -7874.09898750 eV

  Self-consistency convergence accuracy:
  | Change of charge density      :  0.6026E-02
  | Change of sum of eigenvalues  : -0.5258E+00 eV
  | Change of total energy        :  0.3580E-03 eV

  End self-consistency iteration #     7       :  max(cpu_time)    wall_clock(cpu1)
  | Time for this iteration                    :        2.221 s           2.222 s
  | Charge density update                      :        0.965 s           0.966 s
  | Density mixing & preconditioning           :        0.044 s           0.044 s
  | Hartree multipole update                   :        0.001 s           0.001 s
  | Hartree multipole summation                :        0.444 s           0.444 s
  | Integration                                :        0.609 s           0.609 s
  | Solution of K.-S. eqns.                    :        0.158 s           0.158 s
  | Total energy evaluation                    :        0.000 s           0.000 s

  Partial memory accounting:
  | Current value for overall tracked memory usage on task 0  :           3.733 MB
  | Peak value for overall tracked memory usage on task 0     :           6.406 MB after allocating wave
  | Largest tracked array allocation on task 0 so far         :           2.995 MB  when allocating +KS_eigenvector_complex
  Note:  These values currently only include a subset of arrays which are explicitly tracked.
  The "true" memory usage will be greater.
------------------------------------------------------------

------------------------------------------------------------
          Begin self-consistency iteration #    8

  Date     :  20190513, Time     :  134206.031
------------------------------------------------------------
  Evaluating new KS density using the density matrix
  Evaluating density matrix
  Time summed over all CPUs for getting density from density matrix: real work        0.919 s, elapsed        0.919 s
  Integration grid: deviation in total charge (<rho> - N_e) =   1.776357E-13
  Pulay mixing of updated and previous charge densities.

  Evaluating partitioned Hartree potential by multipole expansion.
  | Analytical far-field extrapolation by fixed multipoles:
  | Hartree multipole sum: apparent total charge =   0.472740E-02
  Summing up the Hartree potential.
  Time summed over all CPUs for potential: real work        0.509 s, elapsed        0.509 s
  | RMS charge density error from multipole expansion :   0.101012E-01
  | Average real-space part of the electrostatic potential :      0.26068817 eV

  Integrating Hamiltonian matrix: batch-based integration.
  Time summed over all CPUs for integration: real work        0.654 s, elapsed        0.654 s

  Updating Kohn-Sham eigenvalues, eigenvectors, occupation numbers, and Fermi level.
  Solving generalized eigenproblem

  Obtaining occupation numbers and chemical potential using ELSI.
  | Chemical potential (Fermi level):    -5.61508767eV
  What follows are estimated values for band gap, HOMO, LUMO, etc.
  | They are estimated on a discrete k-point grid and not necessarily exact.
  | For converged numbers, create a DOS and/or band structure plot on a denser k-grid.

  Highest occupied state (VBM) at     -5.79606418 eV (relative to internal zero)
  | Occupation number:      2.00000000
  | K-point:       1 at    0.000000    0.000000    0.000000 (in units of recip. lattice)

  Lowest unoccupied state (CBM) at    -5.18395536 eV (relative to internal zero)
  | Occupation number:      0.00000000
  | K-point:      30 at    0.000000    0.625000    0.625000 (in units of recip. lattice)

  ESTIMATED overall HOMO-LUMO gap:      0.61210882 eV between HOMO at k-point 1 and LUMO at k-point 30
  | This appears to be an indirect band gap.
  | Smallest direct gap :      2.48182816 eV for k_point 205 at    0.000000    0.625000    0.625000 (in units of recip. lattice)
  The gap value is above 0.2 eV. Unless you are using a very sparse k-point grid,
  this system is most likely an insulator or a semiconductor.

  Total energy components:
  | Sum of eigenvalues            :        -327.60427181 Ha       -8914.56580413 eV
  | XC energy correction          :         -39.68415353 Ha       -1079.86076013 eV
  | XC potential correction       :          52.42912454 Ha        1426.66906689 eV
  | Free-atom electrostatic energy:        -263.39488195 Ha       -7167.33940814 eV
  | Hartree energy correction     :          -0.48143533 Ha         -13.10052196 eV
  | Entropy correction            :          -0.00000000 Ha          -0.00000000 eV
  | ---------------------------
  | Total energy                  :        -578.73561808 Ha      -15748.19742747 eV
  | Total energy, T -> 0          :        -578.73561808 Ha      -15748.19742747 eV  <-- do not rely on this value for anything but (periodic) metals
  | Electronic free energy        :        -578.73561808 Ha      -15748.19742747 eV

  Derived energy quantities:
  | Kinetic energy                :         579.53980557 Ha       15770.08048241 eV
  | Electrostatic energy          :       -1118.59127013 Ha      -30438.41714975 eV
  | Energy correction for multipole
  | error in Hartree potential    :           0.01308419 Ha           0.35603889 eV
  | Sum of eigenvalues per atom                           :       -4457.28290206 eV
  | Total energy (T->0) per atom                          :       -7874.09871374 eV  <-- do not rely on this value for anything but (periodic) metals
  | Electronic free energy per atom                       :       -7874.09871374 eV

  Self-consistency convergence accuracy:
  | Change of charge density      :  0.4865E-02
  | Change of sum of eigenvalues  : -0.9983E+00 eV
  | Change of total energy        :  0.5475E-03 eV

  End self-consistency iteration #     8       :  max(cpu_time)    wall_clock(cpu1)
  | Time for this iteration                    :        2.314 s           2.315 s
  | Charge density update                      :        0.938 s           0.938 s
  | Density mixing & preconditioning           :        0.045 s           0.045 s
  | Hartree multipole update                   :        0.001 s           0.001 s
  | Hartree multipole summation                :        0.512 s           0.512 s
  | Integration                                :        0.654 s           0.654 s
  | Solution of K.-S. eqns.                    :        0.164 s           0.164 s
  | Total energy evaluation                    :        0.000 s           0.000 s

  Partial memory accounting:
  | Current value for overall tracked memory usage on task 0  :           3.733 MB
  | Peak value for overall tracked memory usage on task 0     :           6.406 MB after allocating wave
  | Largest tracked array allocation on task 0 so far         :           2.995 MB  when allocating +KS_eigenvector_complex
  Note:  These values currently only include a subset of arrays which are explicitly tracked.
  The "true" memory usage will be greater.
------------------------------------------------------------

------------------------------------------------------------
          Begin self-consistency iteration #    9

  Date     :  20190513, Time     :  134208.346
------------------------------------------------------------
  Evaluating new KS density using the density matrix
  Evaluating density matrix
  Time summed over all CPUs for getting density from density matrix: real work        0.949 s, elapsed        0.949 s
  Integration grid: deviation in total charge (<rho> - N_e) =   2.842171E-14
  Pulay mixing of updated and previous charge densities.

  Evaluating partitioned Hartree potential by multipole expansion.
  | Analytical far-field extrapolation by fixed multipoles:
  | Hartree multipole sum: apparent total charge =   0.474357E-02
  Summing up the Hartree potential.
  Time summed over all CPUs for potential: real work        0.452 s, elapsed        0.452 s
  | RMS charge density error from multipole expansion :   0.100896E-01
  | Average real-space part of the electrostatic potential :      0.25890771 eV

  Integrating Hamiltonian matrix: batch-based integration.
  Time summed over all CPUs for integration: real work        0.633 s, elapsed        0.633 s

  Updating Kohn-Sham eigenvalues, eigenvectors, occupation numbers, and Fermi level.
  Solving generalized eigenproblem

  Obtaining occupation numbers and chemical potential using ELSI.
  | Chemical potential (Fermi level):    -5.61701373eV
  What follows are estimated values for band gap, HOMO, LUMO, etc.
  | They are estimated on a discrete k-point grid and not necessarily exact.
  | For converged numbers, create a DOS and/or band structure plot on a denser k-grid.

  Highest occupied state (VBM) at     -5.79820080 eV (relative to internal zero)
  | Occupation number:      2.00000000
  | K-point:       1 at    0.000000    0.000000    0.000000 (in units of recip. lattice)

  Lowest unoccupied state (CBM) at    -5.18469089 eV (relative to internal zero)
  | Occupation number:      0.00000000
  | K-point:      30 at    0.000000    0.625000    0.625000 (in units of recip. lattice)

  ESTIMATED overall HOMO-LUMO gap:      0.61350990 eV between HOMO at k-point 1 and LUMO at k-point 30
  | This appears to be an indirect band gap.
  | Smallest direct gap :      2.48212979 eV for k_point 24 at    0.000000    0.625000    0.625000 (in units of recip. lattice)
  The gap value is above 0.2 eV. Unless you are using a very sparse k-point grid,
  this system is most likely an insulator or a semiconductor.

  Total energy components:
  | Sum of eigenvalues            :        -327.61315233 Ha       -8914.80745519 eV
  | XC energy correction          :         -39.68325984 Ha       -1079.83644162 eV
  | XC potential correction       :          52.42794120 Ha        1426.63686664 eV
  | Free-atom electrostatic energy:        -263.39488195 Ha       -7167.33940814 eV
  | Hartree energy correction     :          -0.47226127 Ha         -12.85088295 eV
  | Entropy correction            :          -0.00000000 Ha          -0.00000000 eV
  | ---------------------------
  | Total energy                  :        -578.73561418 Ha      -15748.19732126 eV
  | Total energy, T -> 0          :        -578.73561418 Ha      -15748.19732126 eV  <-- do not rely on this value for anything but (periodic) metals
  | Electronic free energy        :        -578.73561418 Ha      -15748.19732126 eV

  Derived energy quantities:
[...]
  | Total energy evaluation                    :        0.000 s           0.000 s

  Partial memory accounting:
  | Current value for overall tracked memory usage on task 0  :           3.734 MB
  | Peak value for overall tracked memory usage on task 0     :           6.406 MB after allocating wave
  | Largest tracked array allocation on task 0 so far         :           2.995 MB  when allocating +KS_eigenvector_complex
  Note:  These values currently only include a subset of arrays which are explicitly tracked.
  The "true" memory usage will be greater.
------------------------------------------------------------

------------------------------------------------------------
          Begin self-consistency iteration #   11

  Date     :  20190513, Time     :  134212.786
------------------------------------------------------------
  Evaluating new KS density using the density matrix
  Evaluating density matrix
  Time summed over all CPUs for getting density from density matrix: real work        1.015 s, elapsed        1.015 s
  Integration grid: deviation in total charge (<rho> - N_e) =   6.039613E-14
  Pulay mixing of updated and previous charge densities.

  Evaluating partitioned Hartree potential by multipole expansion.
  | Analytical far-field extrapolation by fixed multipoles:
  | Hartree multipole sum: apparent total charge =   0.472305E-02
  Summing up the Hartree potential.
  Time summed over all CPUs for potential: real work        0.446 s, elapsed        0.446 s
  | RMS charge density error from multipole expansion :   0.100549E-01
  | Average real-space part of the electrostatic potential :      0.25256886 eV

  Integrating Hamiltonian matrix: batch-based integration.
  Time summed over all CPUs for integration: real work        0.562 s, elapsed        0.562 s

  Updating Kohn-Sham eigenvalues, eigenvectors, occupation numbers, and Fermi level.
  Solving generalized eigenproblem

  Obtaining occupation numbers and chemical potential using ELSI.
  | Chemical potential (Fermi level):    -5.62407776eV
  What follows are estimated values for band gap, HOMO, LUMO, etc.
  | They are estimated on a discrete k-point grid and not necessarily exact.
  | For converged numbers, create a DOS and/or band structure plot on a denser k-grid.

  Highest occupied state (VBM) at     -5.80596778 eV (relative to internal zero)
  | Occupation number:      2.00000000
  | K-point:       1 at    0.000000    0.000000    0.000000 (in units of recip. lattice)

  Lowest unoccupied state (CBM) at    -5.18738484 eV (relative to internal zero)
  | Occupation number:      0.00000000
  | K-point:      30 at    0.000000    0.625000    0.625000 (in units of recip. lattice)

  ESTIMATED overall HOMO-LUMO gap:      0.61858294 eV between HOMO at k-point 1 and LUMO at k-point 30
  | This appears to be an indirect band gap.
  | Smallest direct gap :      2.48317208 eV for k_point 205 at    0.000000    0.625000    0.625000 (in units of recip. lattice)
  The gap value is above 0.2 eV. Unless you are using a very sparse k-point grid,
  this system is most likely an insulator or a semiconductor.

  Total energy components:
  | Sum of eigenvalues            :        -327.64687740 Ha       -8915.72516122 eV
  | XC energy correction          :         -39.67990297 Ha       -1079.74509658 eV
  | XC potential correction       :          52.42349541 Ha        1426.51589038 eV
  | Free-atom electrostatic energy:        -263.39488195 Ha       -7167.33940814 eV
  | Hartree energy correction     :          -0.43743561 Ha         -11.90322852 eV
  | Entropy correction            :          -0.00000000 Ha          -0.00000000 eV
  | ---------------------------
  | Total energy                  :        -578.73560252 Ha      -15748.19700409 eV
  | Total energy, T -> 0          :        -578.73560252 Ha      -15748.19700409 eV  <-- do not rely on this value for anything but (periodic) metals
  | Electronic free energy        :        -578.73560252 Ha      -15748.19700409 eV

  Derived energy quantities:
  | Kinetic energy                :         579.48836108 Ha       15768.68060663 eV
  | Electrostatic energy          :       -1118.54406064 Ha      -30437.13251414 eV
  | Energy correction for multipole
  | error in Hartree potential    :           0.01296144 Ha           0.35269859 eV
  | Sum of eigenvalues per atom                           :       -4457.86258061 eV
  | Total energy (T->0) per atom                          :       -7874.09850205 eV  <-- do not rely on this value for anything but (periodic) metals
  | Electronic free energy per atom                       :       -7874.09850205 eV

  Self-consistency convergence accuracy:
  | Change of charge density      :  0.1171E-05
  | Change of sum of eigenvalues  : -0.1803E-03 eV
  | Change of total energy        :  0.3921E-07 eV

  End self-consistency iteration #    11       :  max(cpu_time)    wall_clock(cpu1)
  | Time for this iteration                    :        2.252 s           2.252 s
  | Charge density update                      :        1.036 s           1.035 s
  | Density mixing & preconditioning           :        0.052 s           0.052 s
  | Hartree multipole update                   :        0.001 s           0.001 s
  | Hartree multipole summation                :        0.450 s           0.450 s
  | Integration                                :        0.562 s           0.562 s
  | Solution of K.-S. eqns.                    :        0.152 s           0.151 s
  | Total energy evaluation                    :        0.000 s           0.000 s

  Partial memory accounting:
  | Current value for overall tracked memory usage on task 0  :           3.734 MB
  | Peak value for overall tracked memory usage on task 0     :           6.406 MB after allocating wave
  | Largest tracked array allocation on task 0 so far         :           2.995 MB  when allocating +KS_eigenvector_complex
  Note:  These values currently only include a subset of arrays which are explicitly tracked.
  The "true" memory usage will be greater.
------------------------------------------------------------

------------------------------------------------------------
          Begin self-consistency iteration #   12

  Date     :  20190513, Time     :  134215.038
------------------------------------------------------------
  Evaluating new KS density using the density matrix
  Evaluating density matrix
  Time summed over all CPUs for getting density from density matrix: real work        0.948 s, elapsed        0.948 s
  Integration grid: deviation in total charge (<rho> - N_e) =   3.907985E-14
  Pulay mixing of updated and previous charge densities.

  Evaluating partitioned Hartree potential by multipole expansion.
  | Analytical far-field extrapolation by fixed multipoles:
  | Hartree multipole sum: apparent total charge =   0.472323E-02
  Summing up the Hartree potential.
  Time summed over all CPUs for potential: real work        0.446 s, elapsed        0.446 s
  | RMS charge density error from multipole expansion :   0.100549E-01
  | Average real-space part of the electrostatic potential :      0.25256749 eV

  Integrating Hamiltonian matrix: batch-based integration.
  Time summed over all CPUs for integration: real work        0.565 s, elapsed        0.565 s

  Updating Kohn-Sham eigenvalues, eigenvectors, occupation numbers, and Fermi level.
  Solving generalized eigenproblem

  Obtaining occupation numbers and chemical potential using ELSI.
  | Chemical potential (Fermi level):    -5.62407839eV
  What follows are estimated values for band gap, HOMO, LUMO, etc.
  | They are estimated on a discrete k-point grid and not necessarily exact.
  | For converged numbers, create a DOS and/or band structure plot on a denser k-grid.

  Highest occupied state (VBM) at     -5.80596850 eV (relative to internal zero)
  | Occupation number:      2.00000000
  | K-point:       1 at    0.000000    0.000000    0.000000 (in units of recip. lattice)

  Lowest unoccupied state (CBM) at    -5.18738519 eV (relative to internal zero)
  | Occupation number:      0.00000000
  | K-point:      30 at    0.000000    0.625000    0.625000 (in units of recip. lattice)

  ESTIMATED overall HOMO-LUMO gap:      0.61858331 eV between HOMO at k-point 1 and LUMO at k-point 30
  | This appears to be an indirect band gap.
  | Smallest direct gap :      2.48317209 eV for k_point 24 at    0.000000    0.625000    0.625000 (in units of recip. lattice)
  The gap value is above 0.2 eV. Unless you are using a very sparse k-point grid,
  this system is most likely an insulator or a semiconductor.

  Total energy components:
  | Sum of eigenvalues            :        -327.64688202 Ha       -8915.72528679 eV
  | XC energy correction          :         -39.67990227 Ha       -1079.74507755 eV
  | XC potential correction       :          52.42349448 Ha        1426.51586519 eV
  | Free-atom electrostatic energy:        -263.39488195 Ha       -7167.33940814 eV
  | Hartree energy correction     :          -0.43743077 Ha         -11.90309684 eV
  | Entropy correction            :          -0.00000000 Ha          -0.00000000 eV
  | ---------------------------
  | Total energy                  :        -578.73560252 Ha      -15748.19700413 eV
  | Total energy, T -> 0          :        -578.73560252 Ha      -15748.19700413 eV  <-- do not rely on this value for anything but (periodic) metals
  | Electronic free energy        :        -578.73560252 Ha      -15748.19700413 eV

  Derived energy quantities:
  | Kinetic energy                :         579.48835359 Ha       15768.68040289 eV
  | Electrostatic energy          :       -1118.54405385 Ha      -30437.13232947 eV
  | Energy correction for multipole
  | error in Hartree potential    :           0.01296139 Ha           0.35269731 eV
  | Sum of eigenvalues per atom                           :       -4457.86264339 eV
  | Total energy (T->0) per atom                          :       -7874.09850207 eV  <-- do not rely on this value for anything but (periodic) metals
  | Electronic free energy per atom                       :       -7874.09850207 eV

  Self-consistency convergence accuracy:
  | Change of charge density      :  0.4730E-06
  | Change of sum of eigenvalues  : -0.1256E-03 eV
  | Change of total energy        : -0.4029E-07 eV

  Preliminary charge convergence reached. Turning off preconditioner.

  Writing Kohn-Sham eigenvalues.
  K-point:       1 at    0.000000    0.000000    0.000000 (in units of recip. lattice)

  State    Occupation    Eigenvalue [Ha]    Eigenvalue [eV]
      1       2.00000         -65.491675        -1782.11916
      2       2.00000         -65.491675        -1782.11916
      3       2.00000          -5.097134         -138.70008
      4       2.00000          -5.096886         -138.69333
      5       2.00000          -3.510678          -95.53042
      6       2.00000          -3.510678          -95.53042
      7       2.00000          -3.510678          -95.53042
      8       2.00000          -3.510138          -95.51571
      9       2.00000          -3.510138          -95.51571
     10       2.00000          -3.510138          -95.51571
     11       2.00000          -0.643620          -17.51380
     12       2.00000          -0.213365           -5.80597
     13       2.00000          -0.213365           -5.80597
     14       2.00000          -0.213365           -5.80597
     15       0.00000          -0.119673           -3.25646
     16       0.00000          -0.119673           -3.25646
     17       0.00000          -0.119673           -3.25646
     18       0.00000          -0.107655           -2.92943
     19       0.00000           0.076786            2.08944
     20       0.00000           0.076786            2.08944

  What follows are estimated values for band gap, HOMO, LUMO, etc.
  | They are estimated on a discrete k-point grid and not necessarily exact.
  | For converged numbers, create a DOS and/or band structure plot on a denser k-grid.

  Highest occupied state (VBM) at     -5.80596850 eV (relative to internal zero)
  | Occupation number:      2.00000000
  | K-point:       1 at    0.000000    0.000000    0.000000 (in units of recip. lattice)

  Lowest unoccupied state (CBM) at    -5.18738519 eV (relative to internal zero)
  | Occupation number:      0.00000000
  | K-point:      30 at    0.000000    0.625000    0.625000 (in units of recip. lattice)

  ESTIMATED overall HOMO-LUMO gap:      0.61858331 eV between HOMO at k-point 1 and LUMO at k-point 30
  | This appears to be an indirect band gap.
  | Smallest direct gap :      2.48317209 eV for k_point 24 at    0.000000    0.625000    0.625000 (in units of recip. lattice)
  The gap value is above 0.2 eV. Unless you are using a very sparse k-point grid,
  this system is most likely an insulator or a semiconductor.

  Self-consistency cycle converged.

  End self-consistency iteration #    12       :  max(cpu_time)    wall_clock(cpu1)
  | Time for this iteration                    :        2.180 s           2.180 s
  | Charge density update                      :        0.966 s           0.966 s
  | Density mixing                             :        0.047 s           0.047 s
  | Hartree multipole update                   :        0.001 s           0.001 s
  | Hartree multipole summation                :        0.450 s           0.450 s
  | Integration                                :        0.564 s           0.565 s
  | Solution of K.-S. eqns.                    :        0.150 s           0.151 s
  | Total energy evaluation                    :        0.000 s           0.000 s

  Partial memory accounting:
  | Current value for overall tracked memory usage on task 0  :           3.734 MB
  | Peak value for overall tracked memory usage on task 0     :           6.406 MB after allocating wave
  | Largest tracked array allocation on task 0 so far         :           2.995 MB  when allocating +KS_eigenvector_complex
  Note:  These values currently only include a subset of arrays which are explicitly tracked.
  The "true" memory usage will be greater.
------------------------------------------------------------

  Energy and forces in a compact form:
  | Total energy uncorrected      :         -0.157481970041311E+05 eV
  | Total energy corrected        :         -0.157481970041311E+05 eV  <-- do not rely on this value for anything but (periodic) metals
  | Electronic free energy        :         -0.157481970041311E+05 eV

  ------------------------------------ 
  Start decomposition of the XC Energy 
  ------------------------------------ 
  X and C from original XC functional choice 
  Hartree-Fock Energy :          0.000000000 Ha              0.000000000 eV
  X Energy            :        -37.536308116 Ha          -1021.414912847 eV
  C Energy            :         -2.143594153 Ha            -58.330164703 eV
  Total XC Energy     :        -39.679902268 Ha          -1079.745077550 eV
  ------------------------------------ 
  LDA X and C from self-consistent density 
  X Energy LDA        :        -37.536308116 Ha          -1021.414912847 eV
  C Energy LDA        :         -2.143594153 Ha            -58.330164703 eV
  ------------------------------------ 
  End decomposition of the XC Energy 
  ------------------------------------ 

------------------------------------------------------------

------------------------------------------------------------------------------
  Final output of selected total energy values:

  The following output summarizes some interesting total energy values
  at the end of a run (AFTER all relaxation, molecular dynamics, etc.).

  | Total energy of the DFT / Hartree-Fock s.c.f. calculation      :         -15748.197004131 eV
  | Final zero-broadening corrected energy (caution - metals only) :         -15748.197004131 eV
  | For reference only, the value of 1 Hartree used in FHI-aims is :             27.211384500 eV

  Before relying on these values, please be sure to understand exactly which
  total energy value is referred to by a given number. Different objects may
  all carry the same name 'total energy'. Definitions:

  Total energy of the DFT / Hartree-Fock s.c.f. calculation:
  | Note that this energy does not include ANY quantities calculated after the
  | s.c.f. cycle, in particular not ANY RPA, MP2, etc. many-body perturbation terms.

  Final zero-broadening corrected energy:
  | For metallic systems only, a broadening of the occupation numbers at the Fermi
  | level can be extrapolated back to zero broadening by an electron-gas inspired
  | formula. For all systems that are not real metals, this value can be
  | meaningless and should be avoided.

------------------------------------------------------------------------------
  Methods described in the following list of references were used in this FHI-aims run.
  If you publish the results, please make sure to cite these reference if they apply.
  FHI-aims is an academic code, and for our developers (often, Ph.D. students
  and postdocs), scientific credit in the community is essential.
  Thank you for helping us!

  For any use of FHI-aims, please cite:

    Volker Blum, Ralf Gehrke, Felix Hanke, Paula Havu, Ville Havu,
    Xinguo Ren, Karsten Reuter, and Matthias Scheffler
    'Ab initio molecular simulations with numeric atom-centered orbitals'
    Computer Physics Communications 180, 2175-2196 (2009)
    http://dx.doi.org/10.1016/j.cpc.2009.06.022


  For the real-space grid partitioning and parallelization used in this calculation, please cite:

    Ville Havu, Volker Blum, Paula Havu, and Matthias Scheffler,
    'Efficient O(N) integration for all-electron electronic structure calculation'
    'using numerically tabulated basis functions'
    Journal of Computational Physics 228, 8367-8379 (2009).
    http://dx.doi.org/10.1016/j.jcp.2009.08.008

  Of course, there are many other important community references, e.g., those cited in the
  above references. Our list is limited to references that describe implementations in the
  FHI-aims code. The reason is purely practical (length of this list) - please credit others as well.

------------------------------------------------------------
          Leaving FHI-aims.
          Date     :  20190513, Time     :  134217.226

          Computational steps:
          | Number of self-consistency cycles          :           12
          | Number of SCF (re)initializations          :            1

          Detailed time accounting                     :  max(cpu_time)    wall_clock(cpu1)
          | Total time                                 :       27.969 s          27.978 s
          | Preparation time                           :        0.100 s           0.100 s
          | Boundary condition initalization           :        0.037 s           0.037 s
          | Grid partitioning                          :        0.031 s           0.031 s
          | Preloading free-atom quantities on grid    :        0.001 s           0.001 s
          | Free-atom superposition energy             :        0.028 s           0.029 s
          | Total time for integrations                :        7.959 s           7.963 s
          | Total time for solution of K.-S. equations :        2.182 s           2.180 s
          | Total time for density update              :       11.535 s          11.538 s
          | Total time for mixing & preconditioning    :        0.557 s           0.559 s
          | Total time for Hartree multipole update    :        0.009 s           0.009 s
          | Total time for Hartree multipole sum       :        5.369 s           5.369 s
          | Total time for total energy evaluation     :        0.002 s           0.001 s
          | Total time for scaled ZORA corrections     :        0.000 s           0.000 s

 This is a stub MPI_ALLREDUCE call.
 You should not be here. Check your
 setting on the use_mpi variable, or
 link against true MPI-libraries.
