------------------------------------------------------------
          Invoking FHI-aims ...
          Version 171221_1
          Compiled on 2019/05/06 at 14:26:40 on host ffph0xx.

          When using FHI-aims, please cite the following reference:

          Volker Blum, Ralf Gehrke, Felix Hanke, Paula Havu,
          Ville Havu, Xinguo Ren, Karsten Reuter, and Matthias Scheffler,
          'Ab Initio Molecular Simulations with Numeric Atom-Centered Orbitals',
          Computer Physics Communications 180, 2175-2196 (2009)

          For any questions about FHI-aims, please visit the aimsclub website
          with its forums and wiki. Contributions to both the forums and the
          wiki are warmly encouraged - they are for you, and everyone is welcome there.

------------------------------------------------------------



  Date     :  20190509, Time     :  114701.911
  Time zero on CPU 1             :   0.673000000000000E-03  s.
  Internal wall clock time zero  :           326634421.911  s.

  FHI-aims created a unique identifier for this run for later identification
  aims_uuid : 708591AF-C344-475C-AB55-EE96F8578861


  Performing system and environment tests:
  *** Environment variable OMP_NUM_THREADS is not set
  *** For performance reasons you might want to set it to 1
  | Stacksize not measured: no C compiler

  Obtaining array dimensions for all initial allocations:
  
  -----------------------------------------------------------------------
  Parsing control.in (first pass over file, find array dimensions only).
  The contents of control.in will be repeated verbatim below
  unless switched off by setting 'verbatim_writeout .false.' .
  in the first line of control.in .
  -----------------------------------------------------------------------
  
  # Sample input file for the relaxation
  # of the H3O+ molecule
  #######################################
    xc  pw-lda
    charge 1.0
    spin none
  
  #######Iteration limit####################
    sc_iter_limit 100
  
  #######Relaxation######################
    ###relax_geometry trm 1E-3
  
  #######Species#########################
  ################################################################################
  #
  #  FHI-aims code project
  #  VB, Fritz-Haber Institut, 2009
  #
  #  Suggested "light" defaults for H atom (to be pasted into control.in file)
  #  Be sure to double-check any results obtained with these settings for post-processing,
  #  e.g., with the "tight" defaults and larger basis sets.
  #
  ################################################################################
    species        H
  #     global species definitions
      nucleus             1
      mass                1.00794
  #
      l_hartree           4
  #
      cut_pot             3.5  1.5  1.0
      basis_dep_cutoff    1e-4
  #
      radial_base         24 5.0
      radial_multiplier   1
      angular_grids       specified
        division   0.2421   50
        division   0.3822  110
        division   0.4799  194
        division   0.5341  302
  #      division   0.5626  434
  #      division   0.5922  590
  #      division   0.6542  770
  #      division   0.6868 1202
  #      outer_grid  770
        outer_grid  302
  ################################################################################
  #
  #  Definition of "minimal" basis
  #
  ################################################################################
  #     valence basis states
      valence      1  s   1.
  #     ion occupancy
      ion_occ      1  s   0.5
  ################################################################################
  #
  #  Suggested additional basis functions. For production calculations,
  #  uncomment them one after another (the most important basis functions are
  #  listed first).
  #
  #  Basis constructed for dimers: 0.5 A, 0.7 A, 1.0 A, 1.5 A, 2.5 A
  #
  ################################################################################
  #  "First tier" - improvements: -1014.90 meV to -62.69 meV
       hydro 2 s 2.1
       hydro 2 p 3.5
  #  "Second tier" - improvements: -12.89 meV to -1.83 meV
  #     hydro 1 s 0.85
  #     hydro 2 p 3.7
  #     hydro 2 s 1.2
  #     hydro 3 d 7
  #  "Third tier" - improvements: -0.25 meV to -0.12 meV
  #     hydro 4 f 11.2
  #     hydro 3 p 4.8
  #     hydro 4 d 9
  #     hydro 3 s 3.2
  ################################################################################
  #
  #  FHI-aims code project
  #  VB, Fritz-Haber Institut, 2009
  #
  #  Suggested "light" defaults for O atom (to be pasted into control.in file)
  #  Be sure to double-check any results obtained with these settings for post-processing,
  #  e.g., with the "tight" defaults and larger basis sets.
  #
  ################################################################################
    species        O
  #     global species definitions
      nucleus             8
      mass                15.9994
  #
      l_hartree           4
  #
      cut_pot             3.5  1.5  1.0
      basis_dep_cutoff    1e-4
  #
      radial_base         36 5.0
      radial_multiplier   1
       angular_grids specified
        division   0.2659   50
        division   0.4451  110
        division   0.6052  194
        division   0.7543  302
  #      division   0.8014  434
  #      division   0.8507  590
  #      division   0.8762  770
  #      division   0.9023  974
  #      division   1.2339 1202
  #      outer_grid 974
        outer_grid 302
  ################################################################################
  #
  #  Definition of "minimal" basis
  #
  ################################################################################
  #     valence basis states
      valence      2  s   2.
      valence      2  p   4.
  #     ion occupancy
      ion_occ      2  s   1.
      ion_occ      2  p   3.
  ################################################################################
  #
  #  Suggested additional basis functions. For production calculations,
  #  uncomment them one after another (the most important basis functions are
  #  listed first).
  #
  #  Constructed for dimers: 1.0 A, 1.208 A, 1.5 A, 2.0 A, 3.0 A
  #
  ################################################################################
  #  "First tier" - improvements: -699.05 meV to -159.38 meV
       hydro 2 p 1.8
       hydro 3 d 7.6
       hydro 3 s 6.4
  #  "Second tier" - improvements: -49.91 meV to -5.39 meV
  #     hydro 4 f 11.6
  #     hydro 3 p 6.2
  #     hydro 3 d 5.6
  #     hydro 5 g 17.6
  #     hydro 1 s 0.75
  #  "Third tier" - improvements: -2.83 meV to -0.50 meV
  #     ionic 2 p auto
  #     hydro 4 f 10.8
  #     hydro 4 d 4.7
  #     hydro 2 s 6.8
  #  "Fourth tier" - improvements: -0.40 meV to -0.12 meV
  #     hydro 3 p 5
  #     hydro 3 s 3.3
  #     hydro 5 g 15.6
  #     hydro 4 f 17.6
  #     hydro 4 d 14
  # Further basis functions - -0.08 meV and below
  #     hydro 3 s 2.1
  #     hydro 4 d 11.6
  #     hydro 3 p 16
  #     hydro 2 s 17.2
  /afs/ictp.it/public/shared/smr2475/fhi-aims/species_defaults/light/01_H_default
  compute_forces .true.
  final_forces_cleaned .true.
  output dipole
  
  -----------------------------------------------------------------------
  Completed first pass over input file control.in .
  -----------------------------------------------------------------------
  
  
  -----------------------------------------------------------------------
  Parsing geometry.in (first pass over file, find array dimensions only).
  The contents of geometry.in will be repeated verbatim below
  unless switched off by setting 'verbatim_writeout .false.' .
  in the first line of geometry.in .
  -----------------------------------------------------------------------
  
  #
  # temporary structure-file for finite-difference calculation of forces
  # displacement  -0.0020 of \# atom     0 direction     1
  #
  atom    0.00000000   -0.00198164    0.19077151   O
  atom    0.82425584   -0.47587261    0.47423563   H
  atom   -0.82425584   -0.47587261    0.47423563   H
  atom   -0.00000000    0.95172688    0.47446636   H
  
  -----------------------------------------------------------------------
  Completed first pass over input file geometry.in .
  -----------------------------------------------------------------------
  

  Basic array size parameters:
  | Number of species                 :        2
  | Number of atoms                   :        4
  | Max. basis fn. angular momentum   :        2
  | Max. atomic/ionic basis occupied n:        2
  | Max. number of basis fn. types    :        2
  | Max. radial fns per species/type  :        3
  | Max. logarithmic grid size        :     1301
  | Max. radial integration grid size :       36
  | Max. angular integration grid size:      302
  | Max. angular grid division number :        8
  | Radial grid for Hartree potential :     1301
  | Number of spin channels           :        1

------------------------------------------------------------
          Reading file control.in.
------------------------------------------------------------
  XC: Using Perdew-Wang parametrisation of Ceperley-Alder LDA.
  Charged system requested: Charge =   0.100000E+01.
  Spin treatment: No spin polarisation.
  Maximum number of s.-c. iterations  :   100

  Reading configuration options for species H                   .
  | Found nuclear charge :   1.0000
  | Found atomic mass :    1.0079400000000001      amu
  | Found l_max for Hartree potential  :   4
  | Found cutoff potl. onset [A], width [A], scale factor :    3.50000    1.50000    1.00000
  | Threshold for basis-dependent cutoff potential is   0.100000E-03
  | Found data for basic radial integration grid :    24 points, outermost radius =    5.000 A
  | Found multiplier for basic radial grid :   1
  | Found angular grid specification: user-specified.
  | Specified grid contains     5 separate shells.
  | Check grid settings after all constraints further below.
  | Found free-atom valence shell :  1 s   1.000
  | No ionic wave fns used. Skipping ion_occ.
  | Found hydrogenic basis function :  2 s   2.100
  | Found hydrogenic basis function :  2 p   3.500
  Species H                   : Missing cutoff potential type.
  Defaulting to exp(1/x)/(1-x)^2 type cutoff potential.
  Species H : No 'logarithmic' tag. Using default grid for free atom:
  | Default logarithmic grid data [bohr] : 0.1000E-03 0.1000E+03 0.1012E+01
  Species H : On-site basis accuracy parameter (for Gram-Schmidt orthonormalisation) not specified.
  Using default value basis_acc =  0.1000000E-03.
  Species H                   : Using default innermost maximum threshold i_radial=  2 for radial functions.
  Species H                   : Default cutoff onset for free atom density etc. : 0.35000000E+01 AA.
  Species H                   : Basic radial grid will be enhanced according to radial_multiplier =   1, to contain    24 grid points.

  Reading configuration options for species O                   .
  | Found nuclear charge :   8.0000
  | Found atomic mass :    15.999400000000000      amu
  | Found l_max for Hartree potential  :   4
  | Found cutoff potl. onset [A], width [A], scale factor :    3.50000    1.50000    1.00000
  | Threshold for basis-dependent cutoff potential is   0.100000E-03
  | Found data for basic radial integration grid :    36 points, outermost radius =    5.000 A
  | Found multiplier for basic radial grid :   1
  | Found angular grid specification: user-specified.
  | Specified grid contains     5 separate shells.
  | Check grid settings after all constraints further below.
  | Found free-atom valence shell :  2 s   2.000
  | Found free-atom valence shell :  2 p   4.000
  | No ionic wave fns used. Skipping ion_occ.
  | No ionic wave fns used. Skipping ion_occ.
  | Found hydrogenic basis function :  2 p   1.800
  | Found hydrogenic basis function :  3 d   7.600
  | Found hydrogenic basis function :  3 s   6.400
  Species O                   : Missing cutoff potential type.
  Defaulting to exp(1/x)/(1-x)^2 type cutoff potential.
  Species O : No 'logarithmic' tag. Using default grid for free atom:
  | Default logarithmic grid data [bohr] : 0.1000E-03 0.1000E+03 0.1012E+01
  Species O : On-site basis accuracy parameter (for Gram-Schmidt orthonormalisation) not specified.
  Using default value basis_acc =  0.1000000E-03.
  Species O                   : Using default innermost maximum threshold i_radial=  2 for radial functions.
  Species O                   : Default cutoff onset for free atom density etc. : 0.35000000E+01 AA.
  Species O                   : Basic radial grid will be enhanced according to radial_multiplier =   1, to contain    36 grid points.
  Forces will be computed.
  Cleaning forces before final output.
  Dipole moment will be written out.

  Finished reading input file 'control.in'. Consistency checks are next.

  MPI_IN_PLACE appears to work with this MPI implementation.
  | Keeping use_mpi_in_place .true. (see manual).
  Target number of points in a grid batch is not set. Defaulting to  100
  Method for grid partitioning is not set. Defaulting to 'maxmin' partitioning.
  Batch size limit is not set. Defaulting to    200
  By default, will store active basis functions for each batch.
  If in need of memory, prune_basis_once .false. can be used to disable this option.
  communication_type for Hartree potential was not specified.
  Defaulting to calc_hartree .
 * Attention: 
 * You may want to set distributed_spline_storage to .true. in order to save memory.
 * This doesn't harm performance and is perfectly ok unless:
 * - you get error messages in postprocessing (about missing atoms in get_rho_multipole_spl)
 * - you need full spline storage in hirshfeld_analysis
  Defaulting to Pulay charge density mixer.
  Pulay mixer: Number of relevant iterations not set.
  Defaulting to    8 iterations.
  Pulay mixer: Number of initial linear mixing iterations not set.
  Defaulting to    0 iterations.
  Work space size for distributed Hartree potential not set.
  Defaulting to   0.200000E+03 MB.
  Mixing parameter for charge density mixing has not been set.
  Using default: charge_mix_param =     0.0500.
  The mixing parameter will be adjusted in iteration number     2 of the first full s.c.f. cycle only.
  Algorithm-dependent basis array size parameters:
  | n_max_pulay                         :        8
 * Notice: The s.c.f. convergence criterion sc_accuracy_rho was not provided.
 * We used to stop in this case, and ask the user to provide reasonable
 * scf convergence criteria. However, this led some users to employ criteria
 * that led to extremely long run times, e.g., for simple relaxation.
 * We now preset a default value for sc_accuracy_rho if it is not set.
 * You may still wish to check if this setting is too tight or too loose for your needs.
 * Based on n_atoms, FHI-aims chose sc_accuracy_rho =  0.100000E-05 .
  Presetting      1001 iterations before the initial mixing cycle
  is restarted anyway using the sc_init_iter criterion / keyword.
  Presetting a factor      1.000 between actual scf density residual
  and density convergence criterion sc_accuracy_rho below which sc_init_iter
  takes no effect.
 * No s.c.f. convergence criteria (sc_accuracy_*) were provided in control.in.
 * The run will proceed with a reasonable default guess, but please check whether.
 * the s.c.f. cycles seem to take too much or too little time.
  Geometry relaxation not requested: no relaxation will be performed.
  Force calculation: scf convergence accuracy of forces not set.
  Defaulting to 'sc_accuracy_forces not_checked'.
  Handling of forces: Unphysical translation and rotation will be removed from forces.
  No accuracy limit for integral partition fn. given. Defaulting to  0.1000E-14.
  No threshold value for u(r) in integrations given. Defaulting to  0.1000E-05.
  No occupation type (smearing scheme) given. Defaulting to Gaussian broadening, width =  0.1000E-01 eV.
  The width will be adjusted in iteration number     2 of the first full s.c.f. cycle only.
  S.C.F. convergence parameters will be adjusted in iteration number     2 of the first full s.c.f. cycle only.
  No accuracy for occupation numbers given. Defaulting to  0.1000E-12.
  No threshold value for occupation numbers given. Defaulting to  0.0000E+00.
  No accuracy for fermi level given. Defaulting to  0.1000E-19.
  Maximum # of iterations to find E_F not set. Defaulting to  200.
  Preferred method for the eigenvalue solver ('KS_method') not specified in 'control.in'.
  Defaulting to serial version, 'lapack_fast'.
  Will not use alltoall communication since running on < 1024 CPUs.
  Threshold for basis singularities not set.
  Default threshold for basis singularities:  0.1000E-04
  partition_type (choice of integration weights) for integrals was not specified.
  | Using a version of the partition function of Stratmann and coworkers ('stratmann_smoother').
  | At each grid point, the set of atoms used to build the partition table is smoothly restricted to
  | only those atoms whose free-atom density would be non-zero at that grid point.
  Partitioning for Hartree potential was not defined. Using partition_type for integrals.
  | Adjusted default value of keyword multip_moments_threshold to:       0.10000000E-11
  | This value may affect high angular momentum components of the Hartree potential in periodic systems.
  No q(lm)/r^(l+1) cutoff set for long-range Hartree potential.
  | Using default value of  0.100000E-09 .
  | Verify using the multipole_threshold keyword.
  Defaulting to new monopole extrapolation.
  Density update method: automatic selection selected.
------------------------------------------------------------


------------------------------------------------------------
          Reading geometry description geometry.in.
------------------------------------------------------------
 * Warning: Initial charge and total charge of the system are inconsistent.
 * Selected charge in control.in:     1.0000* Sum of initial charges in geometry.in:     0.0000
 * Warning! You did not set the 'relativistic' flag in input file 'control.in'.
 * Since you are not attempting to treat any elements beyond Ca(Z=20), FHI-aims
 * will default to 'relativistic none'.
 * You must ensure that this is really what you want!!
 * For example, DO NOT compute total-energy differences between results from
 * different settings of the 'relativistic' flag.
  Input structure read successfully.
  The structure contains        4 atoms,  and a total of         10.000 electrons.

  Input geometry:
  | No unit cell requested.
  | Atomic structure:
  |       Atom                x [A]            y [A]            z [A]
  |    1: Species O             0.00000000       -0.00198164        0.19077151
  |    2: Species H             0.82425584       -0.47587261        0.47423563
  |    3: Species H            -0.82425584       -0.47587261        0.47423563
  |    4: Species H            -0.00000000        0.95172688        0.47446636
  |

  | The smallest distance between any two atoms is         0.99213016 AA.
  |
  | The first atom of this pair is atom number                      1 .
  | The second atom of this pair is atom number                     2 .

  Number of empty states per atom not set in control.in - providing a guess from actual geometry.
  | Total number of empty states used during s.c.f. cycle:        8
  If you use a very high smearing, use empty_states (per atom!) in control.in to increase this value.

  Structure-dependent array size parameters: 
  | Maximum number of distinct radial functions  :        9
  | Maximum number of basis functions            :       29
  | Number of Kohn-Sham states (occupied + empty):       13
------------------------------------------------------------

------------------------------------------------------------
          Preparing all fixed parts of the calculation.
------------------------------------------------------------
  Determining machine precision:
     2.2250738585072014E-308
  Setting up grids for atomic and cluster calculations.

  Creating wave function, potential, and density for free atoms.

  Species: H

  List of occupied orbitals and eigenvalues:
    n    l              occ      energy [Ha]    energy [eV]
    1    0           1.0000        -0.232375        -6.3233


  Species: O

  List of occupied orbitals and eigenvalues:
    n    l              occ      energy [Ha]    energy [eV]
    1    0           2.0000       -18.757744      -510.4242
    2    0           2.0000        -0.870917       -23.6989
    2    1           4.0000        -0.337950        -9.1961

  Creating fixed part of basis set: Ionic, confined, hydrogenic.

  H                    hydrogenic:

  List of hydrogenic basis orbitals: 
    n    l      effective z      eigenvalue [eV]  inner max. [A]     outer max. [A]     outer radius [A]   
    2    0         2.100000       -14.9728           0.193243           1.317208           4.583499
    2    1         3.500000       -41.6669           0.602369           0.602369           3.723403


  O                    hydrogenic:

  List of hydrogenic basis orbitals: 
    n    l      effective z      eigenvalue [eV]  inner max. [A]     outer max. [A]     outer radius [A]   
    2    1         1.800000       -10.9749           1.164242           1.164242           4.578029
    3    2         7.600000       -87.3180           0.624125           0.624125           3.251020
    3    0         6.400000       -61.9207           0.061167           1.081902           4.001998


  Adding cutoff potential to free-atom effective potential.
  Creating atomic-like basis functions for current effective potential.

  Species H                   :

  List of atomic basis orbitals and eigenvalues:
    n    l      energy [Ha]    energy [eV]    outer radius [A]
    1    0        -0.232375        -6.3233       4.527807


  Species O                   :

  List of atomic basis orbitals and eigenvalues:
    n    l      energy [Ha]    energy [eV]    outer radius [A]
    1    0       -18.757744      -510.4242       1.433179
    2    0        -0.870917       -23.6989       4.413171
    2    1        -0.337950        -9.1961       4.522403

  Assembling full basis from fixed parts.
  | Species H :   atomic orbital   1 s accepted.
  | Species H :    hydro orbital   2 s accepted.
  | Species H :    hydro orbital   2 p accepted.
  | Species O :   atomic orbital   1 s accepted.
  | Species O :    hydro orbital   3 s accepted.
  | Species O :   atomic orbital   2 s accepted.
  | Species O :   atomic orbital   2 p accepted.
  | Species O :    hydro orbital   2 p accepted.
  | Species O :    hydro orbital   3 d accepted.

  Basis size parameters after reduction:
  | Total number of radial functions:        9
  | Total number of basis functions :       29

  Per-task memory consumption for arrays in subroutine allocate_ext:
  |           2.249476MB.
  Testing on-site integration grid accuracy.
  |  Species  Function  <phi|h_atom|phi> (log., in eV)  <phi|h_atom|phi> (rad., in eV)
           1        1                 -6.3245358373                 -6.3232436907
           1        2                 14.1326137532                 14.1384481100
           1        3                 25.3627025200                 25.3628451197
           2        4               -510.4241781769               -510.4240769412
           2        5                 14.9072942218                 14.9072945276
           2        6                -21.2004736467                -21.2005650544
           2        7                 -9.1962086499                 -9.1963509828
           2        8                  8.1896755011                  8.1702200086
           2        9                 45.7920584945                 45.7920228528

  Preparing densities etc. for the partition functions (integrals / Hartree potential).

  Preparations completed.
  max(cpu_time)          :      0.050 s.
  Wall clock time (cpu1) :      0.050 s.
------------------------------------------------------------

------------------------------------------------------------
          Begin self-consistency loop: Initialization.

          Date     :  20190509, Time     :  114701.962
------------------------------------------------------------

  Initializing index lists of integration centers etc. from given atomic structure:
  | Number of centers in hartree potential         :         4
  | Number of centers in hartree multipole         :         4
  | Number of centers in electron density summation:         4
  | Number of centers in basis integrals           :         4
  | Number of centers in integrals                 :         4
  | Number of centers in hamiltonian               :         4
  Partitioning the integration grid into batches with maxmin method.
  | Maximal weight for a single point:     1.000
  | Minimal weight for a single point:     0.000
  | Number of batches:      256
  | Maximal batch size:      83
  | Minimal batch size:      78
  | Average batch size:      80.719
  | Standard deviation of batch sizes:       1.484
  Initializing partition tables, free-atom densities, potentials, etc. across the integration grid (initialize_grid_storage).
  | initialize_grid_storage: Actual outermost partition radius vs. multipole_radius_free
  | (-- VB: in principle, multipole_radius_free should be larger, hence this output)
  | Species        1: Confinement radius =              4.999999999999999 AA, multipole_radius_free =              5.054417573612229 AA.
  | Species        1: outer_partition_radius set to              5.054417573612229 AA .
  | Species        2: Confinement radius =              4.999999999999999 AA, multipole_radius_free =              5.048384829883283 AA.
  | Species        2: outer_partition_radius set to              5.048384829883283 AA .
  | Original list of interatomic distances with           4 x          4 entries is created.
  | Net number of integration points:    20664
  | of which are non-zero points    :    18388
  Renormalizing the initial density to the exact electron count on the 3D integration grid.
  | Initial density: Formal number of electrons (from input files) :      11.0000000000
  | Integrated number of electrons on 3D grid     :      10.9999414247
  | Charge integration error                      :      -0.0000585753
  | Normalization factor for density and gradient :       1.0000053251
  Obtaining max. number of non-zero basis functions in each batch (get_n_compute_maxes).
  | Maximal number of non-zero basis functions:       29 in task     0
  Selecting the method for density update.
  Loop over occupied states selected for charge density update.
  Allocating        0.003 MB for KS_eigenvector
  Integrating Hamiltonian matrix: batch-based integration.
  Time summed over all CPUs for integration: real work        0.029 s, elapsed        0.029 s
  Integrating overlap matrix.
  Time summed over all CPUs for integration: real work        0.014 s, elapsed        0.014 s

  Updating Kohn-Sham eigenvalues, eigenvectors, occupation numbers, and Fermi level.
  Solving generalized eigenproblem
  Updating Kohn-Sham eigenvalues and eigenfunctions.
  Transforming overlap matrix and checking for singularities.
  Overlap matrix is nonsingular:
  | Lowest eigenvalue:  0.147569E-01
  Solving real generalised eigenvalue problem by standard LAPACK (fast)

  Obtaining occupation numbers and chemical potential using ELSI.
  | Chemical potential (Fermi level):    -6.77949469eV
  Writing Kohn-Sham eigenvalues.

  State    Occupation    Eigenvalue [Ha]    Eigenvalue [eV]
      1       2.00000         -18.911546         -514.60935
      2       2.00000          -1.150934          -31.31850
      3       2.00000          -0.671641          -18.27627
      4       2.00000          -0.670291          -18.23955
      5       2.00000          -0.507508          -13.80998
      6       0.00000          -0.090461           -2.46156
      7       0.00000           0.001995            0.05428
      8       0.00000           0.002889            0.07862
      9       0.00000           0.199730            5.43492
     10       0.00000           0.264726            7.20357
     11       0.00000           0.264808            7.20579
     12       0.00000           0.466902           12.70505
     13       0.00000           0.668681           18.19574

  Highest occupied state (VBM) at    -13.80998386 eV
  | Occupation number:      2.00000000

  Lowest unoccupied state (CBM) at    -2.46156344 eV
  | Occupation number:      0.00000000

  Overall HOMO-LUMO gap:     11.34842041 eV.
  Calculating total energy contributions from superposition of free atom densities.

  Total energy components:
  | Sum of eigenvalues            :         -43.82383884 Ha       -1192.50732905 eV
  | XC energy correction          :          -8.86347428 Ha        -241.18740674 eV
  | XC potential correction       :          11.67113306 Ha         317.58768932 eV
  | Free-atom electrostatic energy:         -35.29704955 Ha        -960.48158715 eV
  | Hartree energy correction     :          -0.00000000 Ha          -0.00000000 eV
  | Entropy correction            :          -0.00000000 Ha          -0.00000000 eV
  | ---------------------------
  | Total energy                  :         -76.31322962 Ha       -2076.58863362 eV
  | Total energy, T -> 0          :         -76.31322962 Ha       -2076.58863362 eV  <-- do not rely on this value for anything but (periodic) metals
  | Electronic free energy        :         -76.31322962 Ha       -2076.58863362 eV

  Derived energy quantities:
  | Kinetic energy                :          75.66381705 Ha        2058.91721837 eV
  | Electrostatic energy          :        -143.11357238 Ha       -3894.31844525 eV
  | Energy correction for multipole
  | error in Hartree potential    :           0.00000000 Ha           0.00000000 eV
  | Sum of eigenvalues per atom                           :        -298.12683226 eV
  | Total energy (T->0) per atom                          :        -519.14715841 eV  <-- do not rely on this value for anything but (periodic) metals
  | Electronic free energy per atom                       :        -519.14715841 eV
  Initialize hartree_potential_storage
  Max. number of atoms included in rho_multipole:            4

  End scf initialization - timings             :  max(cpu_time)    wall_clock(cpu1)
  | Time for scf. initialization               :        0.085 s           0.084 s
  | Boundary condition initialization          :        0.000 s           0.000 s
  | Integration                                :        0.044 s           0.043 s
  | Solution of K.-S. eqns.                    :        0.001 s           0.001 s
  | Grid partitioning                          :        0.014 s           0.014 s
  | Preloading free-atom quantities on grid    :        0.001 s           0.001 s
  | Free-atom superposition energy             :        0.012 s           0.012 s
  | Total energy evaluation                    :        0.000 s           0.000 s

  Partial memory accounting:
  | Current value for overall tracked memory usage on task 0  :           0.017 MB
  | Peak value for overall tracked memory usage on task 0     :           0.075 MB after allocating wave
  | Largest tracked array allocation on task 0 so far         :           0.019 MB  when allocating H_times_psi
  Note:  These values currently only include a subset of arrays which are explicitly tracked.
  The "true" memory usage will be greater.
------------------------------------------------------------

------------------------------------------------------------
          Begin self-consistency iteration #    1

  Date     :  20190509, Time     :  114702.046
------------------------------------------------------------
  Evaluating new KS density.
  Integration grid: deviation in total charge (<rho> - N_e) =   1.065814E-14
  Pulay mixing of updated and previous charge densities.

  Evaluating partitioned Hartree potential by multipole expansion.
  | Analytical far-field extrapolation by fixed multipoles:
  | Hartree multipole sum: apparent total charge =   0.499215E-01
  Summing up the Hartree potential.
  Time summed over all CPUs for potential: real work        0.017 s, elapsed        0.017 s
  | RMS charge density error from multipole expansion :   0.486136E-03

  Integrating Hamiltonian matrix: batch-based integration.
  Time summed over all CPUs for integration: real work        0.030 s, elapsed        0.031 s

  Updating Kohn-Sham eigenvalues, eigenvectors, occupation numbers, and Fermi level.
  Solving generalized eigenproblem
  Updating Kohn-Sham eigenvalues and eigenfunctions.
  Solving real generalised eigenvalue problem by standard LAPACK (fast)

  Obtaining occupation numbers and chemical potential using ELSI.
  | Chemical potential (Fermi level):    -6.99745266eV
  Writing Kohn-Sham eigenvalues.

  State    Occupation    Eigenvalue [Ha]    Eigenvalue [eV]
      1       2.00000         -18.901995         -514.34946
      2       2.00000          -1.155079          -31.43131
      3       2.00000          -0.677070          -18.42402
      4       2.00000          -0.675733          -18.38762
      5       2.00000          -0.510149          -13.88185
      6       0.00000          -0.100764           -2.74192
      7       0.00000          -0.007650           -0.20816
      8       0.00000          -0.006734           -0.18324
      9       0.00000           0.192604            5.24101
     10       0.00000           0.254867            6.93527
     11       0.00000           0.254934            6.93711
     12       0.00000           0.456263           12.41556
     13       0.00000           0.659808           17.95429

  Highest occupied state (VBM) at    -13.88184869 eV
  | Occupation number:      2.00000000

  Lowest unoccupied state (CBM) at    -2.74192024 eV
  | Occupation number:      0.00000000

  Overall HOMO-LUMO gap:     11.13992846 eV.

  Total energy components:
  | Sum of eigenvalues            :         -43.84005235 Ha       -1192.94852094 eV
  | XC energy correction          :          -8.86661954 Ha        -241.27299361 eV
  | XC potential correction       :          11.67549789 Ha         317.70646237 eV
  | Free-atom electrostatic energy:         -35.29704955 Ha        -960.48158715 eV
  | Hartree energy correction     :           0.03279362 Ha           0.89235993 eV
  | Entropy correction            :          -0.00000000 Ha          -0.00000000 eV
  | ---------------------------
  | Total energy                  :         -76.29542993 Ha       -2076.10427939 eV
  | Total energy, T -> 0          :         -76.29542993 Ha       -2076.10427939 eV  <-- do not rely on this value for anything but (periodic) metals
  | Electronic free energy        :         -76.29542993 Ha       -2076.10427939 eV

  Derived energy quantities:
  | Kinetic energy                :          75.75290481 Ha        2061.34141979 eV
  | Electrostatic energy          :        -143.18171520 Ha       -3896.17270558 eV
  | Energy correction for multipole
  | error in Hartree potential    :           0.00050730 Ha           0.01380427 eV
  | Sum of eigenvalues per atom                           :        -298.23713023 eV
  | Total energy (T->0) per atom                          :        -519.02606985 eV  <-- do not rely on this value for anything but (periodic) metals
  | Electronic free energy per atom                       :        -519.02606985 eV

  Self-consistency convergence accuracy:
  | Change of charge density      :  0.2573E+00
  | Change of sum of eigenvalues  : -0.4412E+00 eV
  | Change of total energy        :  0.4844E+00 eV

  End self-consistency iteration #     1       :  max(cpu_time)    wall_clock(cpu1)
  | Time for this iteration                    :        0.062 s           0.063 s
  | Charge density update                      :        0.013 s           0.013 s
  | Density mixing                             :        0.000 s           0.000 s
  | Hartree multipole update                   :        0.001 s           0.002 s
  | Hartree multipole summation                :        0.018 s           0.017 s
  | Integration                                :        0.030 s           0.031 s
  | Solution of K.-S. eqns.                    :        0.000 s           0.000 s
  | Total energy evaluation                    :        0.000 s           0.000 s

  Partial memory accounting:
  | Current value for overall tracked memory usage on task 0  :           0.017 MB
  | Peak value for overall tracked memory usage on task 0     :           0.082 MB after allocating wave
  | Largest tracked array allocation on task 0 so far         :           0.019 MB  when allocating H_times_psi
  Note:  These values currently only include a subset of arrays which are explicitly tracked.
  The "true" memory usage will be greater.
------------------------------------------------------------

------------------------------------------------------------
          Begin self-consistency iteration #    2

  Date     :  20190509, Time     :  114702.109
------------------------------------------------------------
  Evaluating new KS density.
  Integration grid: deviation in total charge (<rho> - N_e) =  -1.953993E-14
  Pulay mixing of updated and previous charge densities.

  Evaluating partitioned Hartree potential by multipole expansion.
  | Analytical far-field extrapolation by fixed multipoles:
  | Hartree multipole sum: apparent total charge =   0.436441E+00
  Summing up the Hartree potential.
  Time summed over all CPUs for potential: real work        0.017 s, elapsed        0.017 s
  | RMS charge density error from multipole expansion :   0.419039E-02

  Integrating Hamiltonian matrix: batch-based integration.
  Time summed over all CPUs for integration: real work        0.028 s, elapsed        0.028 s

  Updating Kohn-Sham eigenvalues, eigenvectors, occupation numbers, and Fermi level.
  Solving generalized eigenproblem
  Updating Kohn-Sham eigenvalues and eigenfunctions.
  Solving real generalised eigenvalue problem by standard LAPACK (fast)

  Obtaining occupation numbers and chemical potential using ELSI.
  | Chemical potential (Fermi level):    -8.71823016eV
  Highest occupied state (VBM) at    -14.67013138 eV
  | Occupation number:      2.00000000

  Lowest unoccupied state (CBM) at    -4.88010915 eV
  | Occupation number:      0.00000000

  Overall HOMO-LUMO gap:      9.79002223 eV.

  Checking to see if s.c.f. parameters should be adjusted.
  The system likely has a gap. Increased the default Pulay mixing parameter (charge_mix_param). Value:   0.200000 .
  Kept the default occupation width. Value:   0.010000 eV.

  Total energy components:
  | Sum of eigenvalues            :         -44.06455532 Ha       -1199.05755768 eV
  | XC energy correction          :          -8.88988669 Ha        -241.90612478 eV
  | XC potential correction       :          11.70778360 Ha         318.58500113 eV
  | Free-atom electrostatic energy:         -35.29704955 Ha        -960.48158715 eV
  | Hartree energy correction     :           0.33530139 Ha           9.12401515 eV
  | Entropy correction            :          -0.00000000 Ha          -0.00000000 eV
  | ---------------------------
  | Total energy                  :         -76.20840657 Ha       -2073.73625334 eV
  | Total energy, T -> 0          :         -76.20840657 Ha       -2073.73625334 eV  <-- do not rely on this value for anything but (periodic) metals
  | Electronic free energy        :         -76.20840657 Ha       -2073.73625334 eV

  Derived energy quantities:
  | Kinetic energy                :          76.28525717 Ha        2075.82746465 eV
  | Electrostatic energy          :        -143.60377706 Ha       -3907.65759320 eV
  | Energy correction for multipole
  | error in Hartree potential    :           0.00418499 Ha           0.11387949 eV
  | Sum of eigenvalues per atom                           :        -299.76438942 eV
  | Total energy (T->0) per atom                          :        -518.43406333 eV  <-- do not rely on this value for anything but (periodic) metals
  | Electronic free energy per atom                       :        -518.43406333 eV

  Self-consistency convergence accuracy:
  | Change of charge density      :  0.2324E+00
  | Change of sum of eigenvalues  : -0.6109E+01 eV
  | Change of total energy        :  0.2368E+01 eV

  End self-consistency iteration #     2       :  max(cpu_time)    wall_clock(cpu1)
  | Time for this iteration                    :        0.059 s           0.059 s
  | Charge density update                      :        0.012 s           0.012 s
  | Density mixing                             :        0.000 s           0.000 s
  | Hartree multipole update                   :        0.001 s           0.001 s
  | Hartree multipole summation                :        0.017 s           0.017 s
  | Integration                                :        0.028 s           0.028 s
  | Solution of K.-S. eqns.                    :        0.000 s           0.001 s
  | Total energy evaluation                    :        0.000 s           0.000 s

  Partial memory accounting:
  | Current value for overall tracked memory usage on task 0  :           0.018 MB
  | Peak value for overall tracked memory usage on task 0     :           0.083 MB after allocating wave
  | Largest tracked array allocation on task 0 so far         :           0.019 MB  when allocating H_times_psi
  Note:  These values currently only include a subset of arrays which are explicitly tracked.
  The "true" memory usage will be greater.
------------------------------------------------------------

------------------------------------------------------------
          Begin self-consistency iteration #    3

  Date     :  20190509, Time     :  114702.168
------------------------------------------------------------
  Evaluating new KS density.
  Integration grid: deviation in total charge (<rho> - N_e) =   7.105427E-15
  Pulay mixing of updated and previous charge densities.

  Evaluating partitioned Hartree potential by multipole expansion.
  | Analytical far-field extrapolation by fixed multipoles:
  | Hartree multipole sum: apparent total charge =   0.853539E+00
  Summing up the Hartree potential.
  Time summed over all CPUs for potential: real work        0.017 s, elapsed        0.017 s
  | RMS charge density error from multipole expansion :   0.782887E-02

  Integrating Hamiltonian matrix: batch-based integration.
  Time summed over all CPUs for integration: real work        0.029 s, elapsed        0.029 s

  Updating Kohn-Sham eigenvalues, eigenvectors, occupation numbers, and Fermi level.
  Solving generalized eigenproblem
  Updating Kohn-Sham eigenvalues and eigenfunctions.
  Solving real generalised eigenvalue problem by standard LAPACK (fast)

  Obtaining occupation numbers and chemical potential using ELSI.
  | Chemical potential (Fermi level):   -11.62702133eV
  Highest occupied state (VBM) at    -18.15700998 eV
  | Occupation number:      2.00000000

  Lowest unoccupied state (CBM) at    -7.59458867 eV
  | Occupation number:      0.00000000

  Overall HOMO-LUMO gap:     10.56242132 eV.

  Total energy components:
  | Sum of eigenvalues            :         -45.45068149 Ha       -1236.77596981 eV
  | XC energy correction          :          -8.79534567 Ha        -239.33353281 eV
  | XC potential correction       :          11.58433106 Ha         315.22568662 eV
  | Free-atom electrostatic energy:         -35.29704955 Ha        -960.48158715 eV
  | Hartree energy correction     :           1.78253501 Ha          48.50524567 eV
  | Entropy correction            :          -0.00000000 Ha          -0.00000000 eV
  | ---------------------------
  | Total energy                  :         -76.17621064 Ha       -2072.86015748 eV
  | Total energy, T -> 0          :         -76.17621064 Ha       -2072.86015748 eV  <-- do not rely on this value for anything but (periodic) metals
  | Electronic free energy        :         -76.17621064 Ha       -2072.86015748 eV

  Derived energy quantities:
  | Kinetic energy                :          75.81906811 Ha        2063.14181488 eV
  | Electrostatic energy          :        -143.19993309 Ha       -3896.66843955 eV
  | Energy correction for multipole
  | error in Hartree potential    :           0.00574648 Ha           0.15636979 eV
  | Sum of eigenvalues per atom                           :        -309.19399245 eV
  | Total energy (T->0) per atom                          :        -518.21503937 eV  <-- do not rely on this value for anything but (periodic) metals
  | Electronic free energy per atom                       :        -518.21503937 eV

  Self-consistency convergence accuracy:
  | Change of charge density      :  0.1082E+00
  | Change of sum of eigenvalues  : -0.3772E+02 eV
  | Change of total energy        :  0.8761E+00 eV

  End self-consistency iteration #     3       :  max(cpu_time)    wall_clock(cpu1)
  | Time for this iteration                    :        0.060 s           0.060 s
  | Charge density update                      :        0.012 s           0.011 s
  | Density mixing                             :        0.000 s           0.001 s
  | Hartree multipole update                   :        0.001 s           0.001 s
  | Hartree multipole summation                :        0.017 s           0.017 s
  | Integration                                :        0.029 s           0.029 s
  | Solution of K.-S. eqns.                    :        0.000 s           0.000 s
  | Total energy evaluation                    :        0.000 s           0.001 s

  Partial memory accounting:
  | Current value for overall tracked memory usage on task 0  :           0.018 MB
  | Peak value for overall tracked memory usage on task 0     :           0.083 MB after allocating wave
  | Largest tracked array allocation on task 0 so far         :           0.019 MB  when allocating H_times_psi
  Note:  These values currently only include a subset of arrays which are explicitly tracked.
  The "true" memory usage will be greater.
------------------------------------------------------------

------------------------------------------------------------
          Begin self-consistency iteration #    4

  Date     :  20190509, Time     :  114702.228
------------------------------------------------------------
  Evaluating new KS density.
  Integration grid: deviation in total charge (<rho> - N_e) =  -8.881784E-15
  Pulay mixing of updated and previous charge densities.

  Evaluating partitioned Hartree potential by multipole expansion.
  | Analytical far-field extrapolation by fixed multipoles:
  | Hartree multipole sum: apparent total charge =   0.100711E+01
  Summing up the Hartree potential.
  Time summed over all CPUs for potential: real work        0.017 s, elapsed        0.017 s
  | RMS charge density error from multipole expansion :   0.925430E-02

  Integrating Hamiltonian matrix: batch-based integration.
  Time summed over all CPUs for integration: real work        0.028 s, elapsed        0.028 s

  Updating Kohn-Sham eigenvalues, eigenvectors, occupation numbers, and Fermi level.
  Solving generalized eigenproblem
  Updating Kohn-Sham eigenvalues and eigenfunctions.
  Solving real generalised eigenvalue problem by standard LAPACK (fast)

  Obtaining occupation numbers and chemical potential using ELSI.
  | Chemical potential (Fermi level):   -12.34393932eV
  Highest occupied state (VBM) at    -18.92630481 eV
  | Occupation number:      2.00000000

  Lowest unoccupied state (CBM) at    -8.35857450 eV
  | Occupation number:      0.00000000

  Overall HOMO-LUMO gap:     10.56773031 eV.

  Total energy components:
  | Sum of eigenvalues            :         -45.73808481 Ha       -1244.59661197 eV
  | XC energy correction          :          -8.79145826 Ha        -239.22775100 eV
  | XC potential correction       :          11.57966753 Ha         315.09878558 eV
  | Free-atom electrostatic energy:         -35.29704955 Ha        -960.48158715 eV
  | Hartree energy correction     :           2.07304743 Ha          56.41049062 eV
  | Entropy correction            :          -0.00000000 Ha          -0.00000000 eV
  | ---------------------------
  | Total energy                  :         -76.17387766 Ha       -2072.79667392 eV
  | Total energy, T -> 0          :         -76.17387766 Ha       -2072.79667392 eV  <-- do not rely on this value for anything but (periodic) metals
  | Electronic free energy        :         -76.17387766 Ha       -2072.79667392 eV

  Derived energy quantities:
  | Kinetic energy                :          75.80082729 Ha        2062.64545692 eV
  | Electrostatic energy          :        -143.18324670 Ha       -3896.21437983 eV
  | Energy correction for multipole
  | error in Hartree potential    :           0.00666174 Ha           0.18127507 eV
  | Sum of eigenvalues per atom                           :        -311.14915299 eV
  | Total energy (T->0) per atom                          :        -518.19916848 eV  <-- do not rely on this value for anything but (periodic) metals
  | Electronic free energy per atom                       :        -518.19916848 eV

  Self-consistency convergence accuracy:
  | Change of charge density      :  0.4483E-01
  | Change of sum of eigenvalues  : -0.7821E+01 eV
  | Change of total energy        :  0.6348E-01 eV

  End self-consistency iteration #     4       :  max(cpu_time)    wall_clock(cpu1)
  | Time for this iteration                    :        0.059 s           0.059 s
  | Charge density update                      :        0.011 s           0.011 s
  | Density mixing                             :        0.000 s           0.000 s
  | Hartree multipole update                   :        0.001 s           0.002 s
  | Hartree multipole summation                :        0.017 s           0.017 s
  | Integration                                :        0.029 s           0.028 s
  | Solution of K.-S. eqns.                    :        0.000 s           0.000 s
  | Total energy evaluation                    :        0.000 s           0.000 s

  Partial memory accounting:
  | Current value for overall tracked memory usage on task 0  :           0.019 MB
  | Peak value for overall tracked memory usage on task 0     :           0.083 MB after allocating wave
  | Largest tracked array allocation on task 0 so far         :           0.019 MB  when allocating H_times_psi
  Note:  These values currently only include a subset of arrays which are explicitly tracked.
  The "true" memory usage will be greater.
------------------------------------------------------------

------------------------------------------------------------
          Begin self-consistency iteration #    5

  Date     :  20190509, Time     :  114702.287
------------------------------------------------------------
  Evaluating new KS density.
  Integration grid: deviation in total charge (<rho> - N_e) =  -1.065814E-14
  Pulay mixing of updated and previous charge densities.

  Evaluating partitioned Hartree potential by multipole expansion.
  | Analytical far-field extrapolation by fixed multipoles:
  | Hartree multipole sum: apparent total charge =   0.101051E+01
  Summing up the Hartree potential.
  Time summed over all CPUs for potential: real work        0.016 s, elapsed        0.017 s
  | RMS charge density error from multipole expansion :   0.935302E-02

  Integrating Hamiltonian matrix: batch-based integration.
  Time summed over all CPUs for integration: real work        0.029 s, elapsed        0.029 s

  Updating Kohn-Sham eigenvalues, eigenvectors, occupation numbers, and Fermi level.
  Solving generalized eigenproblem
  Updating Kohn-Sham eigenvalues and eigenfunctions.
  Solving real generalised eigenvalue problem by standard LAPACK (fast)

  Obtaining occupation numbers and chemical potential using ELSI.
  | Chemical potential (Fermi level):   -12.18316119eV
  Highest occupied state (VBM) at    -18.70848914 eV
  | Occupation number:      2.00000000

  Lowest unoccupied state (CBM) at    -8.23765943 eV
  | Occupation number:      0.00000000

  Overall HOMO-LUMO gap:     10.47082971 eV.

  Total energy components:
  | Sum of eigenvalues            :         -45.64376132 Ha       -1242.02993928 eV
  | XC energy correction          :          -8.80503315 Ha        -239.59714255 eV
  | XC potential correction       :          11.59755188 Ha         315.58544339 eV
  | Free-atom electrostatic energy:         -35.29704955 Ha        -960.48158715 eV
  | Hartree energy correction     :           1.97451459 Ha          53.72927583 eV
  | Entropy correction            :          -0.00000000 Ha          -0.00000000 eV
  | ---------------------------
  | Total energy                  :         -76.17377755 Ha       -2072.79394976 eV
  | Total energy, T -> 0          :         -76.17377755 Ha       -2072.79394976 eV  <-- do not rely on this value for anything but (periodic) metals
  | Electronic free energy        :         -76.17377755 Ha       -2072.79394976 eV

  Derived energy quantities:
  | Kinetic energy                :          75.84851211 Ha        2063.94302666 eV
  | Electrostatic energy          :        -143.21725651 Ha       -3897.13983388 eV
  | Energy correction for multipole
  | error in Hartree potential    :           0.00646051 Ha           0.17579939 eV
  | Sum of eigenvalues per atom                           :        -310.50748482 eV
  | Total energy (T->0) per atom                          :        -518.19848744 eV  <-- do not rely on this value for anything but (periodic) metals
  | Electronic free energy per atom                       :        -518.19848744 eV

  Self-consistency convergence accuracy:
  | Change of charge density      :  0.1072E-01
  | Change of sum of eigenvalues  :  0.2567E+01 eV
  | Change of total energy        :  0.2724E-02 eV

  End self-consistency iteration #     5       :  max(cpu_time)    wall_clock(cpu1)
  | Time for this iteration                    :        0.059 s           0.059 s
  | Charge density update                      :        0.011 s           0.011 s
  | Density mixing                             :        0.001 s           0.000 s
  | Hartree multipole update                   :        0.001 s           0.002 s
  | Hartree multipole summation                :        0.017 s           0.017 s
  | Integration                                :        0.029 s           0.029 s
  | Solution of K.-S. eqns.                    :        0.000 s           0.000 s
  | Total energy evaluation                    :        0.000 s           0.000 s

  Partial memory accounting:
  | Current value for overall tracked memory usage on task 0  :           0.019 MB
  | Peak value for overall tracked memory usage on task 0     :           0.083 MB after allocating wave
  | Largest tracked array allocation on task 0 so far         :           0.019 MB  when allocating H_times_psi
  Note:  These values currently only include a subset of arrays which are explicitly tracked.
  The "true" memory usage will be greater.
------------------------------------------------------------

------------------------------------------------------------
          Begin self-consistency iteration #    6

  Date     :  20190509, Time     :  114702.346
------------------------------------------------------------
  Evaluating new KS density.
  Integration grid: deviation in total charge (<rho> - N_e) =   1.421085E-14
  Pulay mixing of updated and previous charge densities.

  Evaluating partitioned Hartree potential by multipole expansion.
  | Analytical far-field extrapolation by fixed multipoles:
  | Hartree multipole sum: apparent total charge =   0.100144E+01
  Summing up the Hartree potential.
  Time summed over all CPUs for potential: real work        0.017 s, elapsed        0.017 s
  | RMS charge density error from multipole expansion :   0.925969E-02

  Integrating Hamiltonian matrix: batch-based integration.
  Time summed over all CPUs for integration: real work        0.028 s, elapsed        0.028 s

  Updating Kohn-Sham eigenvalues, eigenvectors, occupation numbers, and Fermi level.
  Solving generalized eigenproblem
  Updating Kohn-Sham eigenvalues and eigenfunctions.
  Solving real generalised eigenvalue problem by standard LAPACK (fast)

  Obtaining occupation numbers and chemical potential using ELSI.
  | Chemical potential (Fermi level):   -12.21266764eV
  Highest occupied state (VBM) at    -18.75859356 eV
  | Occupation number:      2.00000000

  Lowest unoccupied state (CBM) at    -8.23794501 eV
  | Occupation number:      0.00000000

  Overall HOMO-LUMO gap:     10.52064855 eV.

  Total energy components:
  | Sum of eigenvalues            :         -45.66919663 Ha       -1242.72206942 eV
  | XC energy correction          :          -8.79983939 Ha        -239.45581311 eV
  | XC potential correction       :          11.59066940 Ha         315.39816157 eV
  | Free-atom electrostatic energy:         -35.29704955 Ha        -960.48158715 eV
  | Hartree energy correction     :           2.00166197 Ha          54.46799360 eV
  | Entropy correction            :          -0.00000000 Ha          -0.00000000 eV
  | ---------------------------
  | Total energy                  :         -76.17375421 Ha       -2072.79331450 eV
  | Total energy, T -> 0          :         -76.17375421 Ha       -2072.79331450 eV  <-- do not rely on this value for anything but (periodic) metals
  | Electronic free energy        :         -76.17375421 Ha       -2072.79331450 eV

  Derived energy quantities:
  | Kinetic energy                :          75.81805912 Ha        2063.11435884 eV
  | Electrostatic energy          :        -143.19197394 Ha       -3896.45186023 eV
  | Energy correction for multipole
  | error in Hartree potential    :           0.00635459 Ha           0.17291712 eV
  | Sum of eigenvalues per atom                           :        -310.68051735 eV
  | Total energy (T->0) per atom                          :        -518.19832863 eV  <-- do not rely on this value for anything but (periodic) metals
  | Electronic free energy per atom                       :        -518.19832863 eV

  Self-consistency convergence accuracy:
  | Change of charge density      :  0.7276E-02
  | Change of sum of eigenvalues  : -0.6921E+00 eV
  | Change of total energy        :  0.6353E-03 eV

  End self-consistency iteration #     6       :  max(cpu_time)    wall_clock(cpu1)
  | Time for this iteration                    :        0.060 s           0.060 s
  | Charge density update                      :        0.011 s           0.011 s
  | Density mixing                             :        0.001 s           0.001 s
  | Hartree multipole update                   :        0.001 s           0.002 s
  | Hartree multipole summation                :        0.017 s           0.017 s
  | Integration                                :        0.029 s           0.028 s
  | Solution of K.-S. eqns.                    :        0.000 s           0.000 s
  | Total energy evaluation                    :        0.000 s           0.000 s

  Partial memory accounting:
  | Current value for overall tracked memory usage on task 0  :           0.019 MB
  | Peak value for overall tracked memory usage on task 0     :           0.084 MB after allocating wave
  | Largest tracked array allocation on task 0 so far         :           0.019 MB  when allocating H_times_psi
  Note:  These values currently only include a subset of arrays which are explicitly tracked.
  The "true" memory usage will be greater.
------------------------------------------------------------

------------------------------------------------------------
          Begin self-consistency iteration #    7

  Date     :  20190509, Time     :  114702.406
------------------------------------------------------------
  Evaluating new KS density.
  Integration grid: deviation in total charge (<rho> - N_e) =   8.881784E-15
  Pulay mixing of updated and previous charge densities.

  Evaluating partitioned Hartree potential by multipole expansion.
  | Analytical far-field extrapolation by fixed multipoles:
  | Hartree multipole sum: apparent total charge =   0.999108E+00
  Summing up the Hartree potential.
  Time summed over all CPUs for potential: real work        0.017 s, elapsed        0.017 s
  | RMS charge density error from multipole expansion :   0.925359E-02

  Integrating Hamiltonian matrix: batch-based integration.
  Time summed over all CPUs for integration: real work        0.029 s, elapsed        0.029 s

  Updating Kohn-Sham eigenvalues, eigenvectors, occupation numbers, and Fermi level.
  Solving generalized eigenproblem
  Updating Kohn-Sham eigenvalues and eigenfunctions.
  Solving real generalised eigenvalue problem by standard LAPACK (fast)

  Obtaining occupation numbers and chemical potential using ELSI.
  | Chemical potential (Fermi level):   -12.16043765eV
  Highest occupied state (VBM) at    -18.67934097 eV
  | Occupation number:      2.00000000

  Lowest unoccupied state (CBM) at    -8.19392583 eV
  | Occupation number:      0.00000000

  Overall HOMO-LUMO gap:     10.48541515 eV.

  Total energy components:
  | Sum of eigenvalues            :         -45.63876845 Ha       -1241.89407650 eV
  | XC energy correction          :          -8.80337989 Ha        -239.55215517 eV
  | XC potential correction       :          11.59532148 Ha         315.52475126 eV
  | Free-atom electrostatic energy:         -35.29704955 Ha        -960.48158715 eV
  | Hartree energy correction     :           1.97013684 Ha          53.61015104 eV
  | Entropy correction            :          -0.00000000 Ha          -0.00000000 eV
  | ---------------------------
  | Total energy                  :         -76.17373958 Ha       -2072.79291652 eV
  | Total energy, T -> 0          :         -76.17373958 Ha       -2072.79291652 eV  <-- do not rely on this value for anything but (periodic) metals
  | Electronic free energy        :         -76.17373958 Ha       -2072.79291652 eV

  Derived energy quantities:
  | Kinetic energy                :          75.82777373 Ha        2063.37870666 eV
  | Electrostatic energy          :        -143.19813341 Ha       -3896.61946801 eV
  | Energy correction for multipole
  | error in Hartree potential    :           0.00624476 Ha           0.16992859 eV
  | Sum of eigenvalues per atom                           :        -310.47351912 eV
  | Total energy (T->0) per atom                          :        -518.19822913 eV  <-- do not rely on this value for anything but (periodic) metals
  | Electronic free energy per atom                       :        -518.19822913 eV

  Self-consistency convergence accuracy:
  | Change of charge density      :  0.3744E-02
  | Change of sum of eigenvalues  :  0.8280E+00 eV
  | Change of total energy        :  0.3980E-03 eV

  End self-consistency iteration #     7       :  max(cpu_time)    wall_clock(cpu1)
  | Time for this iteration                    :        0.060 s           0.060 s
  | Charge density update                      :        0.011 s           0.011 s
  | Density mixing                             :        0.001 s           0.001 s
  | Hartree multipole update                   :        0.001 s           0.001 s
  | Hartree multipole summation                :        0.017 s           0.017 s
  | Integration                                :        0.029 s           0.029 s
  | Solution of K.-S. eqns.                    :        0.000 s           0.000 s
  | Total energy evaluation                    :        0.000 s           0.000 s

  Partial memory accounting:
  | Current value for overall tracked memory usage on task 0  :           0.019 MB
  | Peak value for overall tracked memory usage on task 0     :           0.084 MB after allocating wave
  | Largest tracked array allocation on task 0 so far         :           0.019 MB  when allocating H_times_psi
  Note:  These values currently only include a subset of arrays which are explicitly tracked.
  The "true" memory usage will be greater.
------------------------------------------------------------

------------------------------------------------------------
          Begin self-consistency iteration #    8

  Date     :  20190509, Time     :  114702.466
------------------------------------------------------------
  Evaluating new KS density.
  Integration grid: deviation in total charge (<rho> - N_e) =   1.065814E-14
  Pulay mixing of updated and previous charge densities.

  Evaluating partitioned Hartree potential by multipole expansion.
  | Analytical far-field extrapolation by fixed multipoles:
  | Hartree multipole sum: apparent total charge =   0.999326E+00
  Summing up the Hartree potential.
  Time summed over all CPUs for potential: real work        0.017 s, elapsed        0.017 s
  | RMS charge density error from multipole expansion :   0.925676E-02

  Integrating Hamiltonian matrix: batch-based integration.
  Time summed over all CPUs for integration: real work        0.032 s, elapsed        0.032 s

  Updating Kohn-Sham eigenvalues, eigenvectors, occupation numbers, and Fermi level.
  Solving generalized eigenproblem
  Updating Kohn-Sham eigenvalues and eigenfunctions.
  Solving real generalised eigenvalue problem by standard LAPACK (fast)

  Obtaining occupation numbers and chemical potential using ELSI.
  | Chemical potential (Fermi level):   -12.15639526eV
  Highest occupied state (VBM) at    -18.67362781 eV
  | Occupation number:      2.00000000

  Lowest unoccupied state (CBM) at    -8.19095007 eV
  | Occupation number:      0.00000000

  Overall HOMO-LUMO gap:     10.48267773 eV.

  Total energy components:
  | Sum of eigenvalues            :         -45.63665581 Ha       -1241.83658866 eV
  | XC energy correction          :          -8.80371708 Ha        -239.56133040 eV
  | XC potential correction       :          11.59576526 Ha         315.53682711 eV
  | Free-atom electrostatic energy:         -35.29704955 Ha        -960.48158715 eV
  | Hartree energy correction     :           1.96791779 Ha          53.54976761 eV
  | Entropy correction            :          -0.00000000 Ha          -0.00000000 eV
  | ---------------------------
  | Total energy                  :         -76.17373940 Ha       -2072.79291149 eV
  | Total energy, T -> 0          :         -76.17373940 Ha       -2072.79291149 eV  <-- do not rely on this value for anything but (periodic) metals
  | Electronic free energy        :         -76.17373940 Ha       -2072.79291149 eV

  Derived energy quantities:
  | Kinetic energy                :          75.82823429 Ha        2063.39123916 eV
  | Electrostatic energy          :        -143.19825661 Ha       -3896.62282025 eV
  | Energy correction for multipole
  | error in Hartree potential    :           0.00623034 Ha           0.16953612 eV
  | Sum of eigenvalues per atom                           :        -310.45914717 eV
  | Total energy (T->0) per atom                          :        -518.19822787 eV  <-- do not rely on this value for anything but (periodic) metals
  | Electronic free energy per atom                       :        -518.19822787 eV

  Self-consistency convergence accuracy:
  | Change of charge density      :  0.5253E-03
  | Change of sum of eigenvalues  :  0.5749E-01 eV
  | Change of total energy        :  0.5025E-05 eV

  End self-consistency iteration #     8       :  max(cpu_time)    wall_clock(cpu1)
  | Time for this iteration                    :        0.063 s           0.063 s
  | Charge density update                      :        0.011 s           0.011 s
  | Density mixing                             :        0.001 s           0.001 s
  | Hartree multipole update                   :        0.002 s           0.002 s
  | Hartree multipole summation                :        0.017 s           0.017 s
  | Integration                                :        0.032 s           0.032 s
  | Solution of K.-S. eqns.                    :        0.000 s           0.000 s
  | Total energy evaluation                    :        0.000 s           0.000 s

  Partial memory accounting:
  | Current value for overall tracked memory usage on task 0  :           0.020 MB
  | Peak value for overall tracked memory usage on task 0     :           0.084 MB after allocating wave
  | Largest tracked array allocation on task 0 so far         :           0.019 MB  when allocating H_times_psi
  Note:  These values currently only include a subset of arrays which are explicitly tracked.
  The "true" memory usage will be greater.
------------------------------------------------------------

------------------------------------------------------------
          Begin self-consistency iteration #    9

  Date     :  20190509, Time     :  114702.529
------------------------------------------------------------
  Evaluating new KS density.
  Integration grid: deviation in total charge (<rho> - N_e) =   1.776357E-15
  Pulay mixing of updated and previous charge densities.

  Evaluating partitioned Hartree potential by multipole expansion.
  | Analytical far-field extrapolation by fixed multipoles:
  | Hartree multipole sum: apparent total charge =   0.999549E+00
  Summing up the Hartree potential.
  Time summed over all CPUs for potential: real work        0.017 s, elapsed        0.017 s
  | RMS charge density error from multipole expansion :   0.925701E-02

  Integrating Hamiltonian matrix: batch-based integration.
  Time summed over all CPUs for integration: real work        0.029 s, elapsed        0.029 s

  Updating Kohn-Sham eigenvalues, eigenvectors, occupation numbers, and Fermi level.
  Solving generalized eigenproblem
  Updating Kohn-Sham eigenvalues and eigenfunctions.
  Solving real generalised eigenvalue problem by standard LAPACK (fast)

  Obtaining occupation numbers and chemical potential using ELSI.
  | Chemical potential (Fermi level):   -12.15550148eV
  Highest occupied state (VBM) at    -18.67257854 eV
  | Occupation number:      2.00000000

  Lowest unoccupied state (CBM) at    -8.19034737 eV
  | Occupation number:      0.00000000

  Overall HOMO-LUMO gap:     10.48223116 eV.

  Total energy components:
  | Sum of eigenvalues            :         -45.63658679 Ha       -1241.83471031 eV
  | XC energy correction          :          -8.80376561 Ha        -239.56265109 eV
  | XC potential correction       :          11.59582871 Ha         315.53855367 eV
  | Free-atom electrostatic energy:         -35.29704955 Ha        -960.48158715 eV
  | Hartree energy correction     :           1.96783416 Ha          53.54749206 eV
  | Entropy correction            :          -0.00000000 Ha          -0.00000000 eV
  | ---------------------------
  | Total energy                  :         -76.17373908 Ha       -2072.79290283 eV
  | Total energy, T -> 0          :         -76.17373908 Ha       -2072.79290283 eV  <-- do not rely on this value for anything but (periodic) metals
  | Electronic free energy        :         -76.17373908 Ha       -2072.79290283 eV

  Derived energy quantities:
  | Kinetic energy                :          75.82741641 Ha        2063.36898350 eV
  | Electrostatic energy          :        -143.19738987 Ha       -3896.59923523 eV
  | Energy correction for multipole
  | error in Hartree potential    :           0.00621377 Ha           0.16908535 eV
  | Sum of eigenvalues per atom                           :        -310.45867758 eV
  | Total energy (T->0) per atom                          :        -518.19822571 eV  <-- do not rely on this value for anything but (periodic) metals
  | Electronic free energy per atom                       :        -518.19822571 eV

  Self-consistency convergence accuracy:
  | Change of charge density      :  0.2095E-03
  | Change of sum of eigenvalues  :  0.1878E-02 eV
  | Change of total energy        :  0.8665E-05 eV

  End self-consistency iteration #     9       :  max(cpu_time)    wall_clock(cpu1)
  | Time for this iteration                    :        0.060 s           0.060 s
  | Charge density update                      :        0.012 s           0.012 s
  | Density mixing                             :        0.001 s           0.001 s
  | Hartree multipole update                   :        0.001 s           0.001 s
  | Hartree multipole summation                :        0.017 s           0.017 s
  | Integration                                :        0.029 s           0.029 s
  | Solution of K.-S. eqns.                    :        0.000 s           0.000 s
  | Total energy evaluation                    :        0.000 s           0.000 s

  Partial memory accounting:
  | Current value for overall tracked memory usage on task 0  :           0.020 MB
  | Peak value for overall tracked memory usage on task 0     :           0.085 MB after allocating wave
  | Largest tracked array allocation on task 0 so far         :           0.019 MB  when allocating H_times_psi
  Note:  These values currently only include a subset of arrays which are explicitly tracked.
  The "true" memory usage will be greater.
------------------------------------------------------------

------------------------------------------------------------
          Begin self-consistency iteration #   10

  Date     :  20190509, Time     :  114702.589
------------------------------------------------------------
  Evaluating new KS density.
  Integration grid: deviation in total charge (<rho> - N_e) =  -8.881784E-15
  Pulay mixing of updated and previous charge densities.

  Evaluating partitioned Hartree potential by multipole expansion.
  | Analytical far-field extrapolation by fixed multipoles:
  | Hartree multipole sum: apparent total charge =   0.999556E+00
  Summing up the Hartree potential.
  Time summed over all CPUs for potential: real work        0.016 s, elapsed        0.016 s
  | RMS charge density error from multipole expansion :   0.925712E-02

  Integrating Hamiltonian matrix: batch-based integration.
  Time summed over all CPUs for integration: real work        0.029 s, elapsed        0.029 s

  Updating Kohn-Sham eigenvalues, eigenvectors, occupation numbers, and Fermi level.
  Solving generalized eigenproblem
  Updating Kohn-Sham eigenvalues and eigenfunctions.
  Solving real generalised eigenvalue problem by standard LAPACK (fast)

  Obtaining occupation numbers and chemical potential using ELSI.
  | Chemical potential (Fermi level):   -12.15558057eV
  Highest occupied state (VBM) at    -18.67278348 eV
  | Occupation number:      2.00000000

  Lowest unoccupied state (CBM) at    -8.19040514 eV
  | Occupation number:      0.00000000

  Overall HOMO-LUMO gap:     10.48237834 eV.

  Total energy components:
  | Sum of eigenvalues            :         -45.63668019 Ha       -1241.83725199 eV
  | XC energy correction          :          -8.80375619 Ha        -239.56239484 eV
  | XC potential correction       :          11.59581628 Ha         315.53821531 eV
  | Free-atom electrostatic energy:         -35.29704955 Ha        -960.48158715 eV
  | Hartree energy correction     :           1.96793059 Ha          53.55011602 eV
  | Entropy correction            :          -0.00000000 Ha          -0.00000000 eV
  | ---------------------------
  | Total energy                  :         -76.17373907 Ha       -2072.79290264 eV
  | Total energy, T -> 0          :         -76.17373907 Ha       -2072.79290264 eV  <-- do not rely on this value for anything but (periodic) metals
  | Electronic free energy        :         -76.17373907 Ha       -2072.79290264 eV

  Derived energy quantities:
  | Kinetic energy                :          75.82735894 Ha        2063.36741971 eV
  | Electrostatic energy          :        -143.19734181 Ha       -3896.59792750 eV
  | Energy correction for multipole
  | error in Hartree potential    :           0.00621349 Ha           0.16907779 eV
  | Sum of eigenvalues per atom                           :        -310.45931300 eV
  | Total energy (T->0) per atom                          :        -518.19822566 eV  <-- do not rely on this value for anything but (periodic) metals
  | Electronic free energy per atom                       :        -518.19822566 eV

  Self-consistency convergence accuracy:
  | Change of charge density      :  0.2319E-04
  | Change of sum of eigenvalues  : -0.2542E-02 eV
  | Change of total energy        :  0.1893E-06 eV

  End self-consistency iteration #    10       :  max(cpu_time)    wall_clock(cpu1)
  | Time for this iteration                    :        0.059 s           0.059 s
  | Charge density update                      :        0.011 s           0.011 s
  | Density mixing                             :        0.001 s           0.001 s
  | Hartree multipole update                   :        0.001 s           0.002 s
  | Hartree multipole summation                :        0.017 s           0.016 s
  | Integration                                :        0.029 s           0.029 s
  | Solution of K.-S. eqns.                    :        0.000 s           0.000 s
  | Total energy evaluation                    :        0.000 s           0.000 s

  Partial memory accounting:
  | Current value for overall tracked memory usage on task 0  :           0.020 MB
  | Peak value for overall tracked memory usage on task 0     :           0.085 MB after allocating wave
  | Largest tracked array allocation on task 0 so far         :           0.019 MB  when allocating H_times_psi
  Note:  These values currently only include a subset of arrays which are explicitly tracked.
  The "true" memory usage will be greater.
------------------------------------------------------------

------------------------------------------------------------
          Begin self-consistency iteration #   11

  Date     :  20190509, Time     :  114702.648
------------------------------------------------------------
  Evaluating new KS density.
  Integration grid: deviation in total charge (<rho> - N_e) =  -1.065814E-14
  Pulay mixing of updated and previous charge densities.

  Evaluating partitioned Hartree potential by multipole expansion.
  | Analytical far-field extrapolation by fixed multipoles:
  | Hartree multipole sum: apparent total charge =   0.999566E+00
  Summing up the Hartree potential.
  Time summed over all CPUs for potential: real work        0.016 s, elapsed        0.016 s
  | RMS charge density error from multipole expansion :   0.925715E-02

  Integrating Hamiltonian matrix: batch-based integration.
  Time summed over all CPUs for integration: real work        0.029 s, elapsed        0.029 s

  Updating Kohn-Sham eigenvalues, eigenvectors, occupation numbers, and Fermi level.
  Solving generalized eigenproblem
  Updating Kohn-Sham eigenvalues and eigenfunctions.
  Solving real generalised eigenvalue problem by standard LAPACK (fast)

  Obtaining occupation numbers and chemical potential using ELSI.
  | Chemical potential (Fermi level):   -12.15559153eV
  Highest occupied state (VBM) at    -18.67281894 eV
  | Occupation number:      2.00000000

  Lowest unoccupied state (CBM) at    -8.19041967 eV
  | Occupation number:      0.00000000

  Overall HOMO-LUMO gap:     10.48239928 eV.

  Total energy components:
  | Sum of eigenvalues            :         -45.63670427 Ha       -1241.83790714 eV
  | XC energy correction          :          -8.80375496 Ha        -239.56236132 eV
  | XC potential correction       :          11.59581465 Ha         315.53817100 eV
  | Free-atom electrostatic energy:         -35.29704955 Ha        -960.48158715 eV
  | Hartree energy correction     :           1.96795508 Ha          53.55078224 eV
  | Entropy correction            :          -0.00000000 Ha          -0.00000000 eV
  | ---------------------------
[...]
  | Largest tracked array allocation on task 0 so far         :           0.019 MB  when allocating H_times_psi
  Note:  These values currently only include a subset of arrays which are explicitly tracked.
  The "true" memory usage will be greater.
------------------------------------------------------------

------------------------------------------------------------
          Begin self-consistency iteration #   12

  Date     :  20190509, Time     :  114702.708
------------------------------------------------------------
  Evaluating new KS density.
  Integration grid: deviation in total charge (<rho> - N_e) =   3.375078E-14
  Pulay mixing of updated and previous charge densities.

  Evaluating partitioned Hartree potential by multipole expansion.
  | Analytical far-field extrapolation by fixed multipoles:
  | Hartree multipole sum: apparent total charge =   0.999566E+00
  Summing up the Hartree potential.
  Time summed over all CPUs for potential: real work        0.017 s, elapsed        0.017 s
  | RMS charge density error from multipole expansion :   0.925716E-02

  Integrating Hamiltonian matrix: batch-based integration.
  Time summed over all CPUs for integration: real work        0.028 s, elapsed        0.028 s

  Updating Kohn-Sham eigenvalues, eigenvectors, occupation numbers, and Fermi level.
  Solving generalized eigenproblem
  Updating Kohn-Sham eigenvalues and eigenfunctions.
  Solving real generalised eigenvalue problem by standard LAPACK (fast)

  Obtaining occupation numbers and chemical potential using ELSI.
  | Chemical potential (Fermi level):   -12.15558687eV
  Highest occupied state (VBM) at    -18.67281386 eV
  | Occupation number:      2.00000000

  Lowest unoccupied state (CBM) at    -8.19041716 eV
  | Occupation number:      0.00000000

  Overall HOMO-LUMO gap:     10.48239670 eV.

  Total energy components:
  | Sum of eigenvalues            :         -45.63670165 Ha       -1241.83783600 eV
  | XC energy correction          :          -8.80375542 Ha        -239.56237380 eV
  | XC potential correction       :          11.59581525 Ha         315.53818747 eV
  | Free-atom electrostatic energy:         -35.29704955 Ha        -960.48158715 eV
  | Hartree energy correction     :           1.96795231 Ha          53.55070709 eV
  | Entropy correction            :          -0.00000000 Ha          -0.00000000 eV
  | ---------------------------
  | Total energy                  :         -76.17373906 Ha       -2072.79290239 eV
  | Total energy, T -> 0          :         -76.17373906 Ha       -2072.79290239 eV  <-- do not rely on this value for anything but (periodic) metals
  | Electronic free energy        :         -76.17373906 Ha       -2072.79290239 eV

  Derived energy quantities:
  | Kinetic energy                :          75.82732783 Ha        2063.36657327 eV
  | Electrostatic energy          :        -143.19731147 Ha       -3896.59710186 eV
  | Energy correction for multipole
  | error in Hartree potential    :           0.00621304 Ha           0.16906553 eV
  | Sum of eigenvalues per atom                           :        -310.45945900 eV
  | Total energy (T->0) per atom                          :        -518.19822560 eV  <-- do not rely on this value for anything but (periodic) metals
  | Electronic free energy per atom                       :        -518.19822560 eV

  Self-consistency convergence accuracy:
  | Change of charge density      :  0.6855E-06
  | Change of sum of eigenvalues  :  0.7114E-04 eV
  | Change of total energy        : -0.2252E-07 eV

  Electronic self-consistency reached - switching on the force computation.

  End self-consistency iteration #    12       :  max(cpu_time)    wall_clock(cpu1)
  | Time for this iteration                    :        0.059 s           0.060 s
  | Charge density & force component update    :        0.011 s           0.012 s
  | Density mixing                             :        0.001 s           0.001 s
  | Hartree multipole update                   :        0.001 s           0.001 s
  | Hartree multipole summation                :        0.017 s           0.017 s
  | Integration                                :        0.028 s           0.028 s
  | Solution of K.-S. eqns.                    :        0.000 s           0.000 s
  | Total energy evaluation                    :        0.000 s           0.001 s

  Partial memory accounting:
  | Current value for overall tracked memory usage on task 0  :           0.020 MB
  | Peak value for overall tracked memory usage on task 0     :           0.085 MB after allocating wave
  | Largest tracked array allocation on task 0 so far         :           0.019 MB  when allocating H_times_psi
  Note:  These values currently only include a subset of arrays which are explicitly tracked.
  The "true" memory usage will be greater.
------------------------------------------------------------

------------------------------------------------------------
          Begin self-consistency iteration #   13

  Date     :  20190509, Time     :  114702.768
------------------------------------------------------------
  Evaluating new KS density and force components.
  Integration grid: deviation in total charge (<rho> - N_e) =   3.019807E-14
  Pulay mixing of updated and previous charge densities.

  Evaluating partitioned Hartree potential by multipole expansion.
  | Analytical far-field extrapolation by fixed multipoles:
  | Hartree multipole sum: apparent total charge =   0.999566E+00
  Summing up the Hartree potential.
  Time summed over all CPUs for potential: real work        0.051 s, elapsed        0.051 s
  | RMS charge density error from multipole expansion :   0.925716E-02

  Integrating Hamiltonian matrix: batch-based integration.
  Time summed over all CPUs for integration: real work        0.030 s, elapsed        0.030 s

  Updating Kohn-Sham eigenvalues, eigenvectors, occupation numbers, and Fermi level.
  Solving generalized eigenproblem
  Updating Kohn-Sham eigenvalues and eigenfunctions.
  Solving real generalised eigenvalue problem by standard LAPACK (fast)

  Obtaining occupation numbers and chemical potential using ELSI.
  | Chemical potential (Fermi level):   -12.15558615eV
  Highest occupied state (VBM) at    -18.67281275 eV
  | Occupation number:      2.00000000

  Lowest unoccupied state (CBM) at    -8.19041662 eV
  | Occupation number:      0.00000000

  Overall HOMO-LUMO gap:     10.48239613 eV.

  Total energy components:
  | Sum of eigenvalues            :         -45.63670113 Ha       -1241.83782172 eV
  | XC energy correction          :          -8.80375549 Ha        -239.56237574 eV
  | XC potential correction       :          11.59581535 Ha         315.53819002 eV
  | Free-atom electrostatic energy:         -35.29704955 Ha        -960.48158715 eV
  | Hartree energy correction     :           1.96795177 Ha          53.55069219 eV
  | Entropy correction            :          -0.00000000 Ha          -0.00000000 eV
  | ---------------------------
  | Total energy                  :         -76.17373906 Ha       -2072.79290239 eV
  | Total energy, T -> 0          :         -76.17373906 Ha       -2072.79290239 eV  <-- do not rely on this value for anything but (periodic) metals
  | Electronic free energy        :         -76.17373906 Ha       -2072.79290239 eV

  Derived energy quantities:
  | Kinetic energy                :          75.82732822 Ha        2063.36658390 eV
  | Electrostatic energy          :        -143.19731179 Ha       -3896.59711055 eV
  | Energy correction for multipole
  | error in Hartree potential    :           0.00621305 Ha           0.16906557 eV
  | Sum of eigenvalues per atom                           :        -310.45945543 eV
  | Total energy (T->0) per atom                          :        -518.19822560 eV  <-- do not rely on this value for anything but (periodic) metals
  | Electronic free energy per atom                       :        -518.19822560 eV

  atomic forces [eV/Ang]:
  -----------------------
  atom #    1
   Hellmann-Feynman              :  0.181612E-11  0.134028E+00 -0.883543E+01
   Ionic forces                  :  0.000000E+00  0.000000E+00  0.000000E+00
   Multipole                     :  0.313829E-13 -0.329307E-02 -0.325341E+00
   Pulay                         : -0.181626E-11  0.879414E-02  0.916035E+01
   ----------------------------------------------------------------
   Total forces(   1)            :  0.312396E-13  0.139529E+00 -0.422241E-03
  atom #    2
   Hellmann-Feynman              :  0.236875E+00 -0.149954E+00  0.148493E+00
   Ionic forces                  :  0.000000E+00  0.000000E+00  0.000000E+00
   Multipole                     :  0.500035E-01 -0.288497E-01  0.630624E-01
   Pulay                         : -0.258986E+00  0.148274E+00 -0.196937E+00
   ----------------------------------------------------------------
   Total forces(   2)            :  0.278929E-01 -0.305294E-01  0.146189E-01
  atom #    3
   Hellmann-Feynman              : -0.236875E+00 -0.149954E+00  0.148493E+00
   Ionic forces                  :  0.000000E+00  0.000000E+00  0.000000E+00
   Multipole                     : -0.500035E-01 -0.288497E-01  0.630624E-01
   Pulay                         :  0.258986E+00  0.148274E+00 -0.196937E+00
   ----------------------------------------------------------------
   Total forces(   3)            : -0.278929E-01 -0.305294E-01  0.146189E-01
  atom #    4
   Hellmann-Feynman              :  0.712662E-13  0.159284E+00  0.106370E+00
   Ionic forces                  :  0.000000E+00  0.000000E+00  0.000000E+00
   Multipole                     : -0.125496E-14  0.572269E-01  0.621475E-01
   Pulay                         : -0.992608E-13 -0.294797E+00 -0.195405E+00
   ----------------------------------------------------------------
   Total forces(   4)            : -0.292496E-13 -0.782857E-01 -0.268878E-01


  Self-consistency convergence accuracy:
  | Change of charge density      :  0.8109E-07
  | Change of sum of eigenvalues  :  0.1428E-04 eV
  | Change of total energy        : -0.2792E-08 eV
  | Change of forces              :  0.4592E+01 eV/A

  Writing Kohn-Sham eigenvalues.

  State    Occupation    Eigenvalue [Ha]    Eigenvalue [eV]
      1       2.00000         -19.024223         -517.67544
      2       2.00000          -1.348551          -36.69594
      3       2.00000          -0.880264          -23.95321
      4       2.00000          -0.879099          -23.92150
      5       2.00000          -0.686213          -18.67281
      6       0.00000          -0.300992           -8.19042
      7       0.00000          -0.207668           -5.65093
      8       0.00000          -0.206391           -5.61618
      9       0.00000           0.016564            0.45072
     10       0.00000           0.052417            1.42634
     11       0.00000           0.052493            1.42841
     12       0.00000           0.240611            6.54735
     13       0.00000           0.466939           12.70605

  Highest occupied state (VBM) at    -18.67281275 eV
  | Occupation number:      2.00000000

  Lowest unoccupied state (CBM) at    -8.19041662 eV
  | Occupation number:      0.00000000

  Overall HOMO-LUMO gap:     10.48239613 eV.

  Self-consistency cycle converged.

  End self-consistency iteration #    13       :  max(cpu_time)    wall_clock(cpu1)
  | Time for this iteration                    :        0.125 s           0.125 s
  | Charge density & force component update    :        0.042 s           0.042 s
  | Density mixing                             :        0.001 s           0.001 s
  | Hartree multipole update                   :        0.001 s           0.001 s
  | Hartree multipole summation                :        0.051 s           0.051 s
  | Integration                                :        0.030 s           0.030 s
  | Solution of K.-S. eqns.                    :        0.000 s           0.000 s
  | Total energy evaluation                    :        0.000 s           0.000 s

  Partial memory accounting:
  | Current value for overall tracked memory usage on task 0  :           0.020 MB
  | Peak value for overall tracked memory usage on task 0     :           0.116 MB after allocating h_times_wave
  | Largest tracked array allocation on task 0 so far         :           0.058 MB  when allocating gradient_basis_wave
  Note:  These values currently only include a subset of arrays which are explicitly tracked.
  The "true" memory usage will be greater.
------------------------------------------------------------
  ------------------------------------------------------------
   Computing monopole / dipole moments for complete molecule:
  | Total electronic charge [e]         :          0.100000000175067E+02
  | Total ionic charge [e]              :          0.110000000000000E+02
  | Total charge [e]                    :          0.999999982493289E+00
 * Warning: The system has a total charge of      0.99999998 .
 * The dipole moment depends on the choice of the origin.
  | Total dipole moment [eAng]          :         -0.948604281665385E-14         0.984571742475310E-03         0.587647687080055E+00
  | Absolute dipole moment              :          0.587648511877683E+00 eAng              /                   0.282215619713760E+01 Debye  .
  Removing unitary transformations (pure translations, rotations) from forces on atoms.
  Atomic forces before filtering:
  | Net force on center of mass :  -0.250180E-13  0.184222E-03  0.192781E-02 eV/A
  | Net torque on center of mass:   0.549142E-04 -0.249247E-13 -0.147776E-13 eV
  Atomic forces after filtering:
  | Net force on center of mass :  -0.205580E-17  0.000000E+00 -0.557519E-17 eV/A
  | Net torque on center of mass:  -0.295026E-17 -0.132749E-17 -0.443308E-17 eV

  Energy and forces in a compact form:
  | Total energy uncorrected      :         -0.207279290239293E+04 eV
  | Total energy corrected        :         -0.207279290239293E+04 eV  <-- do not rely on this value for anything but (periodic) metals
  | Electronic free energy        :         -0.207279290239293E+04 eV
  Total atomic forces (unitary forces cleaned) [eV/Ang]:
  |   1          0.337660005339454E-13          0.139474523570129E+00         -0.904135586804233E-03
  |   2          0.278929028297609E-01         -0.305727588117210E-01          0.141553629127879E-01
  |   3         -0.278929028297677E-01         -0.305727588116938E-01          0.141553629127995E-01
  |   4         -0.269302301565560E-13         -0.783290059467146E-01         -0.274065902387832E-01

  ------------------------------------ 
  Start decomposition of the XC Energy 
  ------------------------------------ 
  X and C from original XC functional choice 
  Hartree-Fock Energy :          0.000000000 Ha              0.000000000 eV
  X Energy            :         -8.140125749 Ha           -221.504091642 eV
  C Energy            :         -0.663629743 Ha            -18.058284093 eV
  Total XC Energy     :         -8.803755492 Ha           -239.562375735 eV
  ------------------------------------ 
  LDA X and C from self-consistent density 
  X Energy LDA        :         -8.140125749 Ha           -221.504091642 eV
  C Energy LDA        :         -0.663629743 Ha            -18.058284093 eV
  ------------------------------------ 
  End decomposition of the XC Energy 
  ------------------------------------ 

------------------------------------------------------------

------------------------------------------------------------------------------
  Final output of selected total energy values:

  The following output summarizes some interesting total energy values
  at the end of a run (AFTER all relaxation, molecular dynamics, etc.).

  | Total energy of the DFT / Hartree-Fock s.c.f. calculation      :          -2072.792902393 eV
  | Final zero-broadening corrected energy (caution - metals only) :          -2072.792902393 eV
  | For reference only, the value of 1 Hartree used in FHI-aims is :             27.211384500 eV

  Before relying on these values, please be sure to understand exactly which
  total energy value is referred to by a given number. Different objects may
  all carry the same name 'total energy'. Definitions:

  Total energy of the DFT / Hartree-Fock s.c.f. calculation:
  | Note that this energy does not include ANY quantities calculated after the
  | s.c.f. cycle, in particular not ANY RPA, MP2, etc. many-body perturbation terms.

  Final zero-broadening corrected energy:
  | For metallic systems only, a broadening of the occupation numbers at the Fermi
  | level can be extrapolated back to zero broadening by an electron-gas inspired
  | formula. For all systems that are not real metals, this value can be
  | meaningless and should be avoided.

------------------------------------------------------------------------------
  Methods described in the following list of references were used in this FHI-aims run.
  If you publish the results, please make sure to cite these reference if they apply.
  FHI-aims is an academic code, and for our developers (often, Ph.D. students
  and postdocs), scientific credit in the community is essential.
  Thank you for helping us!

  For any use of FHI-aims, please cite:

    Volker Blum, Ralf Gehrke, Felix Hanke, Paula Havu, Ville Havu,
    Xinguo Ren, Karsten Reuter, and Matthias Scheffler
    'Ab initio molecular simulations with numeric atom-centered orbitals'
    Computer Physics Communications 180, 2175-2196 (2009)
    http://dx.doi.org/10.1016/j.cpc.2009.06.022


  For the real-space grid partitioning and parallelization used in this calculation, please cite:

    Ville Havu, Volker Blum, Paula Havu, and Matthias Scheffler,
    'Efficient O(N) integration for all-electron electronic structure calculation'
    'using numerically tabulated basis functions'
    Journal of Computational Physics 228, 8367-8379 (2009).
    http://dx.doi.org/10.1016/j.jcp.2009.08.008

  Of course, there are many other important community references, e.g., those cited in the
  above references. Our list is limited to references that describe implementations in the
  FHI-aims code. The reason is purely practical (length of this list) - please credit others as well.

------------------------------------------------------------
          Leaving FHI-aims.
          Date     :  20190509, Time     :  114702.907

          Computational steps:
          | Number of self-consistency cycles          :           13
          | Number of SCF (re)initializations          :            1

          Detailed time accounting                     :  max(cpu_time)    wall_clock(cpu1)
          | Total time                                 :        0.997 s           0.996 s
          | Preparation time                           :        0.050 s           0.050 s
          | Boundary condition initalization           :        0.000 s           0.000 s
          | Grid partitioning                          :        0.014 s           0.014 s
          | Preloading free-atom quantities on grid    :        0.001 s           0.001 s
          | Free-atom superposition energy             :        0.012 s           0.012 s
          | Total time for integrations                :        0.422 s           0.422 s
          | Total time for solution of K.-S. equations :        0.003 s           0.002 s
          | Total time for density & force components  :        0.181 s           0.179 s
          | Total time for mixing                      :        0.009 s           0.009 s
          | Total time for Hartree multipole update    :        0.019 s           0.019 s
          | Total time for Hartree multipole sum       :        0.253 s           0.254 s
          | Total time for total energy evaluation     :        0.001 s           0.002 s

 This is a stub MPI_ALLREDUCE call.
 You should not be here. Check your
 setting on the use_mpi variable, or
 link against true MPI-libraries.
