------------------------------------------------------------
          Invoking FHI-aims ...
          Version 171221_1
          Compiled on 2019/05/06 at 14:26:40 on host ffph0xx.

          When using FHI-aims, please cite the following reference:

          Volker Blum, Ralf Gehrke, Felix Hanke, Paula Havu,
          Ville Havu, Xinguo Ren, Karsten Reuter, and Matthias Scheffler,
          'Ab Initio Molecular Simulations with Numeric Atom-Centered Orbitals',
          Computer Physics Communications 180, 2175-2196 (2009)

          For any questions about FHI-aims, please visit the aimsclub website
          with its forums and wiki. Contributions to both the forums and the
          wiki are warmly encouraged - they are for you, and everyone is welcome there.

------------------------------------------------------------



  Date     :  20190508, Time     :  151959.970
  Time zero on CPU 1             :   0.826000000000000E-03  s.
  Internal wall clock time zero  :           326560799.970  s.

  FHI-aims created a unique identifier for this run for later identification
  aims_uuid : 5B37223F-39B8-4293-AA5F-4E3B72265A6C


  Performing system and environment tests:
  *** Environment variable OMP_NUM_THREADS is not set
  *** For performance reasons you might want to set it to 1
  | Stacksize not measured: no C compiler

  Obtaining array dimensions for all initial allocations:
  
  -----------------------------------------------------------------------
  Parsing control.in (first pass over file, find array dimensions only).
  The contents of control.in will be repeated verbatim below
  unless switched off by setting 'verbatim_writeout .false.' .
  in the first line of control.in .
  -----------------------------------------------------------------------
  
  #--- Specification of method ---
  xc pbe0
  charge 0.0
  
  
  #---
  
  #--- iteration limit ---
  sc_iter_limit 100
  
  # other possible thresholds
  # sc_accuracy_eev ... for sum of Kohn-Sham eigen values
  # sc_accuracy_etot .. total energy
  # sc_accuracy_rho ... electron density
  #---
  
  #--- tasks (what to calculate) ---
  output dipole
  #---
  
  
  ################################################################################
  ############# Species Defaults ####################
  ################################################################################
  
  
  ################################################################################
  #
  #  FHI-aims code project
  # Volker Blum, Fritz Haber Institute Berlin, 2009
  #
  #  Suggested "tight" defaults for O atom (to be pasted into control.in file)
  #
  ################################################################################
    species        O
  #     global species definitions
      nucleus             8
      mass                15.9994
  #
      l_hartree           6
  #
      cut_pot             4.0  2.0  1.0
      basis_dep_cutoff    1e-4
  #
      radial_base         36 7.0
      radial_multiplier   2
       angular_grids specified
        division   0.1817   50
        division   0.3417  110
        division   0.4949  194
        division   0.6251  302
        division   0.8014  434
  #      division   0.8507  590
  #      division   0.8762  770
  #      division   0.9023  974
  #      division   1.2339 1202
  #      outer_grid 974
        outer_grid  434
  ################################################################################
  #
  #  Definition of "minimal" basis
  #
  ################################################################################
  #     valence basis states
      valence      2  s   2.
      valence      2  p   4.
  #     ion occupancy
      ion_occ      2  s   1.
      ion_occ      2  p   3.
  ################################################################################
  #
  #  Suggested additional basis functions. For production calculations,
  #  uncomment them one after another (the most important basis functions are
  #  listed first).
  #
  #  Constructed for dimers: 1.0 A, 1.208 A, 1.5 A, 2.0 A, 3.0 A
  #
  ################################################################################
  #  "First tier" - improvements: -699.05 meV to -159.38 meV
       hydro 2 p 1.8
       hydro 3 d 7.6
       hydro 3 s 6.4
  #  "Second tier" - improvements: -49.91 meV to -5.39 meV
       hydro 4 f 11.6
       hydro 3 p 6.2
       hydro 3 d 5.6
       hydro 5 g 17.6
       hydro 1 s 0.75
  #  "Third tier" - improvements: -2.83 meV to -0.50 meV
  #     ionic 2 p auto
  #     hydro 4 f 10.8
  #     hydro 4 d 4.7
  #     hydro 2 s 6.8
  #  "Fourth tier" - improvements: -0.40 meV to -0.12 meV
  #     hydro 3 p 5
  #     hydro 3 s 3.3
  #     hydro 5 g 15.6
  #     hydro 4 f 17.6
  #     hydro 4 d 14
  # Further basis functions - -0.08 meV and below
  #     hydro 3 s 2.1
  #     hydro 4 d 11.6
  #     hydro 3 p 16
  #     hydro 2 s 17.2
  ################################################################################
  #
  # For methods that use the localized form of the "resolution of identity" for
  # the two-electron Coulomb operator (RI_method LVL), particularly Hartree-Fock and
  # hybrid density functional calculations, the highest accuracy can be obtained by
  # uncommenting the line beginning with "for_aux"  below, thus adding an extra g radial
  # function to the construction of the product basis set for the expansion.
  # See Ref. New J. Phys. 17, 093020 (2015) for more information, particularly Figs. 1 and 6.
  #
  ################################################################################
  #
  # for_aux hydro 5 g 6.0
  
  -----------------------------------------------------------------------
  Completed first pass over input file control.in .
  -----------------------------------------------------------------------
  
  
  -----------------------------------------------------------------------
  Parsing geometry.in (first pass over file, find array dimensions only).
  The contents of geometry.in will be repeated verbatim below
  unless switched off by setting 'verbatim_writeout .false.' .
  in the first line of geometry.in .
  -----------------------------------------------------------------------
  
  # HF with variable bonding distance
  atom 0.0 0.0 0.0 O
  atom 0.0 0.0 0.9 O
  
  -----------------------------------------------------------------------
  Completed first pass over input file geometry.in .
  -----------------------------------------------------------------------
  

  Basic array size parameters:
  | Number of species                 :        1
  | Number of atoms                   :        2
  | Max. basis fn. angular momentum   :        4
  | Max. atomic/ionic basis occupied n:        2
  | Max. number of basis fn. types    :        2
  | Max. radial fns per species/type  :        8
  | Max. logarithmic grid size        :     1301
  | Max. radial integration grid size :       73
  | Max. angular integration grid size:      434
  | Max. angular grid division number :        8
  | Radial grid for Hartree potential :     1301
  | Number of spin channels           :        1

------------------------------------------------------------
          Reading file control.in.
------------------------------------------------------------
  XC: Using hybrid-PBE0 functionals.
  Charge =   0.000000E+00: Neutral system requested explicitly.
  Maximum number of s.-c. iterations  :   100
  Dipole moment will be written out.

  Reading configuration options for species O                   .
  | Found nuclear charge :   8.0000
  | Found atomic mass :    15.999400000000000      amu
  | Found l_max for Hartree potential  :   6
  | Found cutoff potl. onset [A], width [A], scale factor :    4.00000    2.00000    1.00000
  | Threshold for basis-dependent cutoff potential is   0.100000E-03
  | Found data for basic radial integration grid :    36 points, outermost radius =    7.000 A
  | Found multiplier for basic radial grid :   2
  | Found angular grid specification: user-specified.
  | Specified grid contains     6 separate shells.
  | Check grid settings after all constraints further below.
  | Found free-atom valence shell :  2 s   2.000
  | Found free-atom valence shell :  2 p   4.000
  | No ionic wave fns used. Skipping ion_occ.
  | No ionic wave fns used. Skipping ion_occ.
  | Found hydrogenic basis function :  2 p   1.800
  | Found hydrogenic basis function :  3 d   7.600
  | Found hydrogenic basis function :  3 s   6.400
  | Found hydrogenic basis function :  4 f  11.600
  | Found hydrogenic basis function :  3 p   6.200
  | Found hydrogenic basis function :  3 d   5.600
  | Found hydrogenic basis function :  5 g  17.600
  | Found hydrogenic basis function :  1 s   0.750
  Species O                   : Missing cutoff potential type.
  Defaulting to exp(1/x)/(1-x)^2 type cutoff potential.
  Species O : No 'logarithmic' tag. Using default grid for free atom:
  | Default logarithmic grid data [bohr] : 0.1000E-03 0.1000E+03 0.1012E+01
  Species O : On-site basis accuracy parameter (for Gram-Schmidt orthonormalisation) not specified.
  Using default value basis_acc =  0.1000000E-03.
  Species O                   : Using default innermost maximum threshold i_radial=  2 for radial functions.
  Species O                   : Default cutoff onset for free atom density etc. : 0.40000000E+01 AA.
  Species O                   : Basic radial grid will be enhanced according to radial_multiplier =   2, to contain    73 grid points.

  Finished reading input file 'control.in'. Consistency checks are next.

  MPI_IN_PLACE appears to work with this MPI implementation.
  | Keeping use_mpi_in_place .true. (see manual).
  Explicit treatment of the Coulomb operator is needed, but the RI method is not specified.
  Coulomb operator: Defaulting to 'LVL fast' resolution of identity - RI_type = LVL_fast 
  Species O: Using default value for prodbas_acc =   1.000000E-04.
  Species O: Using default value max_l_prodbas =    20.
  Target number of points in a grid batch is not set. Defaulting to  100
  Method for grid partitioning is not set. Defaulting to 'maxmin' partitioning.
  Batch size limit is not set. Defaulting to    200
  By default, will store active basis functions for each batch.
  If in need of memory, prune_basis_once .false. can be used to disable this option.
  communication_type for Hartree potential was not specified.
  Defaulting to calc_hartree .
 * Attention: 
 * You may want to set distributed_spline_storage to .true. in order to save memory.
 * This doesn't harm performance and is perfectly ok unless:
 * - you get error messages in postprocessing (about missing atoms in get_rho_multipole_spl)
 * - you need full spline storage in hirshfeld_analysis
  Defaulting to Pulay charge density mixer.
  Pulay mixer: Number of relevant iterations not set.
  Defaulting to    8 iterations.
  Pulay mixer: Number of initial linear mixing iterations not set.
  Defaulting to    0 iterations.
  Work space size for distributed Hartree potential not set.
  Defaulting to   0.200000E+03 MB.
  Mixing parameter for charge density mixing has not been set.
  Using default: charge_mix_param =     0.0500.
  The mixing parameter will be adjusted in iteration number     2 of the first full s.c.f. cycle only.
  Algorithm-dependent basis array size parameters:
  | n_max_pulay                         :        8
 * Notice: The s.c.f. convergence criterion sc_accuracy_rho was not provided.
 * We used to stop in this case, and ask the user to provide reasonable
 * scf convergence criteria. However, this led some users to employ criteria
 * that led to extremely long run times, e.g., for simple relaxation.
 * We now preset a default value for sc_accuracy_rho if it is not set.
 * You may still wish to check if this setting is too tight or too loose for your needs.
 * Based on n_atoms, FHI-aims chose sc_accuracy_rho =  0.100000E-05 .
  Presetting      1001 iterations before the initial mixing cycle
  is restarted anyway using the sc_init_iter criterion / keyword.
  Presetting a factor      1.000 between actual scf density residual
  and density convergence criterion sc_accuracy_rho below which sc_init_iter
  takes no effect.
 * No s.c.f. convergence criteria (sc_accuracy_*) were provided in control.in.
 * The run will proceed with a reasonable default guess, but please check whether.
 * the s.c.f. cycles seem to take too much or too little time.
  Calculation of forces was not defined in control.in. No forces will be calculated.
  Geometry relaxation not requested: no relaxation will be performed.
  No accuracy limit for integral partition fn. given. Defaulting to  0.1000E-14.
  No threshold value for u(r) in integrations given. Defaulting to  0.1000E-05.
  No occupation type (smearing scheme) given. Defaulting to Gaussian broadening, width =  0.1000E-01 eV.
  The width will be adjusted in iteration number     2 of the first full s.c.f. cycle only.
  S.C.F. convergence parameters will be adjusted in iteration number     2 of the first full s.c.f. cycle only.
  No accuracy for occupation numbers given. Defaulting to  0.1000E-12.
  No threshold value for occupation numbers given. Defaulting to  0.0000E+00.
  No accuracy for fermi level given. Defaulting to  0.1000E-19.
  Maximum # of iterations to find E_F not set. Defaulting to  200.
  Preferred method for the eigenvalue solver ('KS_method') not specified in 'control.in'.
  Defaulting to serial version, 'lapack_fast'.
  Will not use alltoall communication since running on < 1024 CPUs.
  Threshold for basis singularities not set.
  Default threshold for basis singularities:  0.1000E-04
  partition_type (choice of integration weights) for integrals was not specified.
  | Using a version of the partition function of Stratmann and coworkers ('stratmann_smoother').
  | At each grid point, the set of atoms used to build the partition table is smoothly restricted to
  | only those atoms whose free-atom density would be non-zero at that grid point.
  Partitioning for Hartree potential was not defined. Using partition_type for integrals.
  | Adjusted default value of keyword multip_moments_threshold to:       0.10000000E-11
  | This value may affect high angular momentum components of the Hartree potential in periodic systems.
  Spin handling was not defined in control.in. Defaulting to unpolarized case.
  Threshold for auxiliary basis singularities not set.
  Default threshold for auxiliary basis singularities:  0.1000E-04
  No q(lm)/r^(l+1) cutoff set for long-range Hartree potential.
  | Using default value of  0.100000E-09 .
  | Verify using the multipole_threshold keyword.
  Defaulting to new monopole extrapolation.
  Density update method: automatic selection selected.
  Coulomb operator: Defaulting to screening threshold for four-center integrals:   0.100000E-06
  Coulomb operator: Defaulting to screening threshold for Coulomb matrix:   0.100000E-09
  Coulomb operator: Defaulting to 'LVL_fast' resolution of identity - RI_type = LVL_fast 
  No other resolution of identity version is supported for periodic boundary conditions at present.
  Coulomb operator: Defaulting to logarithmic spherical Bessel transform integrals (use_logsbt .true.).
  LVL not implemented with density matrix yet
  -> switching to transformed overlap
  LVL probably works better with logsbt
  Default to 1D ("use_logsbt") integrations for auxiliary 2-center integrals.
  Default onset of logarithmic r-grid for SBT is-38.000000000000
  Default onset of logarithmic k-grid for SBT is-25.000000000000
  Default range of logarithmic r- and k-grid for SBT is 45.000000000000
  Default number of logarithmic r- and k-grid for SBT is  4096
------------------------------------------------------------


------------------------------------------------------------
          Reading geometry description geometry.in.
------------------------------------------------------------
 * Warning! You did not set the 'relativistic' flag in input file 'control.in'.
 * Since you are not attempting to treat any elements beyond Ca(Z=20), FHI-aims
 * will default to 'relativistic none'.
 * You must ensure that this is really what you want!!
 * For example, DO NOT compute total-energy differences between results from
 * different settings of the 'relativistic' flag.
  Input structure read successfully.
  The structure contains        2 atoms,  and a total of         16.000 electrons.

  Input geometry:
  | No unit cell requested.
  | Atomic structure:
  |       Atom                x [A]            y [A]            z [A]
  |    1: Species O             0.00000000        0.00000000        0.00000000
  |    2: Species O             0.00000000        0.00000000        0.90000000
  |

  | The smallest distance between any two atoms is         0.90000000 AA.
  |
  | The first atom of this pair is atom number                      1 .
  | The second atom of this pair is atom number                     2 .

  Number of empty states per atom not set in control.in - providing a guess from actual geometry.
  | Total number of empty states used during s.c.f. cycle:        6
  If you use a very high smearing, use empty_states (per atom!) in control.in to increase this value.

  Structure-dependent array size parameters: 
  | Maximum number of distinct radial functions  :       11
  | Maximum number of basis functions            :       78
  | Number of Kohn-Sham states (occupied + empty):       14
------------------------------------------------------------
  Setting Coulomb cut-width to  1.091868692359 * rcut.
  Setting Coulomb cutting radius rcut to  8.000000000000 A.

------------------------------------------------------------
          Preparing all fixed parts of the calculation.
------------------------------------------------------------
  Determining machine precision:
     2.2250738585072014E-308
  Setting up grids for atomic and cluster calculations.

  Creating wave function, potential, and density for free atoms.

  Species: O

  List of occupied orbitals and eigenvalues:
    n    l              occ      energy [Ha]    energy [eV]
    1    0           2.0000       -18.898576      -514.2564
    2    0           2.0000        -0.878795       -23.9132
    2    1           4.0000        -0.332075        -9.0362

  Creating fixed part of basis set: Ionic, confined, hydrogenic.

  O                    hydrogenic:

  List of hydrogenic basis orbitals: 
    n    l      effective z      eigenvalue [eV]  inner max. [A]     outer max. [A]     outer radius [A]   
    2    1         1.800000       -11.0118           1.178562           1.178562           5.432602
    3    2         7.600000       -87.3182           0.624125           0.624125           3.541477
    3    0         6.400000       -61.9209           0.061167           1.081902           4.306578
    4    3        11.600000      -114.4238           0.731631           0.731631           3.585037
    3    1         6.200000       -58.1113           0.255680           1.030270           4.306578
    3    2         5.600000       -47.4081           0.847233           0.847233           4.413171
    5    4        17.600000      -168.5799           0.749740           0.749740           3.372465
    1    0         0.750000        -7.6499           0.705284           0.705284           5.366593


  Adding cutoff potential to free-atom effective potential.
  Creating atomic-like basis functions for current effective potential.

  Species O                   :

  List of atomic basis orbitals and eigenvalues:
    n    l      energy [Ha]    energy [eV]    outer radius [A]
    1    0       -18.898576      -514.2564       1.415765
    2    0        -0.878795       -23.9132       5.048385
    2    1        -0.332075        -9.0362       5.301386

  Assembling full basis from fixed parts.
  | Species O :   atomic orbital   1 s accepted.
  | Species O :    hydro orbital   3 s accepted.
  | Species O :   atomic orbital   2 s accepted.
  | Species O :    hydro orbital   1 s accepted.
  | Species O :    hydro orbital   3 p accepted.
  | Species O :   atomic orbital   2 p accepted.
  | Species O :    hydro orbital   2 p accepted.
  | Species O :    hydro orbital   3 d accepted.
  | Species O :    hydro orbital   3 d accepted.
  | Species O :    hydro orbital   4 f accepted.
  | Species O :    hydro orbital   5 g accepted.

  Basis size parameters after reduction:
  | Total number of radial functions:       11
  | Total number of basis functions :       78

  Per-task memory consumption for arrays in subroutine allocate_ext:
  |           2.750028MB.
  Testing on-site integration grid accuracy.
  |  Species  Function  <phi|h_atom|phi> (log., in eV)  <phi|h_atom|phi> (rad., in eV)
           1        1               -514.2564144315               -514.2564099626
           1        2                 15.1726678541                 15.1726530877
           1        3                -21.5447785304                -21.5447874973
           1        4                 14.4944558459                 14.4944698284
           1        5                 20.8882174564                 20.8882178906
           1        6                 -2.4850315909                 -2.4850322289
           1        7                 13.8600193195                 13.8599826966
           1        8                 45.8243383616                 45.8243383675
           1        9                 52.1840606465                 52.1840622440
           1       10                 85.4074185510                 85.4074185819
           1       11                142.0983717302                142.0983717339

  Preparing densities etc. for the partition functions (integrals / Hartree potential).

  Preparations completed.
  max(cpu_time)          :      0.069 s.
  Wall clock time (cpu1) :      0.069 s.
------------------------------------------------------------

------------------------------------------------------------
          Begin self-consistency loop: Initialization.

          Date     :  20190508, Time     :  152000.040
------------------------------------------------------------

  Initializing index lists of integration centers etc. from given atomic structure:
  | Number of centers in hartree potential         :         2
  | Number of centers in hartree multipole         :         2
  | Number of centers in electron density summation:         2
  | Number of centers in basis integrals           :         2
  | Number of centers in integrals                 :         2
  | Number of centers in hamiltonian               :         2
  Partitioning the integration grid into batches with maxmin method.
  | Maximal weight for a single point:     1.000
  | Minimal weight for a single point:     0.000
  | Number of batches:      489
  | Maximal batch size:     160
  | Minimal batch size:      76
  | Average batch size:      82.364
  | Standard deviation of batch sizes:      16.656
  Initializing partition tables, free-atom densities, potentials, etc. across the integration grid (initialize_grid_storage).
  | initialize_grid_storage: Actual outermost partition radius vs. multipole_radius_free
  | (-- VB: in principle, multipole_radius_free should be larger, hence this output)
  | Species        1: Confinement radius =              6.000000000000000 AA, multipole_radius_free =              6.064445521808699 AA.
  | Species        1: outer_partition_radius set to              6.064445521808699 AA .
  | Original list of interatomic distances with           2 x          2 entries is created.
  | Net number of integration points:    40276
  | of which are non-zero points    :    37372
  Renormalizing the initial density to the exact electron count on the 3D integration grid.
  | Initial density: Formal number of electrons (from input files) :      16.0000000000
  | Integrated number of electrons on 3D grid     :      15.9999999931
  | Charge integration error                      :      -0.0000000069
  | Normalization factor for density and gradient :       1.0000000004
  Obtaining max. number of non-zero basis functions in each batch (get_n_compute_maxes).
  | Maximal number of non-zero basis functions:       78 in task     0
  Selecting the method for density update.
  Loop over occupied states selected for charge density update.
  Allocating        0.009 MB for KS_eigenvector
  Integrating Hamiltonian matrix: batch-based integration.
  Time summed over all CPUs for integration: real work        0.155 s, elapsed        0.155 s
  Integrating overlap matrix.
  Time summed over all CPUs for integration: real work        0.065 s, elapsed        0.065 s

  Updating Kohn-Sham eigenvalues, eigenvectors, occupation numbers, and Fermi level.
  Solving generalized eigenproblem
  Updating Kohn-Sham eigenvalues and eigenfunctions.
  Transforming overlap matrix and checking for singularities.
  Overlap matrix is nonsingular:
  | Lowest eigenvalue:  0.906881E-04
  Solving real generalised eigenvalue problem by standard LAPACK (fast)

  Obtaining occupation numbers and chemical potential using ELSI.
  | Chemical potential (Fermi level):    -4.23258357eV
  Writing Kohn-Sham eigenvalues.

  State    Occupation    Eigenvalue [Ha]    Eigenvalue [eV]
      1       2.00000         -19.060199         -518.65440
      2       2.00000         -19.056889         -518.56434
      3       2.00000          -1.617940          -44.02639
      4       2.00000          -0.725762          -19.74898
      5       2.00000          -0.707959          -19.26456
      6       2.00000          -0.707959          -19.26456
      7       2.00000          -0.628850          -17.11189
      8       1.00000          -0.155545           -4.23258
      9       1.00000          -0.155545           -4.23258
     10       0.00000           0.079041            2.15081
     11       0.00000           0.107928            2.93686
     12       0.00000           0.110527            3.00759
     13       0.00000           0.110527            3.00759
     14       0.00000           0.198363            5.39772

  Highest occupied state (VBM) at     -4.23258357 eV
  | Occupation number:      1.00000000

  Lowest unoccupied state (CBM) at    -4.23258357 eV
  | Occupation number:      1.00000000

  Overall HOMO-LUMO gap:      0.00000000 eV.
  This system has fractional occupation numbers. Thus, it is a degenerate system
  within the approximate finite broadening function (occupation_type)
  applied to determine the occupation numbers.
  This may not be harmful. However, for some systems (free atoms), a different, non-degenerate
  ground state might exist by using a smaller broadening (see keyword occupation_type).
  Calculating total energy contributions from superposition of free atom densities.

  Total energy components:
  | Sum of eigenvalues            :         -85.32220679 Ha       -2321.73537528 eV
  | XC energy correction          :         -17.03230293 Ha        -463.47254400 eV
  | XC potential correction       :          21.91170536 Ha         596.24783958 eV
  | Free-atom electrostatic energy:         -69.50537796 Ha       -1891.33756453 eV
  | Hartree energy correction     :          -0.00000000 Ha          -0.00000000 eV
  | Entropy correction            :          -0.00020734 Ha          -0.00564190 eV
  | ---------------------------
  | Total energy                  :        -149.94818232 Ha       -4080.29764424 eV
  | Total energy, T -> 0          :        -149.94838966 Ha       -4080.30328613 eV  <-- do not rely on this value for anything but (periodic) metals
  | Electronic free energy        :        -149.94859699 Ha       -4080.30892803 eV

  Derived energy quantities:
  | Kinetic energy                :         150.81621271 Ha        4103.91795287 eV
  | Electrostatic energy          :        -283.73209210 Ha       -7720.74305310 eV
  | Energy correction for multipole
  | error in Hartree potential    :           0.00000000 Ha           0.00000000 eV
  | Sum of eigenvalues per atom                           :       -1160.86768764 eV
  | Total energy (T->0) per atom                          :       -2040.15164307 eV  <-- do not rely on this value for anything but (periodic) metals
  | Electronic free energy per atom                       :       -2040.15446401 eV
  
  --------------------------------------------
  Constructing auxiliary basis (full product) ...
  
  Product basis:
  | charge radius: extent of product basis function
  | field radius: extent of its Coulomb potential
  | Species   l  charge radius    field radius  multipol momen
  |    O      0     2.043000 A      2.043000 A       -1.781828E-16 a.u.
  |    O      7     3.498446 A      3.498446 A        2.650251E-14 a.u.
  |    O      6     3.585037 A      3.585037 A        8.000056E-15 a.u.
  |    O      6     3.718959 A      3.718959 A       -1.323618E-14 a.u.
  |    O      6     3.764702 A      3.764702 A       -1.434618E-15 a.u.
  |    O      4     3.811008 A      3.811008 A       -2.327337E-15 a.u.
  |    O      5     3.811008 A      3.811008 A        1.632748E-15 a.u.
  |    O      3     3.857883 A      3.857883 A       -5.588368E-17 a.u.
  |    O      5     3.857883 A      3.857883 A        1.839540E-15 a.u.
  |    O      5     3.905335 A      3.905335 A       -1.095650E-15 a.u.
  |    O      3     3.953371 A      3.953371 A       -3.378066E-16 a.u.
  |    O      3     3.953371 A      3.953371 A       -5.987319E-17 a.u.
  |    O      1     4.151495 A      4.151495 A        1.008067E-16 a.u.
  |    O      0     4.202559 A      4.202559 A       -6.282114E-17 a.u.
  |    O      0     4.202559 A      4.202559 A        2.675306E-18 a.u.
  |    O      4     4.359549 A      4.359549 A        2.387993E-15 a.u.
  |    O      3     4.413171 A      4.413171 A        7.001099E-16 a.u.
  |    O      4     4.413171 A      4.413171 A        6.266831E-15 a.u.
  |    O      0     4.467453 A      4.467453 A       -4.789785E-17 a.u.
  |    O      1     4.467453 A      4.467453 A        5.586211E-17 a.u.
  |    O      4     4.467453 A      4.467453 A        1.922420E-14 a.u.
  |    O      4     4.467453 A      4.467453 A       -2.376727E-14 a.u.
  |    O      1     4.578029 A      4.578029 A        3.716823E-17 a.u.
  |    O      2     4.578029 A      4.578029 A       -4.788482E-17 a.u.
  |    O      1     4.634338 A      4.634338 A        7.205207E-17 a.u.
  |    O      1     4.634338 A      4.634338 A        2.870493E-16 a.u.
  |    O      1     4.634338 A      4.634338 A        1.929464E-16 a.u.
  |    O      3     4.634338 A      4.634338 A        1.544388E-14 a.u.
  |    O      3     4.749044 A      4.749044 A        1.975407E-15 a.u.
  |    O      3     4.749044 A      4.749044 A       -1.158876E-15 a.u.
  |    O      0     4.987044 A      4.987044 A        1.387955E-16 a.u.
  |    O      0     4.987044 A      4.987044 A       -2.008649E-16 a.u.
  |    O      2     5.236971 A      5.236971 A       -6.502966E-17 a.u.
  |    O      2     5.236971 A      5.236971 A       -5.496496E-16 a.u.
  |    O      0     5.366593 A      5.432602 A       -1.134530E-17 a.u.
  |    O      1     5.432602 A      5.432602 A       -5.847501E-16 a.u.
  |    O      1     5.432602 A      5.432602 A       -8.194471E-16 a.u.
  |    O      2     5.432602 A      5.432602 A       -2.910367E-15 a.u.
  |    O      2     5.432602 A      5.432602 A        1.592924E-15 a.u.
  |    O      2     5.432602 A      5.432602 A        2.918999E-16 a.u.
  |    O      0     5.432602 A      5.499423 A        4.657869E-16 a.u.
  |    O      1     5.432602 A      5.499423 A        4.774404E-17 a.u.
  |    O      2     5.432602 A      5.499423 A        4.549613E-15 a.u.
  |    O      2     5.432602 A      5.499423 A       -3.146860E-16 a.u.
  |    O      8     3.372465 A  2.352329E+01 A           53.933996 a.u.
  |    O      7     3.541477 A  4.005749E+01 A           85.792738 a.u.
  |    O      6     3.811008 A  8.478793E+01 A          215.734909 a.u.
  |    O      5     3.905335 A  1.625761E+02 A           66.915101 a.u.
  |    O      4     4.522403 A  5.114585E+02 A           67.117585 a.u.
  |    O      3     4.807458 A  2.586410E+03 A           45.412481 a.u.
  |    O      2     5.499423 A  2.884717E+04 A           12.891294 a.u.
  |    O      1     5.432602 A  2.966726E+06 A            2.501167 a.u.
  |    O      0     5.432602 A  4.309228E+12 A            0.648020 a.u.

  | Shrink_full_auxil_basis : there are       53  radial auxiliary wave functions
                            accepted and      97 rejected.
  | Shrink_full_auxil_basis : there are totally                 674 partial auxiliary wave functions.
  prodbas_tasks_distribution_pbc not up to date - distributing tasks.

  | Number of product basis functions per thread :   674
  Parallel distribution of product basis not up to date - distributing tasks.

  | Number of product basis functions per thread :   674
  | Minimal requirement for computer memory :           0.019 Gbs
  -----------------------------------------
  --- Initializing Fock matrix calculations
  -----------------------------------------
  screening_threshold (crit_val) =  0.000000100000
  coul_mat_threshold =  0.000000000100
  Number of super-cells in X Y Z:       0       0       0
  Number of atoms pairs total:            4
  Atom pair distribution:
  Cell:        0       0       0 atom pairs:        4
  Number of atoms pairs in BvK cells:            4
  Initializing work distribution for fock matrix calculation
  -----------------------------------------------------
  Dividing atoms among tasks for exact exchange energy:
  Atom:     1 Weight:   337.00
  Atom:     2 Weight:   337.00

  Average weight per task:   674.00

  Number of "big" (above average) atoms  :     0
  Number of "small" (below average) atoms:     2

  All atoms have below average work per task
  No atom will be divided among tasks, atoms will be sorted to get best load distribution

  Atom division among tasks:
  Atom     1: (initial) task:     0, # of tasks:     1
  Atom     2: (initial) task:     0, # of tasks:     1

  -----------------------------------------------------
  Task     0 : Coulomb matrix distribution changed.
  Overall Coulomb matrix distribution changed.
  Coulomb matrix subdivision:
  Task     0 works on full atoms (no Coulomb matrix division)
  Task      0: my_n_atoms:      2 my_atom_list:      1     2
  Task      0: my_n_atom_pairs:      4
  Memory needs for ovlp3fn and Coulomb matrix:
  For Coulomb matrix, this is the upper limit if no compression occurs
  ovlp3fn:       16.402 MB, Coulomb:        3.634 MB
  --- Initializing LVL triples
  | Storage requirements for basis-basbas products (processor-local):
  |   Species O: n_prodsfn:  1094; storage:       34.19 MiB.

  --- Initializing Coulomb matrix calculations
  Preparing TB like auxiliary 2-center Coulomb matrix
  SBT integration errors (all should be 'small'):
  large logFT aliasing -> increase N/lnrange
  large SBT aliasing -> decrease lnk0 & increase lnk0+lnrange
  large SBT ringing -> decrease lnr0 & increase lnr0+lnrange
  |            El't  L: logFT-al.   small-k   large-k   small-r   large-r
  | Need to store  3595 splines of   232 points taking       6576 KiB.
  | Spline reduction from  4096 to   232 points by (cutting and)     1 x coarsening gives error:  0.00E+00
  Finished with initialize_tb_auxmat/lvl_triples, time:        0.716
  --- Calculating OVLP3FN
  Allocating        8.201 MB for coeff_3fn
  --- Done calculating OVLP3FN, time:        4.347
  Atomic logSBT for LVL-triples                :  max(cpu_time)    wall_clock(cpu1)
  | Multiplication with kernel                 :        0.003 s           0.005 s
  | Main matrix multiplication                 :        0.444 s           0.450 s
  | Analytic angular integration               :        0.005 s           0.002 s
  | Kernel construction                        :        0.002 s           0.003 s
  | Overall 2-center overlap time              :        0.474 s           0.474 s
  | 3-center preparation multiplications       :        0.078 s           0.077 s
  | 3-center preparation SBTs                  :        1.223 s           1.225 s
  | 3-center combinations                      :        0.559 s           0.558 s
  | Overal 3-center time                       :        1.868 s           1.868 s
  | LVL initialization                         :        0.061 s           0.061 s
  | Whole LVL-triples                          :        0.061 s           0.061 s

  --- Done getting norm of OVLP3FN, time:        0.002
  --- Calculating Coulomb matrices
  Allocating        0.909 MB for aux_mat
  Time to calculate Coulomb Matrices   :        0.004
  Number of Coulomb matrix elements:
  | Task     0 total:         454276, > threshold:          26400, stored:         454276
  --- Done init_fock_matrix_calculations
  Atomic logSBT for 2-center Coulomb matrix    :  max(cpu_time)    wall_clock(cpu1)
  | TB initialization                          :        0.655 s           0.655 s
  | TB usage                                   :        0.007 s           0.007 s

  Calculating non-local Hartree-Fock exchange by two-center RI (RI-LVL).
  screening_threshold (crit_val) =  0.000000100000
  Allocating        0.049 MB for dm_cols
  Allocating        0.421 MB for ovlp3fn_rcv
  Allocating        0.049 MB for fock_matrix
  Allocating        0.001 MB for fock_matrix_row
  Exact exchange progress report - outermost basis function loop i_basis_r1: 1 ..  78
  |        1         2         3         4         5         6         7         8         9        10
  |       11        12        13        14        15        16        17        18        19        20
  |       21        22        23        24        25        26        27        28        29        30
  |       31        32        33        34        35        36        37        38        39        40
  |       41        42        43        44        45        46        47        48        49        50
  |       51        52        53        54        55        56        57        58        59        60
  |       61        62        63        64        65        66        67        68        69        70
  |       71        72        73        74        75        76        77        78  
  Full exact exchange energy:     453.160298636552 eV.
  Times            DM_x_o3fn   CM_x_o3fn    Products        Sync   Imbalance    Pre/Post       Other  Total calc
  | Times    0:        0.074       1.933       0.404       0.001       0.000       0.000       0.029       2.441
  | Times  sum:        0.074       1.933       0.404       0.001       0.000       0.000       0.029       2.441

  Decomposition of Other based on code block (only on MPI task 0):
  Times             Block #1    Block #2    Block #3    Block #4    Block #5    Block #6    Block #7    Block #8
  | Times    0:        0.000       0.000       0.002       0.000       0.000       0.000       0.005       0.000

  Times             Block #9   Block #10   Block #11   Block #12   Block #13   Block #14   Block #15   Block #16
  | Times    0:        0.001       0.003       0.001       0.004       0.004       0.001       0.000       0.000

  Times            Block Sum    Expected
  | Times    0:        0.021       0.029
  Initialize hartree_potential_storage
  Max. number of atoms included in rho_multipole:            2

  End scf initialization - timings             :  max(cpu_time)    wall_clock(cpu1)
  | Time for scf. initialization               :        7.845 s           7.845 s
  | Boundary condition initialization          :        0.000 s           0.000 s
  | Integration                                :        0.220 s           0.220 s
  | Solution of K.-S. eqns.                    :        0.004 s           0.004 s
  | Grid partitioning                          :        0.034 s           0.034 s
  | Preloading free-atom quantities on grid    :        0.003 s           0.003 s
  | Free-atom superposition energy             :        0.027 s           0.027 s
  | Total energy evaluation                    :        0.000 s           0.000 s
  | Product basis setup: Total time            :        7.538 s           7.538 s

  Partial memory accounting:
  | Current value for overall tracked memory usage on task 0  :          20.203 MB
  | Peak value for overall tracked memory usage on task 0     :          24.759 MB after allocating d_coeff_3fn
  | Largest tracked array allocation on task 0 so far         :           8.201 MB  when allocating ovlp3fn for atom
  Note:  These values currently only include a subset of arrays which are explicitly tracked.
  The "true" memory usage will be greater.
------------------------------------------------------------

------------------------------------------------------------
          Begin self-consistency iteration #    1

  Date     :  20190508, Time     :  152007.885
------------------------------------------------------------
  Evaluating new KS density.
  Integration grid: deviation in total charge (<rho> - N_e) =  -9.237056E-14
  Pulay mixing of updated and previous charge densities.

  Evaluating partitioned Hartree potential by multipole expansion.
  | Analytical far-field extrapolation by fixed multipoles:
  | Hartree multipole sum: apparent total charge =  -0.259213E-07
  Summing up the Hartree potential.
  Time summed over all CPUs for potential: real work        0.029 s, elapsed        0.030 s
  | RMS charge density error from multipole expansion :   0.261833E-03

  Integrating Hamiltonian matrix: batch-based integration.
  Time summed over all CPUs for integration: real work        0.179 s, elapsed        0.179 s
  Calculating non-local Hartree-Fock exchange by two-center RI (RI-LVL).
  screening_threshold (crit_val) =  0.000000100000
  Allocating        0.049 MB for dm_cols
  Allocating        0.421 MB for ovlp3fn_rcv
  Allocating        0.049 MB for fock_matrix
  Allocating        0.001 MB for fock_matrix_row
  Exact exchange progress report - outermost basis function loop i_basis_r1: 1 ..  78
  |        1         2         3         4         5         6         7         8         9        10
  |       11        12        13        14        15        16        17        18        19        20
  |       21        22        23        24        25        26        27        28        29        30
  |       31        32        33        34        35        36        37        38        39        40
  |       41        42        43        44        45        46        47        48        49        50
  |       51        52        53        54        55        56        57        58        59        60
  |       61        62        63        64        65        66        67        68        69        70
  |       71        72        73        74        75        76        77        78  
  Full exact exchange energy:     453.160298636552 eV.
  Times            DM_x_o3fn   CM_x_o3fn    Products        Sync   Imbalance    Pre/Post       Other  Total calc
  | Times    0:        0.069       1.955       0.398       0.001       0.001       0.001       0.034       2.459
  | Times  sum:        0.069       1.955       0.398       0.001       0.001       0.001       0.034       2.459

  Decomposition of Other based on code block (only on MPI task 0):
  Times             Block #1    Block #2    Block #3    Block #4    Block #5    Block #6    Block #7    Block #8
  | Times    0:        0.000       0.000       0.001       0.001       0.001       0.000       0.009       0.000

  Times             Block #9   Block #10   Block #11   Block #12   Block #13   Block #14   Block #15   Block #16
  | Times    0:        0.001       0.001       0.000       0.003       0.006       0.002       0.001       0.000

  Times            Block Sum    Expected
  | Times    0:        0.026       0.034

  Updating Kohn-Sham eigenvalues, eigenvectors, occupation numbers, and Fermi level.
  Solving generalized eigenproblem
  Updating Kohn-Sham eigenvalues and eigenfunctions.
  Solving real generalised eigenvalue problem by standard LAPACK (fast)

  Obtaining occupation numbers and chemical potential using ELSI.
  | Chemical potential (Fermi level):    -4.22172445eV
  Writing Kohn-Sham eigenvalues.

  State    Occupation    Eigenvalue [Ha]    Eigenvalue [eV]
      1       2.00000         -19.501177         -530.65403
      2       2.00000         -19.497131         -530.54393
      3       2.00000          -1.757107          -47.81330
      4       2.00000          -0.826997          -22.50373
      5       2.00000          -0.785935          -21.38639
      6       2.00000          -0.785935          -21.38639
      7       2.00000          -0.717402          -19.52149
      8       1.00000          -0.155146           -4.22172
      9       1.00000          -0.155146           -4.22172
     10       0.00000           0.108672            2.95712
     11       0.00000           0.135050            3.67490
     12       0.00000           0.140160            3.81396
     13       0.00000           0.140160            3.81396
     14       0.00000           0.228649            6.22187

  Highest occupied state (VBM) at     -4.22172445 eV
  | Occupation number:      1.00000000

  Lowest unoccupied state (CBM) at    -4.22172445 eV
  | Occupation number:      1.00000000

  Overall HOMO-LUMO gap:      0.00000000 eV.
  This system has fractional occupation numbers. Thus, it is a degenerate system
  within the approximate finite broadening function (occupation_type)
  applied to determine the occupation numbers.
  This may not be harmful. However, for some systems (free atoms), a different, non-degenerate
  ground state might exist by using a smaller broadening (see keyword occupation_type).

  Total energy components:
  | Sum of eigenvalues            :         -88.05365886 Ha       -2396.06196777 eV
  | XC energy correction          :          -8.76793524 Ha        -238.58765709 eV
  | XC potential correction       :          16.64170872 Ha         452.84393461 eV
  | Free-atom electrostatic energy:         -69.50537796 Ha       -1891.33756453 eV
  | Hartree energy correction     :          -0.19557822 Ha          -5.32195405 eV
  | Entropy correction            :          -0.00020734 Ha          -0.00564190 eV
  | ---------------------------
  | Total energy                  :        -149.88084156 Ha       -4078.46520883 eV
  | Total energy, T -> 0          :        -149.88104889 Ha       -4078.47085073 eV  <-- do not rely on this value for anything but (periodic) metals
  | Electronic free energy        :        -149.88125623 Ha       -4078.47649263 eV

  Derived energy quantities:
  | Kinetic energy                :         176.05093108 Ha        4790.58957730 eV
  | Electrostatic energy          :        -283.87206932 Ha       -7724.55202706 eV
  | Energy correction for multipole
  | error in Hartree potential    :          -0.00035959 Ha          -0.00978503 eV
  | Sum of eigenvalues per atom                           :       -1198.03098388 eV
  | Total energy (T->0) per atom                          :       -2039.23542537 eV  <-- do not rely on this value for anything but (periodic) metals
  | Electronic free energy per atom                       :       -2039.23824631 eV

  Self-consistency convergence accuracy:
  | Change of charge density      :  0.2932E+00
  | Change of sum of eigenvalues  : -0.7433E+02 eV
  | Change of total energy        :  0.1832E+01 eV

  End self-consistency iteration #     1       :  max(cpu_time)    wall_clock(cpu1)
  | Time for this iteration                    :        2.786 s           2.786 s
  | Charge density update                      :        0.113 s           0.113 s
  | Density mixing                             :        0.001 s           0.002 s
  | Hartree multipole update                   :        0.003 s           0.002 s
  | Hartree multipole summation                :        0.029 s           0.030 s
  | Integration                                :        0.180 s           0.179 s
  | Fock matrix evaluation                     :        2.458 s           2.459 s
  | Solution of K.-S. eqns.                    :        0.001 s           0.001 s
  | Total energy evaluation                    :        0.000 s           0.000 s

  Partial memory accounting:
  | Current value for overall tracked memory usage on task 0  :          20.203 MB
  | Peak value for overall tracked memory usage on task 0     :          24.759 MB after allocating d_coeff_3fn
  | Largest tracked array allocation on task 0 so far         :           8.201 MB  when allocating ovlp3fn for atom
  Note:  These values currently only include a subset of arrays which are explicitly tracked.
  The "true" memory usage will be greater.
------------------------------------------------------------

------------------------------------------------------------
          Begin self-consistency iteration #    2

  Date     :  20190508, Time     :  152010.671
------------------------------------------------------------
  Evaluating new KS density.
  Integration grid: deviation in total charge (<rho> - N_e) =  -2.131628E-14
  Pulay mixing of updated and previous charge densities.

  Evaluating partitioned Hartree potential by multipole expansion.
  | Analytical far-field extrapolation by fixed multipoles:
  | Hartree multipole sum: apparent total charge =  -0.766772E-07
  Summing up the Hartree potential.
  Time summed over all CPUs for potential: real work        0.026 s, elapsed        0.026 s
  | RMS charge density error from multipole expansion :   0.210761E-02

  Integrating Hamiltonian matrix: batch-based integration.
  Time summed over all CPUs for integration: real work        0.151 s, elapsed        0.151 s
  Calculating non-local Hartree-Fock exchange by two-center RI (RI-LVL).
  screening_threshold (crit_val) =  0.000000100000
  Allocating        0.049 MB for dm_cols
  Allocating        0.421 MB for ovlp3fn_rcv
  Allocating        0.049 MB for fock_matrix
  Allocating        0.001 MB for fock_matrix_row
  Exact exchange progress report - outermost basis function loop i_basis_r1: 1 ..  78
  |        1         2         3         4         5         6         7         8         9        10
  |       11        12        13        14        15        16        17        18        19        20
  |       21        22        23        24        25        26        27        28        29        30
  |       31        32        33        34        35        36        37        38        39        40
  |       41        42        43        44        45        46        47        48        49        50
  |       51        52        53        54        55        56        57        58        59        60
  |       61        62        63        64        65        66        67        68        69        70
  |       71        72        73        74        75        76        77        78  
  Full exact exchange energy:     452.764799014161 eV.
  Times            DM_x_o3fn   CM_x_o3fn    Products        Sync   Imbalance    Pre/Post       Other  Total calc
  | Times    0:        0.067       1.990       0.394       0.001       0.001       0.001       0.038       2.492
  | Times  sum:        0.067       1.990       0.394       0.001       0.001       0.001       0.038       2.492

  Decomposition of Other based on code block (only on MPI task 0):
  Times             Block #1    Block #2    Block #3    Block #4    Block #5    Block #6    Block #7    Block #8
  | Times    0:        0.000       0.000       0.001       0.001       0.000       0.001       0.010       0.000

  Times             Block #9   Block #10   Block #11   Block #12   Block #13   Block #14   Block #15   Block #16
  | Times    0:        0.003       0.002       0.003       0.007       0.002       0.001       0.000       0.000

  Times            Block Sum    Expected
  | Times    0:        0.031       0.038

  Updating Kohn-Sham eigenvalues, eigenvectors, occupation numbers, and Fermi level.
  Solving generalized eigenproblem
  Updating Kohn-Sham eigenvalues and eigenfunctions.
  Solving real generalised eigenvalue problem by standard LAPACK (fast)

  Obtaining occupation numbers and chemical potential using ELSI.
  | Chemical potential (Fermi level):    -2.68071045eV
  Highest occupied state (VBM) at     -2.68071045 eV
  | Occupation number:      1.00000003

  Lowest unoccupied state (CBM) at    -2.68071045 eV
  | Occupation number:      0.99999997

  Overall HOMO-LUMO gap:      0.00000000 eV.
  This system has fractional occupation numbers. Thus, it is a degenerate system
  within the approximate finite broadening function (occupation_type)
  applied to determine the occupation numbers.
  This may not be harmful. However, for some systems (free atoms), a different, non-degenerate
  ground state might exist by using a smaller broadening (see keyword occupation_type).

  Checking to see if s.c.f. parameters should be adjusted.
  Adjusted the Pulay mixing parameter (charge_mix_param) for an expected low-gap system. New value:   0.020000 .
  Adjusted the occupation broadening width for an expected low-gap system. New value:      0.05000000 eV.

  Total energy components:
  | Sum of eigenvalues            :         -86.72662826 Ha       -2359.95162806 eV
  | XC energy correction          :          -8.90157015 Ha        -242.22404805 eV
  | XC potential correction       :          16.78880342 Ha         456.84658517 eV
  | Free-atom electrostatic energy:         -69.50537796 Ha       -1891.33756453 eV
  | Hartree energy correction     :          -1.52183718 Ha         -41.41129669 eV
  | Entropy correction            :          -0.00103668 Ha          -0.02820948 eV
  | ---------------------------
  | Total energy                  :        -149.86661014 Ha       -4078.07795216 eV
  | Total energy, T -> 0          :        -149.86764682 Ha       -4078.10616164 eV  <-- do not rely on this value for anything but (periodic) metals
  | Electronic free energy        :        -149.86868350 Ha       -4078.13437112 eV

  Derived energy quantities:
  | Kinetic energy                :         176.95167370 Ha        4815.10003100 eV
  | Electrostatic energy          :        -284.79438627 Ha       -7749.64954836 eV
  | Energy correction for multipole
  | error in Hartree potential    :          -0.00299377 Ha          -0.08146465 eV
  | Sum of eigenvalues per atom                           :       -1179.97581403 eV
  | Total energy (T->0) per atom                          :       -2039.05308082 eV  <-- do not rely on this value for anything but (periodic) metals
  | Electronic free energy per atom                       :       -2039.06718556 eV

  Self-consistency convergence accuracy:
  | Change of charge density      :  0.2690E+00
  | Change of sum of eigenvalues  :  0.3611E+02 eV
  | Change of total energy        :  0.3873E+00 eV

  End self-consistency iteration #     2       :  max(cpu_time)    wall_clock(cpu1)
  | Time for this iteration                    :        2.783 s           2.783 s
  | Charge density update                      :        0.108 s           0.108 s
  | Density mixing                             :        0.001 s           0.001 s
  | Hartree multipole update                   :        0.002 s           0.003 s
  | Hartree multipole summation                :        0.027 s           0.026 s
  | Integration                                :        0.151 s           0.151 s
  | Fock matrix evaluation                     :        2.492 s           2.493 s
  | Solution of K.-S. eqns.                    :        0.001 s           0.001 s
  | Total energy evaluation                    :        0.000 s           0.000 s

  Partial memory accounting:
  | Current value for overall tracked memory usage on task 0  :          20.204 MB
  | Peak value for overall tracked memory usage on task 0     :          24.759 MB after allocating d_coeff_3fn
  | Largest tracked array allocation on task 0 so far         :           8.201 MB  when allocating ovlp3fn for atom
  Note:  These values currently only include a subset of arrays which are explicitly tracked.
  The "true" memory usage will be greater.
------------------------------------------------------------

------------------------------------------------------------
          Begin self-consistency iteration #    3

  Date     :  20190508, Time     :  152013.454
------------------------------------------------------------
  Evaluating new KS density.
  Integration grid: deviation in total charge (<rho> - N_e) =   4.973799E-14
  Pulay mixing of updated and previous charge densities.

  Evaluating partitioned Hartree potential by multipole expansion.
  | Analytical far-field extrapolation by fixed multipoles:
  | Hartree multipole sum: apparent total charge =  -0.116543E-06
  Summing up the Hartree potential.
  Time summed over all CPUs for potential: real work        0.027 s, elapsed        0.027 s
  | RMS charge density error from multipole expansion :   0.308335E-02

  Integrating Hamiltonian matrix: batch-based integration.
  Time summed over all CPUs for integration: real work        0.148 s, elapsed        0.148 s
  Calculating non-local Hartree-Fock exchange by two-center RI (RI-LVL).
  screening_threshold (crit_val) =  0.000000100000
  Allocating        0.049 MB for dm_cols
  Allocating        0.421 MB for ovlp3fn_rcv
  Allocating        0.049 MB for fock_matrix
  Allocating        0.001 MB for fock_matrix_row
  Exact exchange progress report - outermost basis function loop i_basis_r1: 1 ..  78
  |        1         2         3         4         5         6         7         8         9        10
  |       11        12        13        14        15        16        17        18        19        20
  |       21        22        23        24        25        26        27        28        29        30
  |       31        32        33        34        35        36        37        38        39        40
  |       41        42        43        44        45        46        47        48        49        50
  |       51        52        53        54        55        56        57        58        59        60
  |       61        62        63        64        65        66        67        68        69        70
  |       71        72        73        74        75        76        77        78  
  Full exact exchange energy:     448.470194725421 eV.
  Times            DM_x_o3fn   CM_x_o3fn    Products        Sync   Imbalance    Pre/Post       Other  Total calc
  | Times    0:        0.082       1.941       0.404       0.000       0.000       0.000       0.031       2.458
  | Times  sum:        0.082       1.941       0.404       0.000       0.000       0.000       0.031       2.458

  Decomposition of Other based on code block (only on MPI task 0):
  Times             Block #1    Block #2    Block #3    Block #4    Block #5    Block #6    Block #7    Block #8
  | Times    0:        0.000       0.000       0.000       0.000       0.000       0.001       0.006       0.000

  Times             Block #9   Block #10   Block #11   Block #12   Block #13   Block #14   Block #15   Block #16
  | Times    0:        0.002       0.002       0.002       0.004       0.004       0.000       0.000       0.000

  Times            Block Sum    Expected
  | Times    0:        0.021       0.031

  Updating Kohn-Sham eigenvalues, eigenvectors, occupation numbers, and Fermi level.
  Solving generalized eigenproblem
  Updating Kohn-Sham eigenvalues and eigenfunctions.
  Solving real generalised eigenvalue problem by standard LAPACK (fast)

  Obtaining occupation numbers and chemical potential using ELSI.
  | Chemical potential (Fermi level):    -1.96110645eV
  Highest occupied state (VBM) at     -1.96110645 eV
  | Occupation number:      1.00000004

  Lowest unoccupied state (CBM) at    -1.96110645 eV
  | Occupation number:      0.99999996

  Overall HOMO-LUMO gap:      0.00000000 eV.
  This system has fractional occupation numbers. Thus, it is a degenerate system
  within the approximate finite broadening function (occupation_type)
  applied to determine the occupation numbers.
  This may not be harmful. However, for some systems (free atoms), a different, non-degenerate
  ground state might exist by using a smaller broadening (see keyword occupation_type).

  Total energy components:
  | Sum of eigenvalues            :         -86.08740061 Ha       -2342.55735870 eV
  | XC energy correction          :          -8.97086621 Ha        -244.10968979 eV
  | XC potential correction       :          16.86306098 Ha         458.86723624 eV
  | Free-atom electrostatic energy:         -69.50537796 Ha       -1891.33756453 eV
  | Hartree energy correction     :          -2.17322835 Ha         -59.13655229 eV
  | Entropy correction            :          -0.00103668 Ha          -0.02820948 eV
  | ---------------------------
  | Total energy                  :        -149.87381216 Ha       -4078.27392907 eV
  | Total energy, T -> 0          :        -149.87484884 Ha       -4078.30213855 eV  <-- do not rely on this value for anything but (periodic) metals
  | Electronic free energy        :        -149.87588552 Ha       -4078.33034803 eV

  Derived energy quantities:
  | Kinetic energy                :         177.34629347 Ha        4825.83818114 eV
  | Electrostatic energy          :        -285.22675265 Ha       -7761.41483594 eV
  | Energy correction for multipole
  | error in Hartree potential    :          -0.00441218 Ha          -0.12006151 eV
  | Sum of eigenvalues per atom                           :       -1171.27867935 eV
  | Total energy (T->0) per atom                          :       -2039.15106927 eV  <-- do not rely on this value for anything but (periodic) metals
  | Electronic free energy per atom                       :       -2039.16517401 eV

  Self-consistency convergence accuracy:
  | Change of charge density      :  0.1116E+00
  | Change of sum of eigenvalues  :  0.1739E+02 eV
  | Change of total energy        : -0.1960E+00 eV

  End self-consistency iteration #     3       :  max(cpu_time)    wall_clock(cpu1)
  | Time for this iteration                    :        2.744 s           2.745 s
  | Charge density update                      :        0.105 s           0.106 s
  | Density mixing                             :        0.002 s           0.002 s
  | Hartree multipole update                   :        0.002 s           0.002 s
  | Hartree multipole summation                :        0.027 s           0.027 s
  | Integration                                :        0.148 s           0.148 s
  | Fock matrix evaluation                     :        2.458 s           2.458 s
  | Solution of K.-S. eqns.                    :        0.001 s           0.001 s
  | Total energy evaluation                    :        0.000 s           0.000 s

  Partial memory accounting:
  | Current value for overall tracked memory usage on task 0  :          20.205 MB
  | Peak value for overall tracked memory usage on task 0     :          24.759 MB after allocating d_coeff_3fn
  | Largest tracked array allocation on task 0 so far         :           8.201 MB  when allocating ovlp3fn for atom
  Note:  These values currently only include a subset of arrays which are explicitly tracked.
  The "true" memory usage will be greater.
------------------------------------------------------------

------------------------------------------------------------
          Begin self-consistency iteration #    4

  Date     :  20190508, Time     :  152016.199
------------------------------------------------------------
  Evaluating new KS density.
  Integration grid: deviation in total charge (<rho> - N_e) =   0.000000E+00
  Pulay mixing of updated and previous charge densities.

  Evaluating partitioned Hartree potential by multipole expansion.
  | Analytical far-field extrapolation by fixed multipoles:
  | Hartree multipole sum: apparent total charge =  -0.326516E-06
  Summing up the Hartree potential.
  Time summed over all CPUs for potential: real work        0.026 s, elapsed        0.026 s
  | RMS charge density error from multipole expansion :   0.393897E-02

  Integrating Hamiltonian matrix: batch-based integration.
  Time summed over all CPUs for integration: real work        0.150 s, elapsed        0.150 s
  Calculating non-local Hartree-Fock exchange by two-center RI (RI-LVL).
  screening_threshold (crit_val) =  0.000000100000
  Allocating        0.049 MB for dm_cols
  Allocating        0.421 MB for ovlp3fn_rcv
  Allocating        0.049 MB for fock_matrix
  Allocating        0.001 MB for fock_matrix_row
  Exact exchange progress report - outermost basis function loop i_basis_r1: 1 ..  78
  |        1         2         3         4         5         6         7         8         9        10
  |       11        12        13        14        15        16        17        18        19        20
  |       21        22        23        24        25        26        27        28        29        30
  |       31        32        33        34        35        36        37        38        39        40
  |       41        42        43        44        45        46        47        48        49        50
  |       51        52        53        54        55        56        57        58        59        60
  |       61        62        63        64        65        66        67        68        69        70
  |       71        72        73        74        75        76        77        78  
  Full exact exchange energy:     446.200256135317 eV.
  Times            DM_x_o3fn   CM_x_o3fn    Products        Sync   Imbalance    Pre/Post       Other  Total calc
  | Times    0:        0.071       1.951       0.398       0.002       0.001       0.000       0.031       2.454
  | Times  sum:        0.071       1.951       0.398       0.002       0.001       0.000       0.031       2.454

  Decomposition of Other based on code block (only on MPI task 0):
  Times             Block #1    Block #2    Block #3    Block #4    Block #5    Block #6    Block #7    Block #8
  | Times    0:        0.000       0.000       0.001       0.000       0.002       0.001       0.005       0.000

  Times             Block #9   Block #10   Block #11   Block #12   Block #13   Block #14   Block #15   Block #16
  | Times    0:        0.000       0.002       0.004       0.002       0.004       0.001       0.002       0.000

  Times            Block Sum    Expected
  | Times    0:        0.024       0.031

  Updating Kohn-Sham eigenvalues, eigenvectors, occupation numbers, and Fermi level.
  Solving generalized eigenproblem
  Updating Kohn-Sham eigenvalues and eigenfunctions.
  Solving real generalised eigenvalue problem by standard LAPACK (fast)

  Obtaining occupation numbers and chemical potential using ELSI.
  | Chemical potential (Fermi level):    -2.79833923eV
  Highest occupied state (VBM) at     -2.79833926 eV
  | Occupation number:      1.00000069

  Lowest unoccupied state (CBM) at    -2.79833920 eV
  | Occupation number:      0.99999931

  Overall HOMO-LUMO gap:      0.00000006 eV.
  This system has fractional occupation numbers. Thus, it is a degenerate system
  within the approximate finite broadening function (occupation_type)
  applied to determine the occupation numbers.
  This may not be harmful. However, for some systems (free atoms), a different, non-degenerate
  ground state might exist by using a smaller broadening (see keyword occupation_type).

  Total energy components:
  | Sum of eigenvalues            :         -86.84622862 Ha       -2363.20611930 eV
  | XC energy correction          :          -8.92203539 Ha        -242.78093556 eV
  | XC potential correction       :          16.78484430 Ha         456.73885196 eV
  | Free-atom electrostatic energy:         -69.50537796 Ha       -1891.33756453 eV
  | Hartree energy correction     :          -1.35743829 Ha         -36.93777525 eV
  | Entropy correction            :          -0.00103668 Ha          -0.02820948 eV
  | ---------------------------
  | Total energy                  :        -149.84623596 Ha       -4077.52354269 eV
  | Total energy, T -> 0          :        -149.84727264 Ha       -4077.55175217 eV  <-- do not rely on this value for anything but (periodic) metals
  | Electronic free energy        :        -149.84830932 Ha       -4077.57996165 eV

  Derived energy quantities:
  | Kinetic energy                :         176.58213976 Ha        4805.04450096 eV
  | Electrostatic energy          :        -284.56782449 Ha       -7743.48448841 eV
  | Energy correction for multipole
  | error in Hartree potential    :          -0.00604577 Ha          -0.16451365 eV
  | Sum of eigenvalues per atom                           :       -1181.60305965 eV
  | Total energy (T->0) per atom                          :       -2038.77587609 eV  <-- do not rely on this value for anything but (periodic) metals
  | Electronic free energy per atom                       :       -2038.78998083 eV

  Self-consistency convergence accuracy:
  | Change of charge density      :  0.7068E-01
  | Change of sum of eigenvalues  : -0.2065E+02 eV
  | Change of total energy        :  0.7504E+00 eV

  End self-consistency iteration #     4       :  max(cpu_time)    wall_clock(cpu1)
  | Time for this iteration                    :        2.741 s           2.741 s
  | Charge density update                      :        0.104 s           0.104 s
  | Density mixing                             :        0.002 s           0.003 s
  | Hartree multipole update                   :        0.002 s           0.002 s
  | Hartree multipole summation                :        0.026 s           0.026 s
  | Integration                                :        0.150 s           0.150 s
  | Fock matrix evaluation                     :        2.454 s           2.454 s
  | Solution of K.-S. eqns.                    :        0.001 s           0.002 s
  | Total energy evaluation                    :        0.000 s           0.000 s

  Partial memory accounting:
  | Current value for overall tracked memory usage on task 0  :          20.205 MB
  | Peak value for overall tracked memory usage on task 0     :          24.759 MB after allocating d_coeff_3fn
  | Largest tracked array allocation on task 0 so far         :           8.201 MB  when allocating ovlp3fn for atom
  Note:  These values currently only include a subset of arrays which are explicitly tracked.
  The "true" memory usage will be greater.
------------------------------------------------------------

------------------------------------------------------------
          Begin self-consistency iteration #    5

  Date     :  20190508, Time     :  152018.940
------------------------------------------------------------
  Evaluating new KS density.
  Integration grid: deviation in total charge (<rho> - N_e) =  -7.815970E-14
  Pulay mixing of updated and previous charge densities.

  Evaluating partitioned Hartree potential by multipole expansion.
  | Analytical far-field extrapolation by fixed multipoles:
  | Hartree multipole sum: apparent total charge =  -0.365365E-06
  Summing up the Hartree potential.
  Time summed over all CPUs for potential: real work        0.027 s, elapsed        0.027 s
  | RMS charge density error from multipole expansion :   0.448515E-02

  Integrating Hamiltonian matrix: batch-based integration.
  Time summed over all CPUs for integration: real work        0.150 s, elapsed        0.150 s
  Calculating non-local Hartree-Fock exchange by two-center RI (RI-LVL).
  screening_threshold (crit_val) =  0.000000100000
  Allocating        0.049 MB for dm_cols
  Allocating        0.421 MB for ovlp3fn_rcv
  Allocating        0.049 MB for fock_matrix
  Allocating        0.001 MB for fock_matrix_row
  Exact exchange progress report - outermost basis function loop i_basis_r1: 1 ..  78
  |        1         2         3         4         5         6         7         8         9        10
  |       11        12        13        14        15        16        17        18        19        20
  |       21        22        23        24        25        26        27        28        29        30
  |       31        32        33        34        35        36        37        38        39        40
  |       41        42        43        44        45        46        47        48        49        50
  |       51        52        53        54        55        56        57        58        59        60
  |       61        62        63        64        65        66        67        68        69        70
  |       71        72        73        74        75        76        77        78  
  Full exact exchange energy:     447.887042769550 eV.
  Times            DM_x_o3fn   CM_x_o3fn    Products        Sync   Imbalance    Pre/Post       Other  Total calc
  | Times    0:        0.079       1.966       0.409       0.001       0.004       0.000       0.039       2.498
  | Times  sum:        0.079       1.966       0.409       0.001       0.004       0.000       0.039       2.498

  Decomposition of Other based on code block (only on MPI task 0):
  Times             Block #1    Block #2    Block #3    Block #4    Block #5    Block #6    Block #7    Block #8
  | Times    0:        0.000       0.000       0.002       0.000       0.001       0.002       0.004       0.001

  Times             Block #9   Block #10   Block #11   Block #12   Block #13   Block #14   Block #15   Block #16
  | Times    0:        0.002       0.003       0.001       0.004       0.004       0.000       0.000       0.000

  Times            Block Sum    Expected
  | Times    0:        0.024       0.039

  Updating Kohn-Sham eigenvalues, eigenvectors, occupation numbers, and Fermi level.
  Solving generalized eigenproblem
  Updating Kohn-Sham eigenvalues and eigenfunctions.
  Solving real generalised eigenvalue problem by standard LAPACK (fast)

  Obtaining occupation numbers and chemical potential using ELSI.
  | Chemical potential (Fermi level):    -2.51779384eV
  Highest occupied state (VBM) at     -2.51779390 eV
  | Occupation number:      1.00000117

  Lowest unoccupied state (CBM) at    -2.51779379 eV
  | Occupation number:      0.99999883

  Overall HOMO-LUMO gap:      0.00000010 eV.
  This system has fractional occupation numbers. Thus, it is a degenerate system
  within the approximate finite broadening function (occupation_type)
  applied to determine the occupation numbers.
  This may not be harmful. However, for some systems (free atoms), a different, non-degenerate
  ground state might exist by using a smaller broadening (see keyword occupation_type).

  Total energy components:
  | Sum of eigenvalues            :         -86.59729240 Ha       -2356.43222013 eV
  | XC energy correction          :          -8.95214181 Ha        -243.60017297 eV
  | XC potential correction       :          16.81527367 Ha         457.56687718 eV
  | Free-atom electrostatic energy:         -69.50537796 Ha       -1891.33756453 eV
  | Hartree energy correction     :          -1.60810230 Ha         -43.75869007 eV
  | Entropy correction            :          -0.00103668 Ha          -0.02820948 eV
  | ---------------------------
  | Total energy                  :        -149.84764081 Ha       -4077.56177053 eV
  | Total energy, T -> 0          :        -149.84867749 Ha       -4077.58998000 eV  <-- do not rely on this value for anything but (periodic) metals
  | Electronic free energy        :        -149.84971417 Ha       -4077.61818948 eV

  Derived energy quantities:
  | Kinetic energy                :         176.70997652 Ha        4808.52311608 eV
  | Electrostatic energy          :        -284.72114744 Ha       -7747.65661823 eV
  | Energy correction for multipole
  | error in Hartree potential    :          -0.00687185 Ha          -0.18699254 eV
  | Sum of eigenvalues per atom                           :       -1178.21611007 eV
  | Total energy (T->0) per atom                          :       -2038.79499000 eV  <-- do not rely on this value for anything but (periodic) metals
  | Electronic free energy per atom                       :       -2038.80909474 eV

  Self-consistency convergence accuracy:
  | Change of charge density      :  0.4864E-01
  | Change of sum of eigenvalues  :  0.6774E+01 eV
  | Change of total energy        : -0.3823E-01 eV

  End self-consistency iteration #     5       :  max(cpu_time)    wall_clock(cpu1)
  | Time for this iteration                    :        2.807 s           2.807 s
  | Charge density update                      :        0.125 s           0.125 s
  | Density mixing                             :        0.003 s           0.003 s
  | Hartree multipole update                   :        0.002 s           0.003 s
  | Hartree multipole summation                :        0.028 s           0.027 s
  | Integration                                :        0.150 s           0.150 s
  | Fock matrix evaluation                     :        2.498 s           2.498 s
  | Solution of K.-S. eqns.                    :        0.001 s           0.001 s
  | Total energy evaluation                    :        0.000 s           0.000 s

  Partial memory accounting:
  | Current value for overall tracked memory usage on task 0  :          20.205 MB
  | Peak value for overall tracked memory usage on task 0     :          24.759 MB after allocating d_coeff_3fn
  | Largest tracked array allocation on task 0 so far         :           8.201 MB  when allocating ovlp3fn for atom
  Note:  These values currently only include a subset of arrays which are explicitly tracked.
  The "true" memory usage will be greater.
------------------------------------------------------------

------------------------------------------------------------
          Begin self-consistency iteration #    6

  Date     :  20190508, Time     :  152021.747
------------------------------------------------------------
  Evaluating new KS density.
  Integration grid: deviation in total charge (<rho> - N_e) =   3.197442E-14
  Pulay mixing of updated and previous charge densities.

  Evaluating partitioned Hartree potential by multipole expansion.
  | Analytical far-field extrapolation by fixed multipoles:
  | Hartree multipole sum: apparent total charge =  -0.391970E-06
  Summing up the Hartree potential.
  Time summed over all CPUs for potential: real work        0.027 s, elapsed        0.027 s
  | RMS charge density error from multipole expansion :   0.453793E-02

  Integrating Hamiltonian matrix: batch-based integration.
  Time summed over all CPUs for integration: real work        0.160 s, elapsed        0.160 s
  Calculating non-local Hartree-Fock exchange by two-center RI (RI-LVL).
  screening_threshold (crit_val) =  0.000000100000
  Allocating        0.049 MB for dm_cols
  Allocating        0.421 MB for ovlp3fn_rcv
  Allocating        0.049 MB for fock_matrix
  Allocating        0.001 MB for fock_matrix_row
  Exact exchange progress report - outermost basis function loop i_basis_r1: 1 ..  78
  |        1         2         3         4         5         6         7         8         9        10
  |       11        12        13        14        15        16        17        18        19        20
  |       21        22        23        24        25        26        27        28        29        30
  |       31        32        33        34        35        36        37        38        39        40
  |       41        42        43        44        45        46        47        48        49        50
  |       51        52        53        54        55        56        57        58        59        60
  |       61        62        63        64        65        66        67        68        69        70
  |       71        72        73        74        75        76        77        78  
[...]

  Overall HOMO-LUMO gap:      0.00000010 eV.
  This system has fractional occupation numbers. Thus, it is a degenerate system
  within the approximate finite broadening function (occupation_type)
  applied to determine the occupation numbers.
  This may not be harmful. However, for some systems (free atoms), a different, non-degenerate
  ground state might exist by using a smaller broadening (see keyword occupation_type).

  Total energy components:
  | Sum of eigenvalues            :         -86.58451479 Ha       -2356.08452373 eV
  | XC energy correction          :          -8.95182379 Ha        -243.59151919 eV
  | XC potential correction       :          16.80672772 Ha         457.33433021 eV
  | Free-atom electrostatic energy:         -69.50537796 Ha       -1891.33756453 eV
  | Hartree energy correction     :          -1.60793333 Ha         -43.75409221 eV
  | Entropy correction            :          -0.00103668 Ha          -0.02820948 eV
  | ---------------------------
  | Total energy                  :        -149.84292216 Ha       -4077.43336945 eV
  | Total energy, T -> 0          :        -149.84395884 Ha       -4077.46157893 eV  <-- do not rely on this value for anything but (periodic) metals
  | Electronic free energy        :        -149.84499552 Ha       -4077.48978841 eV

  Derived energy quantities:
  | Kinetic energy                :         176.62793199 Ha        4806.29057092 eV
  | Electrostatic energy          :        -284.68697901 Ha       -7746.72684812 eV
  | Energy correction for multipole
  | error in Hartree potential    :          -0.00694412 Ha          -0.18895919 eV
  | Sum of eigenvalues per atom                           :       -1178.04226187 eV
  | Total energy (T->0) per atom                          :       -2038.73078946 eV  <-- do not rely on this value for anything but (periodic) metals
  | Electronic free energy per atom                       :       -2038.74489420 eV

  Self-consistency convergence accuracy:
  | Change of charge density      :  0.1086E-05
  | Change of sum of eigenvalues  :  0.1799E-03 eV
  | Change of total energy        : -0.9920E-05 eV

  End self-consistency iteration #    18       :  max(cpu_time)    wall_clock(cpu1)
  | Time for this iteration                    :        3.546 s           3.549 s
  | Charge density update                      :        0.133 s           0.134 s
  | Density mixing                             :        0.009 s           0.009 s
  | Hartree multipole update                   :        0.004 s           0.004 s
  | Hartree multipole summation                :        0.034 s           0.034 s
  | Integration                                :        0.230 s           0.230 s
  | Fock matrix evaluation                     :        3.134 s           3.136 s
  | Solution of K.-S. eqns.                    :        0.001 s           0.002 s
  | Total energy evaluation                    :        0.000 s           0.000 s

  Partial memory accounting:
  | Current value for overall tracked memory usage on task 0  :          20.206 MB
  | Peak value for overall tracked memory usage on task 0     :          24.759 MB after allocating d_coeff_3fn
  | Largest tracked array allocation on task 0 so far         :           8.201 MB  when allocating ovlp3fn for atom
  Note:  These values currently only include a subset of arrays which are explicitly tracked.
  The "true" memory usage will be greater.
------------------------------------------------------------

------------------------------------------------------------
          Begin self-consistency iteration #   19

  Date     :  20190508, Time     :  152102.745
------------------------------------------------------------
  Evaluating new KS density.
  Integration grid: deviation in total charge (<rho> - N_e) =  -7.105427E-15
  Pulay mixing of updated and previous charge densities.

  Evaluating partitioned Hartree potential by multipole expansion.
  | Analytical far-field extrapolation by fixed multipoles:
  | Hartree multipole sum: apparent total charge =  -0.390240E-06
  Summing up the Hartree potential.
  Time summed over all CPUs for potential: real work        0.031 s, elapsed        0.031 s
  | RMS charge density error from multipole expansion :   0.458007E-02

  Integrating Hamiltonian matrix: batch-based integration.
  Time summed over all CPUs for integration: real work        0.200 s, elapsed        0.200 s
  Calculating non-local Hartree-Fock exchange by two-center RI (RI-LVL).
  screening_threshold (crit_val) =  0.000000100000
  Allocating        0.049 MB for dm_cols
  Allocating        0.421 MB for ovlp3fn_rcv
  Allocating        0.049 MB for fock_matrix
  Allocating        0.001 MB for fock_matrix_row
  Exact exchange progress report - outermost basis function loop i_basis_r1: 1 ..  78
  |        1         2         3         4         5         6         7         8         9        10
  |       11        12        13        14        15        16        17        18        19        20
  |       21        22        23        24        25        26        27        28        29        30
  |       31        32        33        34        35        36        37        38        39        40
  |       41        42        43        44        45        46        47        48        49        50
  |       51        52        53        54        55        56        57        58        59        60
  |       61        62        63        64        65        66        67        68        69        70
  |       71        72        73        74        75        76        77        78  
  Full exact exchange energy:     446.702792148293 eV.
  Times            DM_x_o3fn   CM_x_o3fn    Products        Sync   Imbalance    Pre/Post       Other  Total calc
  | Times    0:        0.121       2.464       0.502       0.001       0.003       0.001       0.044       3.136
  | Times  sum:        0.121       2.464       0.502       0.001       0.003       0.001       0.044       3.136

  Decomposition of Other based on code block (only on MPI task 0):
  Times             Block #1    Block #2    Block #3    Block #4    Block #5    Block #6    Block #7    Block #8
  | Times    0:        0.000       0.000       0.001       0.002       0.000       0.001       0.005       0.000

  Times             Block #9   Block #10   Block #11   Block #12   Block #13   Block #14   Block #15   Block #16
  | Times    0:        0.004       0.000       0.003       0.005       0.004       0.007       0.000       0.000

  Times            Block Sum    Expected
  | Times    0:        0.032       0.044

  Updating Kohn-Sham eigenvalues, eigenvectors, occupation numbers, and Fermi level.
  Solving generalized eigenproblem
  Updating Kohn-Sham eigenvalues and eigenfunctions.
  Solving real generalised eigenvalue problem by standard LAPACK (fast)

  Obtaining occupation numbers and chemical potential using ELSI.
  | Chemical potential (Fermi level):    -2.54294073eV
  Highest occupied state (VBM) at     -2.54294081 eV
  | Occupation number:      1.00000170

  Lowest unoccupied state (CBM) at    -2.54294066 eV
  | Occupation number:      0.99999830

  Overall HOMO-LUMO gap:      0.00000015 eV.
  This system has fractional occupation numbers. Thus, it is a degenerate system
  within the approximate finite broadening function (occupation_type)
  applied to determine the occupation numbers.
  This may not be harmful. However, for some systems (free atoms), a different, non-degenerate
  ground state might exist by using a smaller broadening (see keyword occupation_type).

  Total energy components:
  | Sum of eigenvalues            :         -86.58451523 Ha       -2356.08453578 eV
  | XC energy correction          :          -8.95182376 Ha        -243.59151827 eV
  | XC potential correction       :          16.80672767 Ha         457.33432891 eV
  | Free-atom electrostatic energy:         -69.50537796 Ha       -1891.33756453 eV
  | Hartree energy correction     :          -1.60793287 Ha         -43.75407951 eV
  | Entropy correction            :          -0.00103668 Ha          -0.02820948 eV
  | ---------------------------
  | Total energy                  :        -149.84292215 Ha       -4077.43336918 eV
  | Total energy, T -> 0          :        -149.84395883 Ha       -4077.46157866 eV  <-- do not rely on this value for anything but (periodic) metals
  | Electronic free energy        :        -149.84499551 Ha       -4077.48978814 eV

  Derived energy quantities:
  | Kinetic energy                :         176.62793222 Ha        4806.29057704 eV
  | Electrostatic energy          :        -284.68697929 Ha       -7746.72685548 eV
  | Energy correction for multipole
  | error in Hartree potential    :          -0.00694412 Ha          -0.18895914 eV
  | Sum of eigenvalues per atom                           :       -1178.04226789 eV
  | Total energy (T->0) per atom                          :       -2038.73078933 eV  <-- do not rely on this value for anything but (periodic) metals
  | Electronic free energy per atom                       :       -2038.74489407 eV

  Self-consistency convergence accuracy:
  | Change of charge density      :  0.3294E-06
  | Change of sum of eigenvalues  : -0.1205E-04 eV
  | Change of total energy        :  0.2728E-06 eV

  Writing Kohn-Sham eigenvalues.

  State    Occupation    Eigenvalue [Ha]    Eigenvalue [eV]
      1       2.00000         -19.351505         -526.58125
      2       2.00000         -19.347464         -526.47127
      3       2.00000          -1.669047          -45.41708
      4       2.00000          -0.750122          -20.41187
      5       2.00000          -0.726419          -19.76686
      6       2.00000          -0.726419          -19.76686
      7       2.00000          -0.627831          -17.08414
      8       1.00000          -0.093451           -2.54294
      9       1.00000          -0.093451           -2.54294
     10       0.00000           0.115452            3.14160
     11       0.00000           0.142246            3.87070
     12       0.00000           0.142246            3.87070
     13       0.00000           0.143068            3.89307
     14       0.00000           0.235830            6.41725

  Highest occupied state (VBM) at     -2.54294081 eV
  | Occupation number:      1.00000170

  Lowest unoccupied state (CBM) at    -2.54294066 eV
  | Occupation number:      0.99999830

  Overall HOMO-LUMO gap:      0.00000015 eV.
  This system has fractional occupation numbers. Thus, it is a degenerate system
  within the approximate finite broadening function (occupation_type)
  applied to determine the occupation numbers.
  This may not be harmful. However, for some systems (free atoms), a different, non-degenerate
  ground state might exist by using a smaller broadening (see keyword occupation_type).

  Self-consistency cycle converged.

  End self-consistency iteration #    19       :  max(cpu_time)    wall_clock(cpu1)
  | Time for this iteration                    :        3.504 s           3.504 s
  | Charge density update                      :        0.125 s           0.126 s
  | Density mixing                             :        0.007 s           0.006 s
  | Hartree multipole update                   :        0.002 s           0.002 s
  | Hartree multipole summation                :        0.031 s           0.032 s
  | Integration                                :        0.201 s           0.200 s
  | Fock matrix evaluation                     :        3.136 s           3.136 s
  | Solution of K.-S. eqns.                    :        0.001 s           0.002 s
  | Total energy evaluation                    :        0.000 s           0.000 s

  Partial memory accounting:
  | Current value for overall tracked memory usage on task 0  :          20.206 MB
  | Peak value for overall tracked memory usage on task 0     :          24.759 MB after allocating d_coeff_3fn
  | Largest tracked array allocation on task 0 so far         :           8.201 MB  when allocating ovlp3fn for atom
  Note:  These values currently only include a subset of arrays which are explicitly tracked.
  The "true" memory usage will be greater.
------------------------------------------------------------
  ------------------------------------------------------------
   Computing monopole / dipole moments for complete molecule:
  | Total electronic charge [e]         :          0.159999999999999E+02
  | Total ionic charge [e]              :          0.160000000000000E+02
  | Total charge [e]                    :          0.143884903991420E-12
  | Total dipole moment [eAng]          :         -0.213916892248751E-13         0.271056785163419E-12         0.259442085521755E-12
  | Absolute dipole moment              :          0.375818547827138E-12 eAng              /                   0.180485208813117E-11 Debye  .

  Energy and forces in a compact form:
  | Total energy uncorrected      :         -0.407743336917760E+04 eV
  | Total energy corrected        :         -0.407746157865719E+04 eV  <-- do not rely on this value for anything but (periodic) metals
  | Electronic free energy        :         -0.407748978813679E+04 eV

  ------------------------------------ 
  Start decomposition of the XC Energy 
  ------------------------------------ 
  X and C from original XC functional choice 
  Hartree-Fock Energy :         -4.104006470 Ha           -111.675698037 eV
  X Energy            :        -16.604087279 Ha           -451.820203208 eV
  C Energy            :         -0.555749365 Ha            -15.122709658 eV
  Total XC Energy     :        -17.159836644 Ha           -466.942912866 eV
  ------------------------------------ 
  LDA X and C from self-consistent density 
  X Energy LDA        :        -15.185956801 Ha           -413.230909511 eV
  C Energy LDA        :         -1.127875091 Ha            -30.691042771 eV
  ------------------------------------ 
  End decomposition of the XC Energy 
  ------------------------------------ 

------------------------------------------------------------

------------------------------------------------------------------------------
  Final output of selected total energy values:

  The following output summarizes some interesting total energy values
  at the end of a run (AFTER all relaxation, molecular dynamics, etc.).

  | Total energy of the DFT / Hartree-Fock s.c.f. calculation      :          -4077.433369178 eV
  | Final zero-broadening corrected energy (caution - metals only) :          -4077.461578657 eV
  | For reference only, the value of 1 Hartree used in FHI-aims is :             27.211384500 eV

  Before relying on these values, please be sure to understand exactly which
  total energy value is referred to by a given number. Different objects may
  all carry the same name 'total energy'. Definitions:

  Total energy of the DFT / Hartree-Fock s.c.f. calculation:
  | Note that this energy does not include ANY quantities calculated after the
  | s.c.f. cycle, in particular not ANY RPA, MP2, etc. many-body perturbation terms.

  Final zero-broadening corrected energy:
  | For metallic systems only, a broadening of the occupation numbers at the Fermi
  | level can be extrapolated back to zero broadening by an electron-gas inspired
  | formula. For all systems that are not real metals, this value can be
  | meaningless and should be avoided.

------------------------------------------------------------------------------
  Methods described in the following list of references were used in this FHI-aims run.
  If you publish the results, please make sure to cite these reference if they apply.
  FHI-aims is an academic code, and for our developers (often, Ph.D. students
  and postdocs), scientific credit in the community is essential.
  Thank you for helping us!

  For any use of FHI-aims, please cite:

    Volker Blum, Ralf Gehrke, Felix Hanke, Paula Havu, Ville Havu,
    Xinguo Ren, Karsten Reuter, and Matthias Scheffler
    'Ab initio molecular simulations with numeric atom-centered orbitals'
    Computer Physics Communications 180, 2175-2196 (2009)
    http://dx.doi.org/10.1016/j.cpc.2009.06.022


  For Hartree-Fock, hybrid functionals, or many-body perturbation theory used in your run, please cite:

    Xinguo Ren, Patrick Rinke, Volker Blum, Juergen Wieferink, Alex Tkatchenko,
    Andrea Sanfilippo, Karsten Reuter, and Matthias Scheffler,
    'Resolution-of-identity approach to Hartree-Fock, hybrid density functionals,
    RPA, MP2, and GW with numeric atom-centered orbital basis functions'
    New Journal of Physics 14, 053020 (2012).
    http://dx.doi.org/10.1088/1367-2630/14/5/053020


  For the real-space grid partitioning and parallelization used in this calculation, please cite:

    Ville Havu, Volker Blum, Paula Havu, and Matthias Scheffler,
    'Efficient O(N) integration for all-electron electronic structure calculation'
    'using numerically tabulated basis functions'
    Journal of Computational Physics 228, 8367-8379 (2009).
    http://dx.doi.org/10.1016/j.jcp.2009.08.008


  The high-level electronic structure method used in your calculation
  employed our efficient localized resolution of identity for the Coulomb operator.
  Some calculations, especially large-scale hybrid density functional theory,
  are only possible thanks to this development. For this feature, please cite:

    Arvid Ihrig, Juergen Wieferink, Igor Ying Zhang, Matti Ropo, Xinguo Ren,
    Patrick Rinke, Matthias Scheffler, and Volker Blum,
    'Accurate localized resolution of identity approach for linear-scaling
    hybrid density functionals and for many-body perturbation theory'
    New Journal of Physics 117, 093020 (2015).
    http://dx.doi.org/10.1088/1367-2630/17/9/093020

  Of course, there are many other important community references, e.g., those cited in the
  above references. Our list is limited to references that describe implementations in the
  FHI-aims code. The reason is purely practical (length of this list) - please credit others as well.

------------------------------------------------------------
          Leaving FHI-aims.
          Date     :  20190508, Time     :  152106.293

          Computational steps:
          | Number of self-consistency cycles          :           19
          | Number of SCF (re)initializations          :            1

          Detailed time accounting                     :  max(cpu_time)    wall_clock(cpu1)
          | Total time                                 :       66.317 s          66.323 s
          | Preparation time                           :        0.069 s           0.069 s
          | Boundary condition initalization           :        0.000 s           0.000 s
          | Grid partitioning                          :        0.034 s           0.034 s
          | Preloading free-atom quantities on grid    :        0.003 s           0.003 s
          | Free-atom superposition energy             :        0.027 s           0.027 s
          | Total time for integrations                :        3.575 s           3.573 s
          | Product basis setup: Total time            :        7.538 s           7.538 s
          | Total time evaluating exchange matrix      :       51.960 s          51.967 s
          | Total time for solution of K.-S. equations :        0.033 s           0.033 s
          | Total time for density update              :        2.278 s           2.278 s
          | Total time for mixing                      :        0.104 s           0.107 s
          | Total time for Hartree multipole update    :        0.050 s           0.048 s
          | Total time for Hartree multipole sum       :        0.576 s           0.577 s
          | Total time for total energy evaluation     :        0.001 s           0.000 s

 This is a stub MPI_ALLREDUCE call.
 You should not be here. Check your
 setting on the use_mpi variable, or
 link against true MPI-libraries.
