------------------------------------------------------------
          Invoking FHI-aims ...
          Version 171221_1
          Compiled on 2019/05/06 at 14:26:40 on host ffph0xx.

          When using FHI-aims, please cite the following reference:

          Volker Blum, Ralf Gehrke, Felix Hanke, Paula Havu,
          Ville Havu, Xinguo Ren, Karsten Reuter, and Matthias Scheffler,
          'Ab Initio Molecular Simulations with Numeric Atom-Centered Orbitals',
          Computer Physics Communications 180, 2175-2196 (2009)

          For any questions about FHI-aims, please visit the aimsclub website
          with its forums and wiki. Contributions to both the forums and the
          wiki are warmly encouraged - they are for you, and everyone is welcome there.

------------------------------------------------------------



  Date     :  20190514, Time     :  104952.295
  Time zero on CPU 1             :   0.794000000000000E-03  s.
  Internal wall clock time zero  :           327062992.295  s.

  FHI-aims created a unique identifier for this run for later identification
  aims_uuid : 16A5161E-86B7-4CF2-A7DB-8F21AE65D29D


  Performing system and environment tests:
  *** Environment variable OMP_NUM_THREADS is not set
  *** For performance reasons you might want to set it to 1
  | Stacksize not measured: no C compiler

  Obtaining array dimensions for all initial allocations:
  
  -----------------------------------------------------------------------
  Parsing control.in (first pass over file, find array dimensions only).
  The contents of control.in will be repeated verbatim below
  unless switched off by setting 'verbatim_writeout .false.' .
  in the first line of control.in .
  -----------------------------------------------------------------------
  
  #--- method ---
  xc pw-lda
  spin none
  relativistic atomic_zora scalar
  #---
  
  #--- k-grid settings ---
  k_grid 12 12 12
  #---
  
  
  
  
  
  
  
  
  
  
  
  #-------------------------------------------------------------------------------
  #--- Species defaults for Si
  #-------------------------------------------------------------------------------
  
  ################################################################################
  #
  #  FHI-aims code project
  #  VB, Fritz-Haber Institut, 2009
  #
  #  Suggested "light" defaults for Si atom (to be pasted into control.in file)
  #  Be sure to double-check any results obtained with these settings for post-processing,
  #  e.g., with the "tight" defaults and larger basis sets.
  #
  ################################################################################
    species        Si
  #     global species definitions
      nucleus             14
      mass                28.0855
  #
      l_hartree           4
  #
      cut_pot             3.5          1.5  1.0
      basis_dep_cutoff    1e-4
  #
      radial_base         42 5.0
      radial_multiplier   1
      angular_grids       specified
        division   0.5866   50
        division   0.9616  110
        division   1.2249  194
        division   1.3795  302
  #      division   1.4810  434
  #      division   1.5529  590
  #      division   1.6284  770
  #      division   1.7077  974
  #      division   2.4068 1202
  #      outer_grid   974
        outer_grid 302
  ################################################################################
  #
  #  Definition of "minimal" basis
  #
  ################################################################################
  #     valence basis states
      valence      3  s   2.
      valence      3  p   2.
  #     ion occupancy
      ion_occ      3  s   1.
      ion_occ      3  p   1.
  ################################################################################
  #
  #  Suggested additional basis functions. For production calculations,
  #  uncomment them one after another (the most important basis functions are
  #  listed first).
  #
  #  Constructed for dimers: 1.75 A, 2.0 A, 2.25 A, 2.75 A, 3.75 A
  #
  ################################################################################
  #  "First tier" - improvements: -571.96 meV to -37.03 meV
       hydro 3 d 4.2
       hydro 2 p 1.4
  #     hydro 4 f 6.2
       ionic 3 s auto
  #  "Second tier" - improvements: -16.76 meV to -3.03 meV
  #     hydro 3 d 9
  #     hydro 5 g 9.4
  #     hydro 4 p 4
  #     hydro 1 s 0.65
  #  "Third tier" - improvements: -3.89 meV to -0.60 meV
  #     ionic 3 d auto
  #     hydro 3 s 2.6
  #     hydro 4 f 8.4
  #     hydro 3 d 3.4
  #     hydro 3 p 7.8
  #  "Fourth tier" - improvements: -0.33 meV to -0.11 meV
  #     hydro 2 p 1.6
  #     hydro 5 g 10.8
  #     hydro 5 f 11.2
  #     hydro 3 d 1
  #     hydro 4 s 4.5
  #  Further basis functions that fell out of the optimization - noise
  #  level... < -0.08 meV
  #     hydro 4 d 6.6
  #     hydro 5 g 16.4
  #     hydro 4 d 9
  
  -----------------------------------------------------------------------
  Completed first pass over input file control.in .
  -----------------------------------------------------------------------
  
  
  -----------------------------------------------------------------------
  Parsing geometry.in (first pass over file, find array dimensions only).
  The contents of geometry.in will be repeated verbatim below
  unless switched off by setting 'verbatim_writeout .false.' .
  in the first line of geometry.in .
  -----------------------------------------------------------------------
  
  lattice_vector  -2.550000   2.550000   2.550000
  lattice_vector   2.550000  -2.550000   2.550000
  lattice_vector   2.550000   2.550000  -2.550000
  atom_frac   0.000000   0.000000   0.000000 Si
  
  -----------------------------------------------------------------------
  Completed first pass over input file geometry.in .
  -----------------------------------------------------------------------
  

  Basic array size parameters:
  | Number of species                 :        1
  | Number of atoms                   :        1
  | Number of lattice vectors         :        3
  | Max. basis fn. angular momentum   :        2
  | Max. atomic/ionic basis occupied n:        3
  | Max. number of basis fn. types    :        3
  | Max. radial fns per species/type  :        5
  | Max. logarithmic grid size        :     1346
  | Max. radial integration grid size :       42
  | Max. angular integration grid size:      302
  | Max. angular grid division number :        8
  | Radial grid for Hartree potential :     1346
  | Number of spin channels           :        1

------------------------------------------------------------
          Reading file control.in.
------------------------------------------------------------
  XC: Using Perdew-Wang parametrisation of Ceperley-Alder LDA.
  Spin treatment: No spin polarisation.
  Scalar relativistic treatment of kinetic energy: on-site free-atom approximation to ZORA.
  Found k-point grid:        12        12        12

  Reading configuration options for species Si                  .
  | Found nuclear charge :  14.0000
  | Found atomic mass :    28.085500000000000      amu
  | Found l_max for Hartree potential  :   4
  | Found cutoff potl. onset [A], width [A], scale factor :    3.50000    1.50000    1.00000
  | Threshold for basis-dependent cutoff potential is   0.100000E-03
  | Found data for basic radial integration grid :    42 points, outermost radius =    5.000 A
  | Found multiplier for basic radial grid :   1
  | Found angular grid specification: user-specified.
  | Specified grid contains     5 separate shells.
  | Check grid settings after all constraints further below.
  | Found free-atom valence shell :  3 s   2.000
  | Found free-atom valence shell :  3 p   2.000
  | Found free-ion valence shell :  3 s   1.000
  | Found free-ion valence shell :  3 p   1.000
  | Found hydrogenic basis function :  3 d   4.200
  | Found hydrogenic basis function :  2 p   1.400
  | Found ionic basis function :  3 s , default cutoff radius.
  Species Si                  : Missing cutoff potential type.
  Defaulting to exp(1/x)/(1-x)^2 type cutoff potential.
  Species Si: No 'logarithmic' tag. Using default grid for free atom:
  | Default logarithmic grid data [bohr] : 0.1000E-03 0.1000E+03 0.1012E+01
  | Will include ionic basis functions of  2.0-fold positive Si                   ion.
  Species Si: On-site basis accuracy parameter (for Gram-Schmidt orthonormalisation) not specified.
  Using default value basis_acc =  0.1000000E-03.
  Species Si                  : Using default innermost maximum threshold i_radial=  2 for radial functions.
  Species Si                  : Default cutoff onset for free atom density etc. : 0.35000000E+01 AA.
  Species Si                  : Basic radial grid will be enhanced according to radial_multiplier =   1, to contain    42 grid points.

  Finished reading input file 'control.in'. Consistency checks are next.

  MPI_IN_PLACE appears to work with this MPI implementation.
  | Keeping use_mpi_in_place .true. (see manual).
  Target number of points in a grid batch is not set. Defaulting to  100
  Method for grid partitioning is not set. Defaulting to 'maxmin' partitioning.
  Batch size limit is not set. Defaulting to    200
  By default, will store active basis functions for each batch.
  If in need of memory, prune_basis_once .false. can be used to disable this option.
  communication_type for Hartree potential was not specified.
  Defaulting to calc_hartree .
 * Attention: 
 * You may want to set distributed_spline_storage to .true. in order to save memory.
 * This doesn't harm performance and is perfectly ok unless:
 * - you get error messages in postprocessing (about missing atoms in get_rho_multipole_spl)
 * - you need full spline storage in hirshfeld_analysis
  Defaulting to Pulay charge density mixer.
  Pulay mixer: Number of relevant iterations not set.
  Defaulting to    8 iterations.
  Pulay mixer: Number of initial linear mixing iterations not set.
  Defaulting to    0 iterations.
  Work space size for distributed Hartree potential not set.
  Defaulting to   0.200000E+03 MB.
  Mixing parameter for charge density mixing has not been set.
  Using default: charge_mix_param =     0.0500.
  The mixing parameter will be adjusted in iteration number     2 of the first full s.c.f. cycle only.
  Algorithm-dependent basis array size parameters:
  | n_max_pulay                         :        8
 * Notice: The s.c.f. convergence criterion sc_accuracy_rho was not provided.
 * We used to stop in this case, and ask the user to provide reasonable
 * scf convergence criteria. However, this led some users to employ criteria
 * that led to extremely long run times, e.g., for simple relaxation.
 * We now preset a default value for sc_accuracy_rho if it is not set.
 * You may still wish to check if this setting is too tight or too loose for your needs.
 * Based on n_atoms, FHI-aims chose sc_accuracy_rho =  0.100000E-05 .
  Maximum number of self-consistency iterations not provided.
  Presetting  1000 iterations.
  Presetting      1001 iterations before the initial mixing cycle
  is restarted anyway using the sc_init_iter criterion / keyword.
  Presetting a factor      1.000 between actual scf density residual
  and density convergence criterion sc_accuracy_rho below which sc_init_iter
  takes no effect.
 * No s.c.f. convergence criteria (sc_accuracy_*) were provided in control.in.
 * The run will proceed with a reasonable default guess, but please check whether.
 * the s.c.f. cycles seem to take too much or too little time.
  Calculation of forces was not defined in control.in. No forces will be calculated.
  Geometry relaxation not requested: no relaxation will be performed.
  No accuracy limit for integral partition fn. given. Defaulting to  0.1000E-14.
  No threshold value for u(r) in integrations given. Defaulting to  0.1000E-05.
  No occupation type (smearing scheme) given. Defaulting to Gaussian broadening, width =  0.1000E-01 eV.
  The width will be adjusted in iteration number     2 of the first full s.c.f. cycle only.
  S.C.F. convergence parameters will be adjusted in iteration number     2 of the first full s.c.f. cycle only.
  No accuracy for occupation numbers given. Defaulting to  0.1000E-12.
  No threshold value for occupation numbers given. Defaulting to  0.0000E+00.
  No accuracy for fermi level given. Defaulting to  0.1000E-19.
  Maximum # of iterations to find E_F not set. Defaulting to  200.
  Preferred method for the eigenvalue solver ('KS_method') not specified in 'control.in'.
  Defaulting to serial version, 'lapack_fast'.
  Will not use alltoall communication since running on < 1024 CPUs.
  Threshold for basis singularities not set.
  Default threshold for basis singularities:  0.1000E-04
  partition_type (choice of integration weights) for integrals was not specified.
  | Using a version of the partition function of Stratmann and coworkers ('stratmann_smoother').
  | At each grid point, the set of atoms used to build the partition table is smoothly restricted to
  | only those atoms whose free-atom density would be non-zero at that grid point.
  Partitioning for Hartree potential was not defined. Using partition_type for integrals.
  | Adjusted default value of keyword multip_moments_threshold to:       0.10000000E-11
  | This value may affect high angular momentum components of the Hartree potential in periodic systems.
  Angular momentum expansion for Kerker preconditioner not set explicitly.
  | Using default value of   0
  No explicit requirement for turning off preconditioner.
  | By default, it will be turned off when the charge convergence reaches
  | sc_accuracy_rho  =   0.100000E-05
  No special mixing parameter while Kerker preconditioner is on.
  Using default: charge_mix_param =     0.0500.
  No q(lm)/r^(l+1) cutoff set for long-range Hartree potential.
  | Using default value of  0.100000E-09 .
  | Verify using the multipole_threshold keyword.
  Defaulting to new monopole extrapolation.
  Density update method: automatic selection selected.
  Using density matrix based charge density update.
  Using density matrix based charge density update.
  Using packed matrix style: index .
  Defaulting to use time-reversal symmetry for k-point grid.
------------------------------------------------------------


------------------------------------------------------------
          Reading geometry description geometry.in.
------------------------------------------------------------
  Input structure read successfully.
  The structure contains        1 atoms,  and a total of         14.000 electrons.

  Input geometry:
  | Unit cell:
  |       -2.55000000        2.55000000        2.55000000
  |        2.55000000       -2.55000000        2.55000000
  |        2.55000000        2.55000000       -2.55000000
  | Atomic structure:
  |       Atom                x [A]            y [A]            z [A]
  |    1: Species Si            0.00000000        0.00000000        0.00000000

  Lattice parameters for 3D lattice (in Angstroms) :     4.416730    4.416730    4.416730
  Angle(s) between unit vectors (in degrees)      :   109.471221  109.471221  109.471221

  |

  | The smallest distance between any two atoms is         4.41672956 AA.
  |
  | The first atom of this pair is atom number                      1 .
  | The second atom of this pair is atom number                     1 .
  | Wigner-Seitz cell of the first atom image           0     0     1 .
  | (The Wigner-Seitz cell of the second atom is 0 0 0  by definition.)

  Quantities derived from the lattice vectors:
  | Reciprocal lattice vector 1:  0.000000  1.231997  1.231997
  | Reciprocal lattice vector 2:  1.231997  0.000000  1.231997
  | Reciprocal lattice vector 3:  1.231997  1.231997  0.000000
  | Unit cell volume                               :   0.663255E+02  A^3

  Range separation radius for Ewald summation (hartree_convergence_parameter):      5.00000000 bohr.

  Fractional coordinates:
                         L1                L2                L3
       atom_frac         0.00000000        0.00000000        0.00000000  Si

  Number of empty states per atom not set in control.in - providing a guess from actual geometry.
  | Total number of empty states used during s.c.f. cycle:        3
  If you use a very high smearing, use empty_states (per atom!) in control.in to increase this value.

  Structure-dependent array size parameters: 
  | Maximum number of distinct radial functions  :        8
  | Maximum number of basis functions            :       18
  | Number of Kohn-Sham states (occupied + empty):       10
------------------------------------------------------------

------------------------------------------------------------
          Preparing all fixed parts of the calculation.
------------------------------------------------------------
  Determining machine precision:
     2.2250738585072014E-308
  Setting up grids for atomic and cluster calculations.

  Creating wave function, potential, and density for free atoms.

  Species: Si

  List of occupied orbitals and eigenvalues:
    n    l              occ      energy [Ha]    energy [eV]
    1    0           2.0000       -65.491668     -1782.1190
    2    0           2.0000        -5.087967      -138.4506
    3    0           2.0000        -0.391471       -10.6525
    2    1           6.0000        -3.502246       -95.3010
    3    1           2.0000        -0.143943        -3.9169

  Creating fixed part of basis set: Ionic, confined, hydrogenic.

  Si                   ion:

  List of free ionic orbitals and eigenvalues:
    n    l      energy [Ha]    energy [eV]
    1    0       -66.364436     -1805.8682
    2    0        -5.935799      -161.5213
    3    0        -1.078166       -29.3384
    2    1        -4.351123      -118.4001
    3    1        -0.781733       -21.2720


  List of ionic basis orbitals and eigenvalues:
    n    l      energy [Ha]    energy [eV]    outer radius [A]
    3    0        -1.078146       -29.3378       4.214062


  Si                   hydrogenic:

  List of hydrogenic basis orbitals: 
    n    l      effective z      eigenvalue [eV]  inner max. [A]     outer max. [A]     outer radius [A]   
    3    2         4.200000       -26.6624           1.139231           1.139231           4.534782
    2    1         1.400000        -6.4613           1.472672           1.472672           4.590560


  Adding cutoff potential to free-atom effective potential.
  Creating atomic-like basis functions for current effective potential.

  Species Si                  :

  List of atomic basis orbitals and eigenvalues:
    n    l      energy [Ha]    energy [eV]    outer radius [A]
    1    0       -65.491668     -1782.1190       0.789468
    2    0        -5.087967      -138.4506       2.815114
    3    0        -0.391471       -10.6525       4.534782
    2    1        -3.502246       -95.3010       3.259919
    3    1        -0.143943        -3.9169       4.590560

  Assembling full basis from fixed parts.
  | Species Si :   atomic orbital   1 s accepted.
  | Species Si :   atomic orbital   2 s accepted.
  | Species Si :    ionic orbital   3 s accepted.
  | Species Si :   atomic orbital   3 s accepted.
  | Species Si :   atomic orbital   2 p accepted.
  | Species Si :   atomic orbital   3 p accepted.
  | Species Si :    hydro orbital   2 p accepted.
  | Species Si :    hydro orbital   3 d accepted.

  Basis size parameters after reduction:
  | Total number of radial functions:        8
  | Total number of basis functions :       18

  Per-task memory consumption for arrays in subroutine allocate_ext:
  |           2.757468MB.
  Testing on-site integration grid accuracy.
  |  Species  Function  <phi|h_atom|phi> (log., in eV)  <phi|h_atom|phi> (rad., in eV)
           1        1              -1782.1189727076              -1782.1182429251
           1        2               -138.4506350693               -138.4506310079
           1        3                -10.3030408815                -10.3029120678
           1        4                  5.0238999146                  4.9457540310 ***
           1        5                -95.3009689499                -95.3009689315
           1        6                 -3.9266496564                 -3.9420918374
           1        7                  6.3453628447                  6.1632372158 ***
           1        8                  6.2883050744                  6.2861881409
 * Note: Onsite integrals marked "***" above are less accurate than
 * onsite_accuracy_threshold =    0.03000 eV. Usually, this is harmless.
 * When in doubt, tighten the "radial" and/or "radial_multiplier" flags to check.

  Preparing densities etc. for the partition functions (integrals / Hartree potential).

  Preparations completed.
  max(cpu_time)          :      0.115 s.
  Wall clock time (cpu1) :      0.115 s.
------------------------------------------------------------

------------------------------------------------------------
          Begin self-consistency loop: Initialization.

          Date     :  20190514, Time     :  104952.411
------------------------------------------------------------

  Initializing index lists of integration centers etc. from given atomic structure:
  Mapping all atomic coordinates to central unit cell.

  Initializing the k-points
          Using symmetry for reducing the k-points
  | k-points reduced from:     1728 to      868
  | Number of k-points                             :       868
  The eigenvectors in the calculations are COMPLEX.
  | K-points in task   0:       868
  | Number of basis functions in the Hamiltonian integrals :       430
  | Number of basis functions in a single unit cell        :        18
  | Number of centers in hartree potential         :       331
  | Number of centers in hartree multipole         :        65
  | Number of centers in electron density summation:        59
  | Number of centers in basis integrals           :        59
  | Number of centers in integrals                 :        27
  | Number of centers in hamiltonian               :        59
  | Consuming        813 KiB for k_phase.
  | Number of super-cells (origin) [n_cells]                     :        2197
  | Number of super-cells (after PM_index) [n_cells]             :          60
  | Number of super-cells in hamiltonian [n_cells_in_hamiltonian]:          60
  | Size of matrix packed + index [n_hamiltonian_matrix_size] :        7140
  Partitioning the integration grid into batches with maxmin method.
  | Maximal weight for a single point:     1.000
  | Minimal weight for a single point:     0.585
  | Number of batches:       64
  | Maximal batch size:      90
  | Minimal batch size:      85
  | Average batch size:      87.562
  | Standard deviation of batch sizes:       1.488
  Initializing partition tables, free-atom densities, potentials, etc. across the integration grid (initialize_grid_storage).
  | initialize_grid_storage: Actual outermost partition radius vs. multipole_radius_free
  | (-- VB: in principle, multipole_radius_free should be larger, hence this output)
  | Species        1: Confinement radius =              4.999999999999999 AA, multipole_radius_free =              5.000694715736543 AA.
  | Species        1: outer_partition_radius set to              5.000694715736543 AA .
  | Original list of interatomic distances with          59 x         59 entries is created.
  | Net number of integration points:     5604
  | of which are non-zero points    :     5366
  | Numerical average free-atom electrostatic potential    :     -3.96637524 eV
  Renormalizing the initial density to the exact electron count on the 3D integration grid.
  | Initial density: Formal number of electrons (from input files) :      14.0000000000
  | Integrated number of electrons on 3D grid     :      14.0000982294
  | Charge integration error                      :       0.0000982294
  | Normalization factor for density and gradient :       0.9999929837
  Obtaining max. number of non-zero basis functions in each batch (get_n_compute_maxes).
  | Maximal number of non-zero basis functions:      176 in task     0
  Allocating        2.500 MB for KS_eigenvector_complex
  Integrating Hamiltonian matrix: batch-based integration.
  Time summed over all CPUs for integration: real work        0.054 s, elapsed        0.054 s
  Integrating overlap matrix.
  Time summed over all CPUs for integration: real work        0.036 s, elapsed        0.036 s
  Decreasing sparse matrix size:
   Tolerance:   9.9999998245167004E-014
   Hamiltonian matrix
  | Array has     5333 nonzero elements out of     7140 elements
  | Sparsity factor is 0.253
   Overlap matrix
  | Array has     5229 nonzero elements out of     7140 elements
  | Sparsity factor is 0.268
  New size of hamiltonian matrix:        5472

  Updating Kohn-Sham eigenvalues, eigenvectors, occupation numbers, and Fermi level.
  Solving generalized eigenproblem
  Transforming overlap matrix and checking for singularities.
  Overlap matrix is nonsingular at first k-point:
  | Lowest eigenvalue:  0.130638E+00

  Obtaining occupation numbers and chemical potential using ELSI.
  | Chemical potential (Fermi level):    -4.35728217eV
  Writing Kohn-Sham eigenvalues.
  K-point:       1 at    0.000000    0.000000    0.000000 (in units of recip. lattice)

  State    Occupation    Eigenvalue [Ha]    Eigenvalue [eV]
      1       2.00000         -65.491656        -1782.11864
      2       2.00000          -5.087964         -138.45054
      3       2.00000          -3.502243          -95.30088
      4       2.00000          -3.502243          -95.30088
      5       2.00000          -3.502243          -95.30088
      6       2.00000          -0.418293          -11.38234
      7       0.00000          -0.100505           -2.73487
      8       0.00000          -0.100505           -2.73487
      9       0.00000          -0.100505           -2.73487
     10       0.00000           0.046894            1.27604

  What follows are estimated values for band gap, HOMO, LUMO, etc.
  | They are estimated on a discrete k-point grid and not necessarily exact.
  | For converged numbers, create a DOS and/or band structure plot on a denser k-grid.

  Highest occupied state (VBM) at     -4.38889547 eV (relative to internal zero)
  | Occupation number:      1.99999221
  | K-point:     662 at    0.500000    0.416667    0.500000 (in units of recip. lattice)

  Lowest unoccupied state (CBM) at    -4.35682736 eV (relative to internal zero)
  | Occupation number:      0.94871542
  | K-point:     662 at    0.500000    0.416667    0.500000 (in units of recip. lattice)

  ESTIMATED overall HOMO-LUMO gap:      0.03206811 eV between HOMO at k-point 662 and LUMO at k-point 662
  | This appears to be a direct band gap.
  However, this system has fractional occupation numbers. Since we use a finite k-point grid,
  this material is metallic within the approximate finite broadening function (occupation_type)
  applied to determine the occupation numbers.
  Calculating total energy contributions from superposition of free atom densities.

  Total energy components:
  | Sum of eigenvalues            :        -163.32321472 Ha       -4444.25079339 eV
  | XC energy correction          :         -19.63228963 Ha        -534.22178172 eV
  | XC potential correction       :          25.93950415 Ha         705.84982116 eV
  | Free-atom electrostatic energy:        -132.20540357 Ha       -3597.49206952 eV
  | Hartree energy correction     :          -0.00000000 Ha          -0.00000000 eV
  | Entropy correction            :          -0.00000400 Ha          -0.00010879 eV
  | ---------------------------
  | Total energy                  :        -289.22140376 Ha       -7870.11482347 eV
  | Total energy, T -> 0          :        -289.22140776 Ha       -7870.11493226 eV  <-- do not rely on this value for anything but (periodic) metals
  | Electronic free energy        :        -289.22141176 Ha       -7870.11504105 eV

  Derived energy quantities:
  | Kinetic energy                :         289.55408367 Ha        7879.16750432 eV
  | Electrostatic energy          :        -559.14319781 Ha      -15215.06054607 eV
  | Energy correction for multipole
  | error in Hartree potential    :           0.00000000 Ha           0.00000000 eV
  | Sum of eigenvalues per atom                           :       -4444.25079339 eV
  | Total energy (T->0) per atom                          :       -7870.11493226 eV  <-- do not rely on this value for anything but (periodic) metals
  | Electronic free energy per atom                       :       -7870.11504105 eV
  Initialize hartree_potential_storage
  Max. number of atoms included in rho_multipole:            1

  End scf initialization - timings             :  max(cpu_time)    wall_clock(cpu1)
  | Time for scf. initialization               :        0.393 s           0.394 s
  | Boundary condition initialization          :        0.037 s           0.037 s
  | Integration                                :        0.090 s           0.090 s
  | Solution of K.-S. eqns.                    :        0.231 s           0.231 s
  | Grid partitioning                          :        0.009 s           0.009 s
  | Preloading free-atom quantities on grid    :        0.001 s           0.001 s
  | Free-atom superposition energy             :        0.008 s           0.008 s
  | Total energy evaluation                    :        0.000 s           0.000 s

  Partial memory accounting:
  | Current value for overall tracked memory usage on task 0  :           2.610 MB
  | Peak value for overall tracked memory usage on task 0     :           3.271 MB after allocating wave
  | Largest tracked array allocation on task 0 so far         :           2.500 MB  when allocating +KS_eigenvector_complex
  Note:  These values currently only include a subset of arrays which are explicitly tracked.
  The "true" memory usage will be greater.
------------------------------------------------------------

------------------------------------------------------------
          Begin self-consistency iteration #    1

  Date     :  20190514, Time     :  104952.806
------------------------------------------------------------
  Evaluating new KS density using the density matrix
  Evaluating density matrix
  Time summed over all CPUs for getting density from density matrix: real work        0.086 s, elapsed        0.086 s
  Integration grid: deviation in total charge (<rho> - N_e) =  -3.748113E-13
  Pulay mixing of updated and previous charge densities.

  Evaluating partitioned Hartree potential by multipole expansion.
  | Analytical far-field extrapolation by fixed multipoles:
  | Hartree multipole sum: apparent total charge =  -0.930814E-04
  Summing up the Hartree potential.
  | Estimated reciprocal-space cutoff momentum G_max:         1.84432723 bohr^-1 .
  | Reciprocal lattice points for long-range Hartree potential:      54
  Time summed over all CPUs for potential: real work        0.099 s, elapsed        0.099 s
  | RMS charge density error from multipole expansion :   0.482797E-04
  | Average real-space part of the electrostatic potential :     -0.01300686 eV

  Integrating Hamiltonian matrix: batch-based integration.
  Time summed over all CPUs for integration: real work        0.058 s, elapsed        0.058 s

  Updating Kohn-Sham eigenvalues, eigenvectors, occupation numbers, and Fermi level.
  Solving generalized eigenproblem

  Obtaining occupation numbers and chemical potential using ELSI.
  | Chemical potential (Fermi level):    -4.37212658eV
  Writing Kohn-Sham eigenvalues.
  K-point:       1 at    0.000000    0.000000    0.000000 (in units of recip. lattice)

  State    Occupation    Eigenvalue [Ha]    Eigenvalue [eV]
      1       2.00000         -65.494585        -1782.19833
      2       2.00000          -5.090088         -138.50836
      3       2.00000          -3.504424          -95.36023
      4       2.00000          -3.504424          -95.36023
      5       2.00000          -3.504424          -95.36023
      6       2.00000          -0.418995          -11.40144
      7       0.00000          -0.101194           -2.75364
      8       0.00000          -0.101194           -2.75364
      9       0.00000          -0.101194           -2.75364
     10       0.00000           0.046293            1.25970

  What follows are estimated values for band gap, HOMO, LUMO, etc.
  | They are estimated on a discrete k-point grid and not necessarily exact.
  | For converged numbers, create a DOS and/or band structure plot on a denser k-grid.

  Highest occupied state (VBM) at     -4.40376512 eV (relative to internal zero)
  | Occupation number:      1.99999234
  | K-point:     672 at    0.500000    0.500000    0.583333 (in units of recip. lattice)

  Lowest unoccupied state (CBM) at    -4.37176417 eV (relative to internal zero)
  | Occupation number:      0.95912357
  | K-point:     662 at    0.500000    0.416667    0.500000 (in units of recip. lattice)

  ESTIMATED overall HOMO-LUMO gap:      0.03200095 eV between HOMO at k-point 672 and LUMO at k-point 662
  | This appears to be an indirect band gap.
  | Smallest direct gap :      0.03200095 eV for k_point 662 at    0.500000    0.416667    0.500000 (in units of recip. lattice)
  However, this system has fractional occupation numbers. Since we use a finite k-point grid,
  this material is metallic within the approximate finite broadening function (occupation_type)
  applied to determine the occupation numbers.

  Total energy components:
  | Sum of eigenvalues            :        -163.34896181 Ha       -4444.95140744 eV
  | XC energy correction          :         -19.63010865 Ha        -534.16243431 eV
  | XC potential correction       :          25.93663171 Ha         705.77165804 eV
  | Free-atom electrostatic energy:        -132.20540357 Ha       -3597.49206952 eV
  | Hartree energy correction     :           0.02658747 Ha           0.72348182 eV
  | Entropy correction            :          -0.00000403 Ha          -0.00010960 eV
  | ---------------------------
  | Total energy                  :        -289.22125485 Ha       -7870.11077141 eV
  | Total energy, T -> 0          :        -289.22125888 Ha       -7870.11088101 eV  <-- do not rely on this value for anything but (periodic) metals
  | Electronic free energy        :        -289.22126291 Ha       -7870.11099060 eV

  Derived energy quantities:
  | Kinetic energy                :         289.53556639 Ha        7878.66362337 eV
  | Electrostatic energy          :        -559.12671259 Ha      -15214.61196046 eV
  | Energy correction for multipole
  | error in Hartree potential    :           0.00000593 Ha           0.00016131 eV
  | Sum of eigenvalues per atom                           :       -4444.95140744 eV
  | Total energy (T->0) per atom                          :       -7870.11088101 eV  <-- do not rely on this value for anything but (periodic) metals
  | Electronic free energy per atom                       :       -7870.11099060 eV

  Self-consistency convergence accuracy:
  | Change of charge density      :  0.3127E-01
  | Change of sum of eigenvalues  : -0.7006E+00 eV
  | Change of total energy        :  0.4052E-02 eV

  End self-consistency iteration #     1       :  max(cpu_time)    wall_clock(cpu1)
  | Time for this iteration                    :        0.372 s           0.373 s
  | Charge density update                      :        0.096 s           0.096 s
  | Density mixing & preconditioning           :        0.013 s           0.013 s
  | Hartree multipole update                   :        0.000 s           0.001 s
  | Hartree multipole summation                :        0.101 s           0.100 s
  | Integration                                :        0.058 s           0.058 s
  | Solution of K.-S. eqns.                    :        0.104 s           0.104 s
  | Total energy evaluation                    :        0.000 s           0.000 s

  Partial memory accounting:
  | Current value for overall tracked memory usage on task 0  :           2.610 MB
  | Peak value for overall tracked memory usage on task 0     :           3.271 MB after allocating wave
  | Largest tracked array allocation on task 0 so far         :           2.500 MB  when allocating +KS_eigenvector_complex
  Note:  These values currently only include a subset of arrays which are explicitly tracked.
  The "true" memory usage will be greater.
------------------------------------------------------------

------------------------------------------------------------
          Begin self-consistency iteration #    2

  Date     :  20190514, Time     :  104953.179
------------------------------------------------------------
  Evaluating new KS density using the density matrix
  Evaluating density matrix
  Time summed over all CPUs for getting density from density matrix: real work        0.087 s, elapsed        0.087 s
  Integration grid: deviation in total charge (<rho> - N_e) =  -2.753353E-13
  Pulay mixing of updated and previous charge densities.

  Evaluating partitioned Hartree potential by multipole expansion.
  | Analytical far-field extrapolation by fixed multipoles:
  | Hartree multipole sum: apparent total charge =  -0.349758E-02
  Summing up the Hartree potential.
  Time summed over all CPUs for potential: real work        0.125 s, elapsed        0.125 s
  | RMS charge density error from multipole expansion :   0.902922E-03
  | Average real-space part of the electrostatic potential :     -0.23540899 eV

  Integrating Hamiltonian matrix: batch-based integration.
  Time summed over all CPUs for integration: real work        0.057 s, elapsed        0.057 s

  Updating Kohn-Sham eigenvalues, eigenvectors, occupation numbers, and Fermi level.
  Solving generalized eigenproblem

  Obtaining occupation numbers and chemical potential using ELSI.
  | Chemical potential (Fermi level):    -4.62712946eV
  What follows are estimated values for band gap, HOMO, LUMO, etc.
  | They are estimated on a discrete k-point grid and not necessarily exact.
  | For converged numbers, create a DOS and/or band structure plot on a denser k-grid.

  Highest occupied state (VBM) at     -4.62890147 eV (relative to internal zero)
  | Occupation number:      1.19787711
  | K-point:     566 at    0.416667    0.500000    0.583333 (in units of recip. lattice)

  Lowest unoccupied state (CBM) at    -4.62344870 eV (relative to internal zero)
  | Occupation number:      0.60268907
  | K-point:     291 at    0.250000    0.000000    0.000000 (in units of recip. lattice)

  ESTIMATED overall HOMO-LUMO gap:      0.00545277 eV between HOMO at k-point 566 and LUMO at k-point 291
  | This appears to be an indirect band gap.
  | Smallest direct gap :      0.19717409 eV for k_point 575 at    0.250000    0.000000    0.000000 (in units of recip. lattice)
  However, this system has fractional occupation numbers. Since we use a finite k-point grid,
  this material is metallic within the approximate finite broadening function (occupation_type)
  applied to determine the occupation numbers.

  Checking to see if s.c.f. parameters should be adjusted.
  Adjusted the Pulay mixing parameter (charge_mix_param) for an expected low-gap system. New value:   0.020000 .
  Adjusted the occupation broadening width for an expected low-gap system. New value:      0.05000000 eV.

  Total energy components:
  | Sum of eigenvalues            :        -163.77590669 Ha       -4456.56916886 eV
  | XC energy correction          :         -19.59276921 Ha        -533.14637634 eV
  | XC potential correction       :          25.88745107 Ha         704.43338484 eV
  | Free-atom electrostatic energy:        -132.20540357 Ha       -3597.49206952 eV
  | Hartree energy correction     :           0.46685661 Ha          12.70381477 eV
  | Entropy correction            :          -0.00005918 Ha          -0.00161043 eV
  | ---------------------------
  | Total energy                  :        -289.21977179 Ha       -7870.07041512 eV
  | Total energy, T -> 0          :        -289.21983097 Ha       -7870.07202554 eV  <-- do not rely on this value for anything but (periodic) metals
  | Electronic free energy        :        -289.21989015 Ha       -7870.07363597 eV

  Derived energy quantities:
  | Kinetic energy                :         289.26663829 Ha        7871.34571755 eV
  | Electrostatic energy          :        -558.89364087 Ha      -15208.26975632 eV
  | Energy correction for multipole
  | error in Hartree potential    :           0.00012383 Ha           0.00336967 eV
  | Sum of eigenvalues per atom                           :       -4456.56916886 eV
  | Total energy (T->0) per atom                          :       -7870.07202554 eV  <-- do not rely on this value for anything but (periodic) metals
  | Electronic free energy per atom                       :       -7870.07363597 eV

  Self-consistency convergence accuracy:
  | Change of charge density      :  0.2971E-01
  | Change of sum of eigenvalues  : -0.1162E+02 eV
  | Change of total energy        :  0.4036E-01 eV

  End self-consistency iteration #     2       :  max(cpu_time)    wall_clock(cpu1)
  | Time for this iteration                    :        0.400 s           0.402 s
  | Charge density update                      :        0.096 s           0.097 s
  | Density mixing & preconditioning           :        0.013 s           0.013 s
  | Hartree multipole update                   :        0.001 s           0.001 s
  | Hartree multipole summation                :        0.127 s           0.127 s
  | Integration                                :        0.058 s           0.058 s
  | Solution of K.-S. eqns.                    :        0.105 s           0.105 s
  | Total energy evaluation                    :        0.000 s           0.001 s

  Partial memory accounting:
  | Current value for overall tracked memory usage on task 0  :           2.611 MB
  | Peak value for overall tracked memory usage on task 0     :           3.271 MB after allocating wave
  | Largest tracked array allocation on task 0 so far         :           2.500 MB  when allocating +KS_eigenvector_complex
  Note:  These values currently only include a subset of arrays which are explicitly tracked.
  The "true" memory usage will be greater.
------------------------------------------------------------

------------------------------------------------------------
          Begin self-consistency iteration #    3

  Date     :  20190514, Time     :  104953.581
------------------------------------------------------------
  Evaluating new KS density using the density matrix
  Evaluating density matrix
  Time summed over all CPUs for getting density from density matrix: real work        0.086 s, elapsed        0.086 s
  Integration grid: deviation in total charge (<rho> - N_e) =  -3.730349E-13
  Pulay mixing of updated and previous charge densities.

  Evaluating partitioned Hartree potential by multipole expansion.
  | Analytical far-field extrapolation by fixed multipoles:
  | Hartree multipole sum: apparent total charge =  -0.474076E-02
  Summing up the Hartree potential.
  Time summed over all CPUs for potential: real work        0.156 s, elapsed        0.156 s
  | RMS charge density error from multipole expansion :   0.117072E-02
  | Average real-space part of the electrostatic potential :     -0.30269248 eV

  Integrating Hamiltonian matrix: batch-based integration.
  Time summed over all CPUs for integration: real work        0.075 s, elapsed        0.075 s

  Updating Kohn-Sham eigenvalues, eigenvectors, occupation numbers, and Fermi level.
  Solving generalized eigenproblem

  Obtaining occupation numbers and chemical potential using ELSI.
  | Chemical potential (Fermi level):    -4.70140276eV
  What follows are estimated values for band gap, HOMO, LUMO, etc.
  | They are estimated on a discrete k-point grid and not necessarily exact.
  | For converged numbers, create a DOS and/or band structure plot on a denser k-grid.

  Highest occupied state (VBM) at     -4.72093761 eV (relative to internal zero)
  | Occupation number:      1.41941403
  | K-point:     401 at    0.333333    0.000000    0.250000 (in units of recip. lattice)

  Lowest unoccupied state (CBM) at    -4.69483993 eV (relative to internal zero)
  | Occupation number:      0.85273897
  | K-point:     565 at    0.416667    0.500000    0.500000 (in units of recip. lattice)

  ESTIMATED overall HOMO-LUMO gap:      0.02609768 eV between HOMO at k-point 401 and LUMO at k-point 565
  | This appears to be an indirect band gap.
  | Smallest direct gap :      0.03066128 eV for k_point 663 at    0.416667    0.500000    0.500000 (in units of recip. lattice)
  However, this system has fractional occupation numbers. Since we use a finite k-point grid,
  this material is metallic within the approximate finite broadening function (occupation_type)
  applied to determine the occupation numbers.

  Total energy components:
  | Sum of eigenvalues            :        -163.85005482 Ha       -4458.58684193 eV
  | XC energy correction          :         -19.58749264 Ha        -533.00279368 eV
  | XC potential correction       :          25.88055174 Ha         704.24564438 eV
  | Free-atom electrostatic energy:        -132.20540357 Ha       -3597.49206952 eV
  | Hartree energy correction     :           0.54271494 Ha          14.76802486 eV
  | Entropy correction            :          -0.00005868 Ha          -0.00159684 eV
  | ---------------------------
  | Total energy                  :        -289.21968435 Ha       -7870.06803589 eV
  | Total energy, T -> 0          :        -289.21974304 Ha       -7870.06963272 eV  <-- do not rely on this value for anything but (periodic) metals
  | Electronic free energy        :        -289.21980172 Ha       -7870.07122956 eV

  Derived energy quantities:
  | Kinetic energy                :         289.27911369 Ha        7871.68519050 eV
  | Electrostatic energy          :        -558.91130540 Ha      -15208.75043271 eV
  | Energy correction for multipole
  | error in Hartree potential    :           0.00016702 Ha           0.00454490 eV
  | Sum of eigenvalues per atom                           :       -4458.58684193 eV
  | Total energy (T->0) per atom                          :       -7870.06963272 eV  <-- do not rely on this value for anything but (periodic) metals
  | Electronic free energy per atom                       :       -7870.07122956 eV

  Self-consistency convergence accuracy:
  | Change of charge density      :  0.8056E-02
  | Change of sum of eigenvalues  : -0.2018E+01 eV
  | Change of total energy        :  0.2379E-02 eV

  End self-consistency iteration #     3       :  max(cpu_time)    wall_clock(cpu1)
  | Time for this iteration                    :        0.465 s           0.466 s
  | Charge density update                      :        0.097 s           0.097 s
  | Density mixing & preconditioning           :        0.014 s           0.014 s
  | Hartree multipole update                   :        0.000 s           0.001 s
  | Hartree multipole summation                :        0.157 s           0.157 s
  | Integration                                :        0.075 s           0.075 s
  | Solution of K.-S. eqns.                    :        0.120 s           0.121 s
  | Total energy evaluation                    :        0.000 s           0.001 s

  Partial memory accounting:
  | Current value for overall tracked memory usage on task 0  :           2.611 MB
  | Peak value for overall tracked memory usage on task 0     :           3.271 MB after allocating wave
  | Largest tracked array allocation on task 0 so far         :           2.500 MB  when allocating +KS_eigenvector_complex
  Note:  These values currently only include a subset of arrays which are explicitly tracked.
  The "true" memory usage will be greater.
------------------------------------------------------------

------------------------------------------------------------
          Begin self-consistency iteration #    4

  Date     :  20190514, Time     :  104954.047
------------------------------------------------------------
  Evaluating new KS density using the density matrix
  Evaluating density matrix
  Time summed over all CPUs for getting density from density matrix: real work        0.098 s, elapsed        0.098 s
  Integration grid: deviation in total charge (<rho> - N_e) =  -4.227729E-13
  Pulay mixing of updated and previous charge densities.

  Evaluating partitioned Hartree potential by multipole expansion.
  | Analytical far-field extrapolation by fixed multipoles:
  | Hartree multipole sum: apparent total charge =  -0.501563E-02
  Summing up the Hartree potential.
  Time summed over all CPUs for potential: real work        0.141 s, elapsed        0.141 s
  | RMS charge density error from multipole expansion :   0.122477E-02
  | Average real-space part of the electrostatic potential :     -0.31159300 eV

  Integrating Hamiltonian matrix: batch-based integration.
  Time summed over all CPUs for integration: real work        0.069 s, elapsed        0.069 s

  Updating Kohn-Sham eigenvalues, eigenvectors, occupation numbers, and Fermi level.
  Solving generalized eigenproblem

  Obtaining occupation numbers and chemical potential using ELSI.
  | Chemical potential (Fermi level):    -4.69999615eV
  What follows are estimated values for band gap, HOMO, LUMO, etc.
  | They are estimated on a discrete k-point grid and not necessarily exact.
  | For converged numbers, create a DOS and/or band structure plot on a denser k-grid.

  Highest occupied state (VBM) at     -4.71978408 eV (relative to internal zero)
  | Occupation number:      1.42430715
  | K-point:     401 at    0.333333    0.000000    0.250000 (in units of recip. lattice)

  Lowest unoccupied state (CBM) at    -4.69296740 eV (relative to internal zero)
  | Occupation number:      0.84241686
  | K-point:     565 at    0.416667    0.500000    0.500000 (in units of recip. lattice)

  ESTIMATED overall HOMO-LUMO gap:      0.02681668 eV between HOMO at k-point 401 and LUMO at k-point 565
  | This appears to be an indirect band gap.
  | Smallest direct gap :      0.03067877 eV for k_point 565 at    0.416667    0.500000    0.500000 (in units of recip. lattice)
  However, this system has fractional occupation numbers. Since we use a finite k-point grid,
  this material is metallic within the approximate finite broadening function (occupation_type)
  applied to determine the occupation numbers.

  Total energy components:
  | Sum of eigenvalues            :        -163.81094370 Ha       -4457.52257430 eV
  | XC energy correction          :         -19.59188561 Ha        -533.12233238 eV
  | XC potential correction       :          25.88639117 Ha         704.40454339 eV
  | Free-atom electrostatic energy:        -132.20540357 Ha       -3597.49206952 eV
  | Hartree energy correction     :           0.50215814 Ha          13.66441815 eV
  | Entropy correction            :          -0.00005852 Ha          -0.00159250 eV
  | ---------------------------
  | Total energy                  :        -289.21968357 Ha       -7870.06801466 eV
  | Total energy, T -> 0          :        -289.21974210 Ha       -7870.06960716 eV  <-- do not rely on this value for anything but (periodic) metals
  | Electronic free energy        :        -289.21980062 Ha       -7870.07119966 eV

  Derived energy quantities:
  | Kinetic energy                :         289.36395287 Ha        7873.99378200 eV
  | Electrostatic energy          :        -558.99175083 Ha      -15210.93946428 eV
  | Energy correction for multipole
  | error in Hartree potential    :           0.00017542 Ha           0.00477355 eV
  | Sum of eigenvalues per atom                           :       -4457.52257430 eV
  | Total energy (T->0) per atom                          :       -7870.06960716 eV  <-- do not rely on this value for anything but (periodic) metals
  | Electronic free energy per atom                       :       -7870.07119966 eV

  Self-consistency convergence accuracy:
  | Change of charge density      :  0.4913E-02
  | Change of sum of eigenvalues  :  0.1064E+01 eV
  | Change of total energy        :  0.2123E-04 eV

  End self-consistency iteration #     4       :  max(cpu_time)    wall_clock(cpu1)
  | Time for this iteration                    :        0.457 s           0.459 s
  | Charge density update                      :        0.109 s           0.109 s
  | Density mixing & preconditioning           :        0.015 s           0.015 s
  | Hartree multipole update                   :        0.000 s           0.001 s
  | Hartree multipole summation                :        0.143 s           0.143 s
  | Integration                                :        0.069 s           0.069 s
  | Solution of K.-S. eqns.                    :        0.120 s           0.121 s
  | Total energy evaluation                    :        0.000 s           0.001 s

  Partial memory accounting:
  | Current value for overall tracked memory usage on task 0  :           2.611 MB
  | Peak value for overall tracked memory usage on task 0     :           3.271 MB after allocating wave
  | Largest tracked array allocation on task 0 so far         :           2.500 MB  when allocating +KS_eigenvector_complex
  Note:  These values currently only include a subset of arrays which are explicitly tracked.
  The "true" memory usage will be greater.
------------------------------------------------------------

------------------------------------------------------------
          Begin self-consistency iteration #    5

  Date     :  20190514, Time     :  104954.507
------------------------------------------------------------
  Evaluating new KS density using the density matrix
  Evaluating density matrix
  Time summed over all CPUs for getting density from density matrix: real work        0.116 s, elapsed        0.116 s
  Integration grid: deviation in total charge (<rho> - N_e) =  -4.192202E-13
  Pulay mixing of updated and previous charge densities.

  Evaluating partitioned Hartree potential by multipole expansion.
  | Analytical far-field extrapolation by fixed multipoles:
  | Hartree multipole sum: apparent total charge =  -0.415227E-02
  Summing up the Hartree potential.
  Time summed over all CPUs for potential: real work        0.134 s, elapsed        0.134 s
  | RMS charge density error from multipole expansion :   0.129398E-02
  | Average real-space part of the electrostatic potential :     -0.33287265 eV

  Integrating Hamiltonian matrix: batch-based integration.
  Time summed over all CPUs for integration: real work        0.059 s, elapsed        0.059 s

  Updating Kohn-Sham eigenvalues, eigenvectors, occupation numbers, and Fermi level.
  Solving generalized eigenproblem

  Obtaining occupation numbers and chemical potential using ELSI.
  | Chemical potential (Fermi level):    -4.71781646eV
  What follows are estimated values for band gap, HOMO, LUMO, etc.
  | They are estimated on a discrete k-point grid and not necessarily exact.
  | For converged numbers, create a DOS and/or band structure plot on a denser k-grid.

  Highest occupied state (VBM) at     -4.73704508 eV (relative to internal zero)
  | Occupation number:      1.41346748
  | K-point:     401 at    0.333333    0.000000    0.250000 (in units of recip. lattice)

  Lowest unoccupied state (CBM) at    -4.71124635 eV (relative to internal zero)
  | Occupation number:      0.85257753
  | K-point:     565 at    0.416667    0.500000    0.500000 (in units of recip. lattice)

  ESTIMATED overall HOMO-LUMO gap:      0.02579873 eV between HOMO at k-point 401 and LUMO at k-point 565
  | This appears to be an indirect band gap.
  | Smallest direct gap :      0.03060539 eV for k_point 565 at    0.416667    0.500000    0.500000 (in units of recip. lattice)
  However, this system has fractional occupation numbers. Since we use a finite k-point grid,
  this material is metallic within the approximate finite broadening function (occupation_type)
  applied to determine the occupation numbers.

  Total energy components:
  | Sum of eigenvalues            :        -163.84325490 Ha       -4458.40180693 eV
  | XC energy correction          :         -19.58867558 Ha        -533.03498293 eV
  | XC potential correction       :          25.88216345 Ha         704.28950142 eV
  | Free-atom electrostatic energy:        -132.20540357 Ha       -3597.49206952 eV
  | Hartree energy correction     :           0.53548494 Ha          14.57128659 eV
  | Entropy correction            :          -0.00005883 Ha          -0.00160093 eV
  | ---------------------------
  | Total energy                  :        -289.21968566 Ha       -7870.06807138 eV
  | Total energy, T -> 0          :        -289.21974449 Ha       -7870.06967230 eV  <-- do not rely on this value for anything but (periodic) metals
  | Electronic free energy        :        -289.21980332 Ha       -7870.07127323 eV

  Derived energy quantities:
  | Kinetic energy                :         289.33810987 Ha        7873.29055822 eV
  | Electrostatic energy          :        -558.96911995 Ha      -15210.32364667 eV
  | Energy correction for multipole
  | error in Hartree potential    :           0.00018857 Ha           0.00513136 eV
  | Sum of eigenvalues per atom                           :       -4458.40180693 eV
  | Total energy (T->0) per atom                          :       -7870.06967230 eV  <-- do not rely on this value for anything but (periodic) metals
  | Electronic free energy per atom                       :       -7870.07127323 eV

  Self-consistency convergence accuracy:
  | Change of charge density      :  0.1674E-02
  | Change of sum of eigenvalues  : -0.8792E+00 eV
  | Change of total energy        : -0.5672E-04 eV

  End self-consistency iteration #     5       :  max(cpu_time)    wall_clock(cpu1)
  | Time for this iteration                    :        0.457 s           0.458 s
  | Charge density update                      :        0.135 s           0.135 s
  | Density mixing & preconditioning           :        0.017 s           0.017 s
  | Hartree multipole update                   :        0.001 s           0.001 s
  | Hartree multipole summation                :        0.137 s           0.136 s
  | Integration                                :        0.059 s           0.059 s
  | Solution of K.-S. eqns.                    :        0.109 s           0.109 s
  | Total energy evaluation                    :        0.000 s           0.001 s

  Partial memory accounting:
  | Current value for overall tracked memory usage on task 0  :           2.611 MB
  | Peak value for overall tracked memory usage on task 0     :           3.271 MB after allocating wave
  | Largest tracked array allocation on task 0 so far         :           2.500 MB  when allocating +KS_eigenvector_complex
  Note:  These values currently only include a subset of arrays which are explicitly tracked.
  The "true" memory usage will be greater.
------------------------------------------------------------

------------------------------------------------------------
          Begin self-consistency iteration #    6

  Date     :  20190514, Time     :  104954.965
------------------------------------------------------------
  Evaluating new KS density using the density matrix
  Evaluating density matrix
  Time summed over all CPUs for getting density from density matrix: real work        0.085 s, elapsed        0.085 s
  Integration grid: deviation in total charge (<rho> - N_e) =  -3.694822E-13
  Pulay mixing of updated and previous charge densities.

  Evaluating partitioned Hartree potential by multipole expansion.
  | Analytical far-field extrapolation by fixed multipoles:
  | Hartree multipole sum: apparent total charge =  -0.133130E-02
  Summing up the Hartree potential.
  Time summed over all CPUs for potential: real work        0.141 s, elapsed        0.142 s
  | RMS charge density error from multipole expansion :   0.126444E-02
  | Average real-space part of the electrostatic potential :     -0.33015034 eV

  Integrating Hamiltonian matrix: batch-based integration.
  Time summed over all CPUs for integration: real work        0.058 s, elapsed        0.058 s

  Updating Kohn-Sham eigenvalues, eigenvectors, occupation numbers, and Fermi level.
  Solving generalized eigenproblem

  Obtaining occupation numbers and chemical potential using ELSI.
  | Chemical potential (Fermi level):    -4.70086944eV
  What follows are estimated values for band gap, HOMO, LUMO, etc.
  | They are estimated on a discrete k-point grid and not necessarily exact.
  | For converged numbers, create a DOS and/or band structure plot on a denser k-grid.

  Highest occupied state (VBM) at     -4.72057247 eV (relative to internal zero)
  | Occupation number:      1.42266779
  | K-point:     444 at    0.333333    0.416667    0.000000 (in units of recip. lattice)

  Lowest unoccupied state (CBM) at    -4.69383653 eV (relative to internal zero)
  | Occupation number:      0.84232480
  | K-point:     566 at    0.416667    0.500000    0.583333 (in units of recip. lattice)

  ESTIMATED overall HOMO-LUMO gap:      0.02673594 eV between HOMO at k-point 444 and LUMO at k-point 566
  | This appears to be an indirect band gap.
  | Smallest direct gap :      0.03067134 eV for k_point 566 at    0.416667    0.500000    0.583333 (in units of recip. lattice)
  However, this system has fractional occupation numbers. Since we use a finite k-point grid,
  this material is metallic within the approximate finite broadening function (occupation_type)
  applied to determine the occupation numbers.

  Total energy components:
  | Sum of eigenvalues            :        -163.81782587 Ha       -4457.70984764 eV
  | XC energy correction          :         -19.58971958 Ha        -533.06339177 eV
  | XC potential correction       :          25.88354250 Ha         704.32702727 eV
  | Free-atom electrostatic energy:        -132.20540357 Ha       -3597.49206952 eV
  | Hartree energy correction     :           0.50972384 Ha          13.87029147 eV
  | Entropy correction            :          -0.00005856 Ha          -0.00159349 eV
  | ---------------------------
  | Total energy                  :        -289.21968267 Ha       -7870.06799019 eV
  | Total energy, T -> 0          :        -289.21974123 Ha       -7870.06958368 eV  <-- do not rely on this value for anything but (periodic) metals
  | Electronic free energy        :        -289.21979979 Ha       -7870.07117718 eV

  Derived energy quantities:
  | Kinetic energy                :         289.34245704 Ha        7873.40885068 eV
  | Electrostatic energy          :        -558.97242013 Ha      -15210.41344910 eV
  | Energy correction for multipole
  | error in Hartree potential    :           0.00018573 Ha           0.00505394 eV
  | Sum of eigenvalues per atom                           :       -4457.70984764 eV
  | Total energy (T->0) per atom                          :       -7870.06958368 eV  <-- do not rely on this value for anything but (periodic) metals
  | Electronic free energy per atom                       :       -7870.07117718 eV

  Self-consistency convergence accuracy:
  | Change of charge density      :  0.1693E-02
  | Change of sum of eigenvalues  :  0.6920E+00 eV
  | Change of total energy        :  0.8119E-04 eV

  End self-consistency iteration #     6       :  max(cpu_time)    wall_clock(cpu1)
  | Time for this iteration                    :        0.421 s           0.420 s
  | Charge density update                      :        0.096 s           0.096 s
  | Density mixing & preconditioning           :        0.014 s           0.014 s
  | Hartree multipole update                   :        0.000 s           0.000 s
  | Hartree multipole summation                :        0.143 s           0.144 s
  | Integration                                :        0.058 s           0.058 s
  | Solution of K.-S. eqns.                    :        0.108 s           0.108 s
  | Total energy evaluation                    :        0.000 s           0.000 s

  Partial memory accounting:
  | Current value for overall tracked memory usage on task 0  :           2.612 MB
  | Peak value for overall tracked memory usage on task 0     :           3.271 MB after allocating wave
  | Largest tracked array allocation on task 0 so far         :           2.500 MB  when allocating +KS_eigenvector_complex
  Note:  These values currently only include a subset of arrays which are explicitly tracked.
  The "true" memory usage will be greater.
------------------------------------------------------------

------------------------------------------------------------
          Begin self-consistency iteration #    7

  Date     :  20190514, Time     :  104955.385
------------------------------------------------------------
  Evaluating new KS density using the density matrix
  Evaluating density matrix
  Time summed over all CPUs for getting density from density matrix: real work        0.086 s, elapsed        0.086 s
  Integration grid: deviation in total charge (<rho> - N_e) =  -4.547474E-13
  Pulay mixing of updated and previous charge densities.

  Evaluating partitioned Hartree potential by multipole expansion.
  | Analytical far-field extrapolation by fixed multipoles:
  | Hartree multipole sum: apparent total charge =  -0.138828E-02
  Summing up the Hartree potential.
  Time summed over all CPUs for potential: real work        0.133 s, elapsed        0.133 s
  | RMS charge density error from multipole expansion :   0.127527E-02
  | Average real-space part of the electrostatic potential :     -0.33354561 eV

  Integrating Hamiltonian matrix: batch-based integration.
  Time summed over all CPUs for integration: real work        0.058 s, elapsed        0.058 s

  Updating Kohn-Sham eigenvalues, eigenvectors, occupation numbers, and Fermi level.
  Solving generalized eigenproblem

  Obtaining occupation numbers and chemical potential using ELSI.
  | Chemical potential (Fermi level):    -4.70496629eV
  What follows are estimated values for band gap, HOMO, LUMO, etc.
  | They are estimated on a discrete k-point grid and not necessarily exact.
  | For converged numbers, create a DOS and/or band structure plot on a denser k-grid.

  Highest occupied state (VBM) at     -4.72454301 eV (relative to internal zero)
  | Occupation number:      1.42022487
  | K-point:     444 at    0.333333    0.416667    0.000000 (in units of recip. lattice)

  Lowest unoccupied state (CBM) at    -4.69804997 eV (relative to internal zero)
  | Occupation number:      0.84490537
  | K-point:     566 at    0.416667    0.500000    0.583333 (in units of recip. lattice)

  ESTIMATED overall HOMO-LUMO gap:      0.02649303 eV between HOMO at k-point 444 and LUMO at k-point 566
  | This appears to be an indirect band gap.
  | Smallest direct gap :      0.03065463 eV for k_point 574 at    0.416667    0.500000    0.583333 (in units of recip. lattice)
  However, this system has fractional occupation numbers. Since we use a finite k-point grid,
  this material is metallic within the approximate finite broadening function (occupation_type)
  applied to determine the occupation numbers.

  Total energy components:
  | Sum of eigenvalues            :        -163.82466342 Ha       -4457.89590687 eV
  | XC energy correction          :         -19.58917343 Ha        -533.04853019 eV
  | XC potential correction       :          25.88282337 Ha         704.30745860 eV
  | Free-atom electrostatic energy:        -132.20540357 Ha       -3597.49206952 eV
  | Hartree energy correction     :           0.51673472 Ha          14.06106722 eV
  | Entropy correction            :          -0.00005863 Ha          -0.00159544 eV
  | ---------------------------
  | Total energy                  :        -289.21968233 Ha       -7870.06798076 eV
  | Total energy, T -> 0          :        -289.21974096 Ha       -7870.06957620 eV  <-- do not rely on this value for anything but (periodic) metals
  | Electronic free energy        :        -289.21979959 Ha       -7870.07117164 eV

  Derived energy quantities:
  | Kinetic energy                :         289.33884009 Ha        7873.31042847 eV
  | Electrostatic energy          :        -558.96934899 Ha      -15210.32987904 eV
  | Energy correction for multipole
  | error in Hartree potential    :           0.00018767 Ha           0.00510684 eV
  | Sum of eigenvalues per atom                           :       -4457.89590687 eV
  | Total energy (T->0) per atom                          :       -7870.06957620 eV  <-- do not rely on this value for anything but (periodic) metals
  | Electronic free energy per atom                       :       -7870.07117164 eV

  Self-consistency convergence accuracy:
  | Change of charge density      :  0.1712E-03
  | Change of sum of eigenvalues  : -0.1861E+00 eV
  | Change of total energy        :  0.9430E-05 eV

  End self-consistency iteration #     7       :  max(cpu_time)    wall_clock(cpu1)
  | Time for this iteration                    :        0.411 s           0.412 s
  | Charge density update                      :        0.096 s           0.097 s
  | Density mixing & preconditioning           :        0.013 s           0.013 s
  | Hartree multipole update                   :        0.000 s           0.000 s
  | Hartree multipole summation                :        0.134 s           0.135 s
  | Integration                                :        0.058 s           0.058 s
  | Solution of K.-S. eqns.                    :        0.108 s           0.108 s
  | Total energy evaluation                    :        0.000 s           0.001 s

  Partial memory accounting:
  | Current value for overall tracked memory usage on task 0  :           2.612 MB
  | Peak value for overall tracked memory usage on task 0     :           3.271 MB after allocating wave
  | Largest tracked array allocation on task 0 so far         :           2.500 MB  when allocating +KS_eigenvector_complex
  Note:  These values currently only include a subset of arrays which are explicitly tracked.
  The "true" memory usage will be greater.
------------------------------------------------------------

------------------------------------------------------------
          Begin self-consistency iteration #    8

  Date     :  20190514, Time     :  104955.797
------------------------------------------------------------
  Evaluating new KS density using the density matrix
  Evaluating density matrix
  Time summed over all CPUs for getting density from density matrix: real work        0.084 s, elapsed        0.084 s
  Integration grid: deviation in total charge (<rho> - N_e) =  -2.771117E-13
  Pulay mixing of updated and previous charge densities.

  Evaluating partitioned Hartree potential by multipole expansion.
  | Analytical far-field extrapolation by fixed multipoles:
  | Hartree multipole sum: apparent total charge =  -0.467008E-04
  Summing up the Hartree potential.
  Time summed over all CPUs for potential: real work        0.139 s, elapsed        0.139 s
  | RMS charge density error from multipole expansion :   0.125317E-02
  | Average real-space part of the electrostatic potential :     -0.33328408 eV

  Integrating Hamiltonian matrix: batch-based integration.
  Time summed over all CPUs for integration: real work        0.056 s, elapsed        0.056 s

  Updating Kohn-Sham eigenvalues, eigenvectors, occupation numbers, and Fermi level.
  Solving generalized eigenproblem

  Obtaining occupation numbers and chemical potential using ELSI.
  | Chemical potential (Fermi level):    -4.69992800eV
  What follows are estimated values for band gap, HOMO, LUMO, etc.
  | They are estimated on a discrete k-point grid and not necessarily exact.
  | For converged numbers, create a DOS and/or band structure plot on a denser k-grid.

  Highest occupied state (VBM) at     -4.71962899 eV (relative to internal zero)
  | Occupation number:      1.42262852
  | K-point:     401 at    0.333333    0.000000    0.250000 (in units of recip. lattice)

  Lowest unoccupied state (CBM) at    -4.69293496 eV (relative to internal zero)
  | Occupation number:      0.84320703
  | K-point:     565 at    0.416667    0.500000    0.500000 (in units of recip. lattice)

  ESTIMATED overall HOMO-LUMO gap:      0.02669403 eV between HOMO at k-point 401 and LUMO at k-point 565
  | This appears to be an indirect band gap.
  | Smallest direct gap :      0.03067310 eV for k_point 565 at    0.416667    0.500000    0.500000 (in units of recip. lattice)
  However, this system has fractional occupation numbers. Since we use a finite k-point grid,
  this material is metallic within the approximate finite broadening function (occupation_type)
  applied to determine the occupation numbers.

  Total energy components:
  | Sum of eigenvalues            :        -163.81642563 Ha       -4457.67174515 eV
  | XC energy correction          :         -19.58954575 Ha        -533.05866148 eV
  | XC potential correction       :          25.88331841 Ha         704.32092929 eV
  | Free-atom electrostatic energy:        -132.20540357 Ha       -3597.49206952 eV
  | Hartree energy correction     :           0.50837398 Ha          13.83355976 eV
  | Entropy correction            :          -0.00005856 Ha          -0.00159360 eV
  | ---------------------------
  | Total energy                  :        -289.21968256 Ha       -7870.06798710 eV
  | Total energy, T -> 0          :        -289.21974112 Ha       -7870.06958070 eV  <-- do not rely on this value for anything but (periodic) metals
  | Electronic free energy        :        -289.21979969 Ha       -7870.07117430 eV

  Derived energy quantities:
  | Kinetic energy                :         289.34328511 Ha        7873.43138374 eV
  | Electrostatic energy          :        -558.97342193 Ha      -15210.44070935 eV
  | Energy correction for multipole
  | error in Hartree potential    :           0.00018532 Ha           0.00504282 eV
  | Sum of eigenvalues per atom                           :       -4457.67174515 eV
  | Total energy (T->0) per atom                          :       -7870.06958070 eV  <-- do not rely on this value for anything but (periodic) metals
  | Electronic free energy per atom                       :       -7870.07117430 eV

  Self-consistency convergence accuracy:
  | Change of charge density      :  0.5134E-03
  | Change of sum of eigenvalues  :  0.2242E+00 eV
  | Change of total energy        : -0.6340E-05 eV

  End self-consistency iteration #     8       :  max(cpu_time)    wall_clock(cpu1)
  | Time for this iteration                    :        0.416 s           0.415 s
  | Charge density update                      :        0.095 s           0.095 s
  | Density mixing & preconditioning           :        0.012 s           0.013 s
  | Hartree multipole update                   :        0.000 s           0.000 s
  | Hartree multipole summation                :        0.142 s           0.142 s
  | Integration                                :        0.056 s           0.056 s
  | Solution of K.-S. eqns.                    :        0.109 s           0.109 s
  | Total energy evaluation                    :        0.000 s           0.000 s

  Partial memory accounting:
  | Current value for overall tracked memory usage on task 0  :           2.612 MB
  | Peak value for overall tracked memory usage on task 0     :           3.271 MB after allocating wave
  | Largest tracked array allocation on task 0 so far         :           2.500 MB  when allocating +KS_eigenvector_complex
  Note:  These values currently only include a subset of arrays which are explicitly tracked.
  The "true" memory usage will be greater.
------------------------------------------------------------

------------------------------------------------------------
          Begin self-consistency iteration #    9

  Date     :  20190514, Time     :  104956.213
------------------------------------------------------------
  Evaluating new KS density using the density matrix
  Evaluating density matrix
  Time summed over all CPUs for getting density from density matrix: real work        0.085 s, elapsed        0.085 s
  Integration grid: deviation in total charge (<rho> - N_e) =  -3.765876E-13
  Pulay mixing of updated and previous charge densities.

  Evaluating partitioned Hartree potential by multipole expansion.
  | Analytical far-field extrapolation by fixed multipoles:
  | Hartree multipole sum: apparent total charge =  -0.500386E-04
  Summing up the Hartree potential.
  Time summed over all CPUs for potential: real work        0.131 s, elapsed        0.131 s
  | RMS charge density error from multipole expansion :   0.125341E-02
  | Average real-space part of the electrostatic potential :     -0.33332359 eV

  Integrating Hamiltonian matrix: batch-based integration.
  Time summed over all CPUs for integration: real work        0.055 s, elapsed        0.055 s

  Updating Kohn-Sham eigenvalues, eigenvectors, occupation numbers, and Fermi level.
  Solving generalized eigenproblem

  Obtaining occupation numbers and chemical potential using ELSI.
  | Chemical potential (Fermi level):    -4.69995369eV
  What follows are estimated values for band gap, HOMO, LUMO, etc.
  | They are estimated on a discrete k-point grid and not necessarily exact.
  | For converged numbers, create a DOS and/or band structure plot on a denser k-grid.

  Highest occupied state (VBM) at     -4.71965438 eV (relative to internal zero)
  | Occupation number:      1.42262280
  | K-point:     339 at    0.250000    0.416667    0.333333 (in units of recip. lattice)

  Lowest unoccupied state (CBM) at    -4.69296038 eV (relative to internal zero)
  | Occupation number:      0.84320122
  | K-point:     663 at    0.500000    0.416667    0.583333 (in units of recip. lattice)

  ESTIMATED overall HOMO-LUMO gap:      0.02669400 eV between HOMO at k-point 339 and LUMO at k-point 663
  | This appears to be an indirect band gap.
  | Smallest direct gap :      0.03067310 eV for k_point 663 at    0.500000    0.416667    0.583333 (in units of recip. lattice)
  However, this system has fractional occupation numbers. Since we use a finite k-point grid,
  this material is metallic within the approximate finite broadening function (occupation_type)
  applied to determine the occupation numbers.

  Total energy components:
  | Sum of eigenvalues            :        -163.81643024 Ha       -4457.67187066 eV
  | XC energy correction          :         -19.58954535 Ha        -533.05865071 eV
  | XC potential correction       :          25.88331791 Ha         704.32091591 eV
  | Free-atom electrostatic energy:        -132.20540357 Ha       -3597.49206952 eV
  | Hartree energy correction     :           0.50837870 Ha          13.83368818 eV
  | Entropy correction            :          -0.00005856 Ha          -0.00159360 eV
  | ---------------------------
  | Total energy                  :        -289.21968255 Ha       -7870.06798680 eV
  | Total energy, T -> 0          :        -289.21974111 Ha       -7870.06958040 eV  <-- do not rely on this value for anything but (periodic) metals
  | Electronic free energy        :        -289.21979968 Ha       -7870.07117401 eV

  Derived energy quantities:
  | Kinetic energy                :         289.34330876 Ha        7873.43202728 eV
  | Electrostatic energy          :        -558.97344596 Ha      -15210.44136337 eV
  | Energy correction for multipole
  | error in Hartree potential    :           0.00018537 Ha           0.00504416 eV
  | Sum of eigenvalues per atom                           :       -4457.67187066 eV
  | Total energy (T->0) per atom                          :       -7870.06958040 eV  <-- do not rely on this value for anything but (periodic) metals
[...]
  | Hartree multipole update                   :        0.001 s           0.001 s
  | Hartree multipole summation                :        0.133 s           0.133 s
  | Integration                                :        0.055 s           0.055 s
  | Solution of K.-S. eqns.                    :        0.110 s           0.110 s
  | Total energy evaluation                    :        0.000 s           0.000 s

  Partial memory accounting:
  | Current value for overall tracked memory usage on task 0  :           2.613 MB
  | Peak value for overall tracked memory usage on task 0     :           3.271 MB after allocating wave
  | Largest tracked array allocation on task 0 so far         :           2.500 MB  when allocating +KS_eigenvector_complex
  Note:  These values currently only include a subset of arrays which are explicitly tracked.
  The "true" memory usage will be greater.
------------------------------------------------------------

------------------------------------------------------------
          Begin self-consistency iteration #   10

  Date     :  20190514, Time     :  104956.623
------------------------------------------------------------
  Evaluating new KS density using the density matrix
  Evaluating density matrix
  Time summed over all CPUs for getting density from density matrix: real work        0.088 s, elapsed        0.088 s
  Integration grid: deviation in total charge (<rho> - N_e) =  -3.534950E-13
  Pulay mixing of updated and previous charge densities.

  Evaluating partitioned Hartree potential by multipole expansion.
  | Analytical far-field extrapolation by fixed multipoles:
  | Hartree multipole sum: apparent total charge =  -0.773602E-04
  Summing up the Hartree potential.
  Time summed over all CPUs for potential: real work        0.131 s, elapsed        0.131 s
  | RMS charge density error from multipole expansion :   0.125298E-02
  | Average real-space part of the electrostatic potential :     -0.33311366 eV

  Integrating Hamiltonian matrix: batch-based integration.
  Time summed over all CPUs for integration: real work        0.061 s, elapsed        0.061 s

  Updating Kohn-Sham eigenvalues, eigenvectors, occupation numbers, and Fermi level.
  Solving generalized eigenproblem

  Obtaining occupation numbers and chemical potential using ELSI.
  | Chemical potential (Fermi level):    -4.69983595eV
  What follows are estimated values for band gap, HOMO, LUMO, etc.
  | They are estimated on a discrete k-point grid and not necessarily exact.
  | For converged numbers, create a DOS and/or band structure plot on a denser k-grid.

  Highest occupied state (VBM) at     -4.71954099 eV (relative to internal zero)
  | Occupation number:      1.42270672
  | K-point:     537 at    0.416667    0.250000    0.333333 (in units of recip. lattice)

  Lowest unoccupied state (CBM) at    -4.69283884 eV (relative to internal zero)
  | Occupation number:      0.84311683
  | K-point:     672 at    0.500000    0.500000    0.583333 (in units of recip. lattice)

  ESTIMATED overall HOMO-LUMO gap:      0.02670216 eV between HOMO at k-point 537 and LUMO at k-point 672
  | This appears to be an indirect band gap.
  | Smallest direct gap :      0.03067371 eV for k_point 672 at    0.500000    0.500000    0.583333 (in units of recip. lattice)
  However, this system has fractional occupation numbers. Since we use a finite k-point grid,
  this material is metallic within the approximate finite broadening function (occupation_type)
  applied to determine the occupation numbers.

  Total energy components:
  | Sum of eigenvalues            :        -163.81622367 Ha       -4457.66624967 eV
  | XC energy correction          :         -19.58956935 Ha        -533.05930377 eV
  | XC potential correction       :          25.88334941 Ha         704.32177285 eV
  | Free-atom electrostatic energy:        -132.20540357 Ha       -3597.49206952 eV
  | Hartree energy correction     :           0.50816461 Ha          13.82786258 eV
  | Entropy correction            :          -0.00005856 Ha          -0.00159354 eV
  | ---------------------------
  | Total energy                  :        -289.21968258 Ha       -7870.06798754 eV
  | Total energy, T -> 0          :        -289.21974114 Ha       -7870.06958107 eV  <-- do not rely on this value for anything but (periodic) metals
  | Electronic free energy        :        -289.21979970 Ha       -7870.07117461 eV

  Derived energy quantities:
  | Kinetic energy                :         289.34342191 Ha        7873.43510607 eV
  | Electrostatic energy          :        -558.97353513 Ha      -15210.44378984 eV
  | Energy correction for multipole
  | error in Hartree potential    :           0.00018529 Ha           0.00504192 eV
  | Sum of eigenvalues per atom                           :       -4457.66624967 eV
  | Total energy (T->0) per atom                          :       -7870.06958107 eV  <-- do not rely on this value for anything but (periodic) metals
  | Electronic free energy per atom                       :       -7870.07117461 eV

  Self-consistency convergence accuracy:
  | Change of charge density      :  0.1285E-04
  | Change of sum of eigenvalues  :  0.5621E-02 eV
  | Change of total energy        : -0.7364E-06 eV

  End self-consistency iteration #    10       :  max(cpu_time)    wall_clock(cpu1)
  | Time for this iteration                    :        0.410 s           0.409 s
  | Charge density update                      :        0.097 s           0.097 s
  | Density mixing & preconditioning           :        0.012 s           0.012 s
  | Hartree multipole update                   :        0.000 s           0.000 s
  | Hartree multipole summation                :        0.134 s           0.134 s
  | Integration                                :        0.061 s           0.061 s
  | Solution of K.-S. eqns.                    :        0.105 s           0.105 s
  | Total energy evaluation                    :        0.000 s           0.000 s

  Partial memory accounting:
  | Current value for overall tracked memory usage on task 0  :           2.613 MB
  | Peak value for overall tracked memory usage on task 0     :           3.271 MB after allocating wave
  | Largest tracked array allocation on task 0 so far         :           2.500 MB  when allocating +KS_eigenvector_complex
  Note:  These values currently only include a subset of arrays which are explicitly tracked.
  The "true" memory usage will be greater.
------------------------------------------------------------

------------------------------------------------------------
          Begin self-consistency iteration #   11

  Date     :  20190514, Time     :  104957.032
------------------------------------------------------------
  Evaluating new KS density using the density matrix
  Evaluating density matrix
  Time summed over all CPUs for getting density from density matrix: real work        0.084 s, elapsed        0.084 s
  Integration grid: deviation in total charge (<rho> - N_e) =  -3.126388E-13
  Pulay mixing of updated and previous charge densities.

  Evaluating partitioned Hartree potential by multipole expansion.
  | Analytical far-field extrapolation by fixed multipoles:
  | Hartree multipole sum: apparent total charge =  -0.772518E-04
  Summing up the Hartree potential.
  Time summed over all CPUs for potential: real work        0.128 s, elapsed        0.128 s
  | RMS charge density error from multipole expansion :   0.125299E-02
  | Average real-space part of the electrostatic potential :     -0.33311977 eV

  Integrating Hamiltonian matrix: batch-based integration.
  Time summed over all CPUs for integration: real work        0.055 s, elapsed        0.055 s

  Updating Kohn-Sham eigenvalues, eigenvectors, occupation numbers, and Fermi level.
  Solving generalized eigenproblem

  Obtaining occupation numbers and chemical potential using ELSI.
  | Chemical potential (Fermi level):    -4.69984328eV
  What follows are estimated values for band gap, HOMO, LUMO, etc.
  | They are estimated on a discrete k-point grid and not necessarily exact.
  | For converged numbers, create a DOS and/or band structure plot on a denser k-grid.

  Highest occupied state (VBM) at     -4.71954807 eV (relative to internal zero)
  | Occupation number:      1.42270184
  | K-point:     786 at    0.750000    0.666667    0.583333 (in units of recip. lattice)

  Lowest unoccupied state (CBM) at    -4.69284639 eV (relative to internal zero)
  | Occupation number:      0.84312174
  | K-point:     663 at    0.500000    0.416667    0.583333 (in units of recip. lattice)

  ESTIMATED overall HOMO-LUMO gap:      0.02670168 eV between HOMO at k-point 786 and LUMO at k-point 663
  | This appears to be an indirect band gap.
  | Smallest direct gap :      0.03067366 eV for k_point 663 at    0.500000    0.416667    0.583333 (in units of recip. lattice)
  However, this system has fractional occupation numbers. Since we use a finite k-point grid,
  this material is metallic within the approximate finite broadening function (occupation_type)
  applied to determine the occupation numbers.

  Total energy components:
  | Sum of eigenvalues            :        -163.81623704 Ha       -4457.66661338 eV
  | XC energy correction          :         -19.58956829 Ha        -533.05927487 eV
  | XC potential correction       :          25.88334801 Ha         704.32173480 eV
  | Free-atom electrostatic energy:        -132.20540357 Ha       -3597.49206952 eV
  | Hartree energy correction     :           0.50817831 Ha          13.82823546 eV
  | Entropy correction            :          -0.00005856 Ha          -0.00159354 eV
  | ---------------------------
  | Total energy                  :        -289.21968257 Ha       -7870.06798751 eV
  | Total energy, T -> 0          :        -289.21974114 Ha       -7870.06958105 eV  <-- do not rely on this value for anything but (periodic) metals
  | Electronic free energy        :        -289.21979970 Ha       -7870.07117459 eV

  Derived energy quantities:
  | Kinetic energy                :         289.34341481 Ha        7873.43491306 eV
  | Electrostatic energy          :        -558.97352910 Ha      -15210.44362570 eV
  | Energy correction for multipole
  | error in Hartree potential    :           0.00018529 Ha           0.00504200 eV
  | Sum of eigenvalues per atom                           :       -4457.66661338 eV
  | Total energy (T->0) per atom                          :       -7870.06958105 eV  <-- do not rely on this value for anything but (periodic) metals
  | Electronic free energy per atom                       :       -7870.07117459 eV

  Self-consistency convergence accuracy:
  | Change of charge density      :  0.7260E-06
  | Change of sum of eigenvalues  : -0.3637E-03 eV
  | Change of total energy        :  0.2730E-07 eV

  Preliminary charge convergence reached. Turning off preconditioner.

  Writing Kohn-Sham eigenvalues.
  K-point:       1 at    0.000000    0.000000    0.000000 (in units of recip. lattice)

  State    Occupation    Eigenvalue [Ha]    Eigenvalue [eV]
      1       2.00000         -65.540962        -1783.46031
      2       2.00000          -5.129664         -139.58526
      3       2.00000          -3.544513          -96.45110
      4       2.00000          -3.544513          -96.45110
      5       2.00000          -3.544513          -96.45110
      6       2.00000          -0.434126          -11.81318
      7       0.00000          -0.115907           -3.15400
      8       0.00000          -0.115907           -3.15400
      9       0.00000          -0.115907           -3.15400
     10       0.00000           0.033825            0.92042

  What follows are estimated values for band gap, HOMO, LUMO, etc.
  | They are estimated on a discrete k-point grid and not necessarily exact.
  | For converged numbers, create a DOS and/or band structure plot on a denser k-grid.

  Highest occupied state (VBM) at     -4.71954807 eV (relative to internal zero)
  | Occupation number:      1.42270184
  | K-point:     786 at    0.750000    0.666667    0.583333 (in units of recip. lattice)

  Lowest unoccupied state (CBM) at    -4.69284639 eV (relative to internal zero)
  | Occupation number:      0.84312174
  | K-point:     663 at    0.500000    0.416667    0.583333 (in units of recip. lattice)

  ESTIMATED overall HOMO-LUMO gap:      0.02670168 eV between HOMO at k-point 786 and LUMO at k-point 663
  | This appears to be an indirect band gap.
  | Smallest direct gap :      0.03067366 eV for k_point 663 at    0.500000    0.416667    0.583333 (in units of recip. lattice)
  However, this system has fractional occupation numbers. Since we use a finite k-point grid,
  this material is metallic within the approximate finite broadening function (occupation_type)
  applied to determine the occupation numbers.

  Self-consistency cycle converged.

  End self-consistency iteration #    11       :  max(cpu_time)    wall_clock(cpu1)
  | Time for this iteration                    :        0.400 s           0.400 s
  | Charge density update                      :        0.095 s           0.095 s
  | Density mixing                             :        0.013 s           0.013 s
  | Hartree multipole update                   :        0.000 s           0.001 s
  | Hartree multipole summation                :        0.130 s           0.130 s
  | Integration                                :        0.055 s           0.055 s
  | Solution of K.-S. eqns.                    :        0.106 s           0.106 s
  | Total energy evaluation                    :        0.000 s           0.000 s

  Partial memory accounting:
  | Current value for overall tracked memory usage on task 0  :           2.613 MB
  | Peak value for overall tracked memory usage on task 0     :           3.271 MB after allocating wave
  | Largest tracked array allocation on task 0 so far         :           2.500 MB  when allocating +KS_eigenvector_complex
  Note:  These values currently only include a subset of arrays which are explicitly tracked.
  The "true" memory usage will be greater.
------------------------------------------------------------

  Energy and forces in a compact form:
  | Total energy uncorrected      :         -0.787006798750876E+04 eV
  | Total energy corrected        :         -0.787006958105037E+04 eV  <-- do not rely on this value for anything but (periodic) metals
  | Electronic free energy        :         -0.787007117459198E+04 eV

  ------------------------------------ 
  Start decomposition of the XC Energy 
  ------------------------------------ 
  X and C from original XC functional choice 
  Hartree-Fock Energy :          0.000000000 Ha              0.000000000 eV
  X Energy            :        -18.539163303 Ha           -504.476300947 eV
  C Energy            :         -1.050404985 Ha            -28.582973925 eV
  Total XC Energy     :        -19.589568288 Ha           -533.059274872 eV
  ------------------------------------ 
  LDA X and C from self-consistent density 
  X Energy LDA        :        -18.539163303 Ha           -504.476300947 eV
  C Energy LDA        :         -1.050404985 Ha            -28.582973925 eV
  ------------------------------------ 
  End decomposition of the XC Energy 
  ------------------------------------ 

------------------------------------------------------------

------------------------------------------------------------------------------
  Final output of selected total energy values:

  The following output summarizes some interesting total energy values
  at the end of a run (AFTER all relaxation, molecular dynamics, etc.).

  | Total energy of the DFT / Hartree-Fock s.c.f. calculation      :          -7870.067987509 eV
  | Final zero-broadening corrected energy (caution - metals only) :          -7870.069581050 eV
  | For reference only, the value of 1 Hartree used in FHI-aims is :             27.211384500 eV

  Before relying on these values, please be sure to understand exactly which
  total energy value is referred to by a given number. Different objects may
  all carry the same name 'total energy'. Definitions:

  Total energy of the DFT / Hartree-Fock s.c.f. calculation:
  | Note that this energy does not include ANY quantities calculated after the
  | s.c.f. cycle, in particular not ANY RPA, MP2, etc. many-body perturbation terms.

  Final zero-broadening corrected energy:
  | For metallic systems only, a broadening of the occupation numbers at the Fermi
  | level can be extrapolated back to zero broadening by an electron-gas inspired
  | formula. For all systems that are not real metals, this value can be
  | meaningless and should be avoided.

------------------------------------------------------------------------------
  Methods described in the following list of references were used in this FHI-aims run.
  If you publish the results, please make sure to cite these reference if they apply.
  FHI-aims is an academic code, and for our developers (often, Ph.D. students
  and postdocs), scientific credit in the community is essential.
  Thank you for helping us!

  For any use of FHI-aims, please cite:

    Volker Blum, Ralf Gehrke, Felix Hanke, Paula Havu, Ville Havu,
    Xinguo Ren, Karsten Reuter, and Matthias Scheffler
    'Ab initio molecular simulations with numeric atom-centered orbitals'
    Computer Physics Communications 180, 2175-2196 (2009)
    http://dx.doi.org/10.1016/j.cpc.2009.06.022


  For the real-space grid partitioning and parallelization used in this calculation, please cite:

    Ville Havu, Volker Blum, Paula Havu, and Matthias Scheffler,
    'Efficient O(N) integration for all-electron electronic structure calculation'
    'using numerically tabulated basis functions'
    Journal of Computational Physics 228, 8367-8379 (2009).
    http://dx.doi.org/10.1016/j.jcp.2009.08.008

  Of course, there are many other important community references, e.g., those cited in the
  above references. Our list is limited to references that describe implementations in the
  FHI-aims code. The reason is purely practical (length of this list) - please credit others as well.

------------------------------------------------------------
          Leaving FHI-aims.
          Date     :  20190514, Time     :  104957.438

          Computational steps:
          | Number of self-consistency cycles          :           11
          | Number of SCF (re)initializations          :            1

          Detailed time accounting                     :  max(cpu_time)    wall_clock(cpu1)
          | Total time                                 :        5.133 s           5.143 s
          | Preparation time                           :        0.115 s           0.115 s
          | Boundary condition initalization           :        0.037 s           0.037 s
          | Grid partitioning                          :        0.009 s           0.009 s
          | Preloading free-atom quantities on grid    :        0.001 s           0.001 s
          | Free-atom superposition energy             :        0.008 s           0.008 s
          | Total time for integrations                :        0.751 s           0.752 s
          | Total time for solution of K.-S. equations :        1.435 s           1.437 s
          | Total time for density update              :        1.109 s           1.110 s
          | Total time for mixing & preconditioning    :        0.150 s           0.151 s
          | Total time for Hartree multipole update    :        0.007 s           0.007 s
          | Total time for Hartree multipole sum       :        1.481 s           1.481 s
          | Total time for total energy evaluation     :        0.003 s           0.005 s
          | Total time for scaled ZORA corrections     :        0.000 s           0.000 s

 This is a stub MPI_ALLREDUCE call.
 You should not be here. Check your
 setting on the use_mpi variable, or
 link against true MPI-libraries.
