------------------------------------------------------------
          Invoking FHI-aims ...
          Version 171221_1
          Compiled on 2019/05/06 at 14:26:40 on host ffph0xx.

          When using FHI-aims, please cite the following reference:

          Volker Blum, Ralf Gehrke, Felix Hanke, Paula Havu,
          Ville Havu, Xinguo Ren, Karsten Reuter, and Matthias Scheffler,
          'Ab Initio Molecular Simulations with Numeric Atom-Centered Orbitals',
          Computer Physics Communications 180, 2175-2196 (2009)

          For any questions about FHI-aims, please visit the aimsclub website
          with its forums and wiki. Contributions to both the forums and the
          wiki are warmly encouraged - they are for you, and everyone is welcome there.

------------------------------------------------------------



  Date     :  20190514, Time     :  123524.356
  Time zero on CPU 1             :   0.885000000000000E-03  s.
  Internal wall clock time zero  :           327069324.356  s.

  FHI-aims created a unique identifier for this run for later identification
  aims_uuid : 55A05141-3BF9-47CC-ACB6-807C2C6A4B4E


  Performing system and environment tests:
  *** Environment variable OMP_NUM_THREADS is not set
  *** For performance reasons you might want to set it to 1
  | Stacksize not measured: no C compiler

  Obtaining array dimensions for all initial allocations:
  
  -----------------------------------------------------------------------
  Parsing control.in (first pass over file, find array dimensions only).
  The contents of control.in will be repeated verbatim below
  unless switched off by setting 'verbatim_writeout .false.' .
  in the first line of control.in .
  -----------------------------------------------------------------------
  
  #--- method ---
  xc pw-lda
  spin none
  relativistic atomic_zora scalar
  #---
  
  #--- k-grid settings ---
  k_grid 12 12 12
  #---
  
  
  
  
  
  
  
  
  
  
  
  #-------------------------------------------------------------------------------
  #--- Species defaults for Si
  #-------------------------------------------------------------------------------
  
  ################################################################################
  #
  #  FHI-aims code project
  #  VB, Fritz-Haber Institut, 2009
  #
  #  Suggested "light" defaults for Si atom (to be pasted into control.in file)
  #  Be sure to double-check any results obtained with these settings for post-processing,
  #  e.g., with the "tight" defaults and larger basis sets.
  #
  ################################################################################
    species        Si
  #     global species definitions
      nucleus             14
      mass                28.0855
  #
      l_hartree           4
  #
      cut_pot             3.5          1.5  1.0
      basis_dep_cutoff    1e-4
  #
      radial_base         42 5.0
      radial_multiplier   1
      angular_grids       specified
        division   0.5866   50
        division   0.9616  110
        division   1.2249  194
        division   1.3795  302
  #      division   1.4810  434
  #      division   1.5529  590
  #      division   1.6284  770
  #      division   1.7077  974
  #      division   2.4068 1202
  #      outer_grid   974
        outer_grid 302
  ################################################################################
  #
  #  Definition of "minimal" basis
  #
  ################################################################################
  #     valence basis states
      valence      3  s   2.
      valence      3  p   2.
  #     ion occupancy
      ion_occ      3  s   1.
      ion_occ      3  p   1.
  ################################################################################
  #
  #  Suggested additional basis functions. For production calculations,
  #  uncomment them one after another (the most important basis functions are
  #  listed first).
  #
  #  Constructed for dimers: 1.75 A, 2.0 A, 2.25 A, 2.75 A, 3.75 A
  #
  ################################################################################
  #  "First tier" - improvements: -571.96 meV to -37.03 meV
       hydro 3 d 4.2
       hydro 2 p 1.4
  #     hydro 4 f 6.2
       ionic 3 s auto
  #  "Second tier" - improvements: -16.76 meV to -3.03 meV
  #     hydro 3 d 9
  #     hydro 5 g 9.4
  #     hydro 4 p 4
  #     hydro 1 s 0.65
  #  "Third tier" - improvements: -3.89 meV to -0.60 meV
  #     ionic 3 d auto
  #     hydro 3 s 2.6
  #     hydro 4 f 8.4
  #     hydro 3 d 3.4
  #     hydro 3 p 7.8
  #  "Fourth tier" - improvements: -0.33 meV to -0.11 meV
  #     hydro 2 p 1.6
  #     hydro 5 g 10.8
  #     hydro 5 f 11.2
  #     hydro 3 d 1
  #     hydro 4 s 4.5
  #  Further basis functions that fell out of the optimization - noise
  #  level... < -0.08 meV
  #     hydro 4 d 6.6
  #     hydro 5 g 16.4
  #     hydro 4 d 9
  
  -----------------------------------------------------------------------
  Completed first pass over input file control.in .
  -----------------------------------------------------------------------
  
  
  -----------------------------------------------------------------------
  Parsing geometry.in (first pass over file, find array dimensions only).
  The contents of geometry.in will be repeated verbatim below
  unless switched off by setting 'verbatim_writeout .false.' .
  in the first line of geometry.in .
  -----------------------------------------------------------------------
  
  lattice_vector  -2.050000   2.050000   2.050000
  lattice_vector   2.050000  -2.050000   2.050000
  lattice_vector   2.050000   2.050000  -2.050000
  atom_frac   0.000000   0.000000   0.000000 Si
  
  -----------------------------------------------------------------------
  Completed first pass over input file geometry.in .
  -----------------------------------------------------------------------
  

  Basic array size parameters:
  | Number of species                 :        1
  | Number of atoms                   :        1
  | Number of lattice vectors         :        3
  | Max. basis fn. angular momentum   :        2
  | Max. atomic/ionic basis occupied n:        3
  | Max. number of basis fn. types    :        3
  | Max. radial fns per species/type  :        5
  | Max. logarithmic grid size        :     1346
  | Max. radial integration grid size :       42
  | Max. angular integration grid size:      302
  | Max. angular grid division number :        8
  | Radial grid for Hartree potential :     1346
  | Number of spin channels           :        1

------------------------------------------------------------
          Reading file control.in.
------------------------------------------------------------
  XC: Using Perdew-Wang parametrisation of Ceperley-Alder LDA.
  Spin treatment: No spin polarisation.
  Scalar relativistic treatment of kinetic energy: on-site free-atom approximation to ZORA.
  Found k-point grid:        12        12        12

  Reading configuration options for species Si                  .
  | Found nuclear charge :  14.0000
  | Found atomic mass :    28.085500000000000      amu
  | Found l_max for Hartree potential  :   4
  | Found cutoff potl. onset [A], width [A], scale factor :    3.50000    1.50000    1.00000
  | Threshold for basis-dependent cutoff potential is   0.100000E-03
  | Found data for basic radial integration grid :    42 points, outermost radius =    5.000 A
  | Found multiplier for basic radial grid :   1
  | Found angular grid specification: user-specified.
  | Specified grid contains     5 separate shells.
  | Check grid settings after all constraints further below.
  | Found free-atom valence shell :  3 s   2.000
  | Found free-atom valence shell :  3 p   2.000
  | Found free-ion valence shell :  3 s   1.000
  | Found free-ion valence shell :  3 p   1.000
  | Found hydrogenic basis function :  3 d   4.200
  | Found hydrogenic basis function :  2 p   1.400
  | Found ionic basis function :  3 s , default cutoff radius.
  Species Si                  : Missing cutoff potential type.
  Defaulting to exp(1/x)/(1-x)^2 type cutoff potential.
  Species Si: No 'logarithmic' tag. Using default grid for free atom:
  | Default logarithmic grid data [bohr] : 0.1000E-03 0.1000E+03 0.1012E+01
  | Will include ionic basis functions of  2.0-fold positive Si                   ion.
  Species Si: On-site basis accuracy parameter (for Gram-Schmidt orthonormalisation) not specified.
  Using default value basis_acc =  0.1000000E-03.
  Species Si                  : Using default innermost maximum threshold i_radial=  2 for radial functions.
  Species Si                  : Default cutoff onset for free atom density etc. : 0.35000000E+01 AA.
  Species Si                  : Basic radial grid will be enhanced according to radial_multiplier =   1, to contain    42 grid points.

  Finished reading input file 'control.in'. Consistency checks are next.

  MPI_IN_PLACE appears to work with this MPI implementation.
  | Keeping use_mpi_in_place .true. (see manual).
  Target number of points in a grid batch is not set. Defaulting to  100
  Method for grid partitioning is not set. Defaulting to 'maxmin' partitioning.
  Batch size limit is not set. Defaulting to    200
  By default, will store active basis functions for each batch.
  If in need of memory, prune_basis_once .false. can be used to disable this option.
  communication_type for Hartree potential was not specified.
  Defaulting to calc_hartree .
 * Attention: 
 * You may want to set distributed_spline_storage to .true. in order to save memory.
 * This doesn't harm performance and is perfectly ok unless:
 * - you get error messages in postprocessing (about missing atoms in get_rho_multipole_spl)
 * - you need full spline storage in hirshfeld_analysis
  Defaulting to Pulay charge density mixer.
  Pulay mixer: Number of relevant iterations not set.
  Defaulting to    8 iterations.
  Pulay mixer: Number of initial linear mixing iterations not set.
  Defaulting to    0 iterations.
  Work space size for distributed Hartree potential not set.
  Defaulting to   0.200000E+03 MB.
  Mixing parameter for charge density mixing has not been set.
  Using default: charge_mix_param =     0.0500.
  The mixing parameter will be adjusted in iteration number     2 of the first full s.c.f. cycle only.
  Algorithm-dependent basis array size parameters:
  | n_max_pulay                         :        8
 * Notice: The s.c.f. convergence criterion sc_accuracy_rho was not provided.
 * We used to stop in this case, and ask the user to provide reasonable
 * scf convergence criteria. However, this led some users to employ criteria
 * that led to extremely long run times, e.g., for simple relaxation.
 * We now preset a default value for sc_accuracy_rho if it is not set.
 * You may still wish to check if this setting is too tight or too loose for your needs.
 * Based on n_atoms, FHI-aims chose sc_accuracy_rho =  0.100000E-05 .
  Maximum number of self-consistency iterations not provided.
  Presetting  1000 iterations.
  Presetting      1001 iterations before the initial mixing cycle
  is restarted anyway using the sc_init_iter criterion / keyword.
  Presetting a factor      1.000 between actual scf density residual
  and density convergence criterion sc_accuracy_rho below which sc_init_iter
  takes no effect.
 * No s.c.f. convergence criteria (sc_accuracy_*) were provided in control.in.
 * The run will proceed with a reasonable default guess, but please check whether.
 * the s.c.f. cycles seem to take too much or too little time.
  Calculation of forces was not defined in control.in. No forces will be calculated.
  Geometry relaxation not requested: no relaxation will be performed.
  No accuracy limit for integral partition fn. given. Defaulting to  0.1000E-14.
  No threshold value for u(r) in integrations given. Defaulting to  0.1000E-05.
  No occupation type (smearing scheme) given. Defaulting to Gaussian broadening, width =  0.1000E-01 eV.
  The width will be adjusted in iteration number     2 of the first full s.c.f. cycle only.
  S.C.F. convergence parameters will be adjusted in iteration number     2 of the first full s.c.f. cycle only.
  No accuracy for occupation numbers given. Defaulting to  0.1000E-12.
  No threshold value for occupation numbers given. Defaulting to  0.0000E+00.
  No accuracy for fermi level given. Defaulting to  0.1000E-19.
  Maximum # of iterations to find E_F not set. Defaulting to  200.
  Preferred method for the eigenvalue solver ('KS_method') not specified in 'control.in'.
  Defaulting to serial version, 'lapack_fast'.
  Will not use alltoall communication since running on < 1024 CPUs.
  Threshold for basis singularities not set.
  Default threshold for basis singularities:  0.1000E-04
  partition_type (choice of integration weights) for integrals was not specified.
  | Using a version of the partition function of Stratmann and coworkers ('stratmann_smoother').
  | At each grid point, the set of atoms used to build the partition table is smoothly restricted to
  | only those atoms whose free-atom density would be non-zero at that grid point.
  Partitioning for Hartree potential was not defined. Using partition_type for integrals.
  | Adjusted default value of keyword multip_moments_threshold to:       0.10000000E-11
  | This value may affect high angular momentum components of the Hartree potential in periodic systems.
  Angular momentum expansion for Kerker preconditioner not set explicitly.
  | Using default value of   0
  No explicit requirement for turning off preconditioner.
  | By default, it will be turned off when the charge convergence reaches
  | sc_accuracy_rho  =   0.100000E-05
  No special mixing parameter while Kerker preconditioner is on.
  Using default: charge_mix_param =     0.0500.
  No q(lm)/r^(l+1) cutoff set for long-range Hartree potential.
  | Using default value of  0.100000E-09 .
  | Verify using the multipole_threshold keyword.
  Defaulting to new monopole extrapolation.
  Density update method: automatic selection selected.
  Using density matrix based charge density update.
  Using density matrix based charge density update.
  Using packed matrix style: index .
  Defaulting to use time-reversal symmetry for k-point grid.
------------------------------------------------------------


------------------------------------------------------------
          Reading geometry description geometry.in.
------------------------------------------------------------
  Input structure read successfully.
  The structure contains        1 atoms,  and a total of         14.000 electrons.

  Input geometry:
  | Unit cell:
  |       -2.05000000        2.05000000        2.05000000
  |        2.05000000       -2.05000000        2.05000000
  |        2.05000000        2.05000000       -2.05000000
  | Atomic structure:
  |       Atom                x [A]            y [A]            z [A]
  |    1: Species Si            0.00000000        0.00000000        0.00000000

  Lattice parameters for 3D lattice (in Angstroms) :     3.550704    3.550704    3.550704
  Angle(s) between unit vectors (in degrees)      :   109.471221  109.471221  109.471221

  |

  | The smallest distance between any two atoms is         3.55070416 AA.
  |
  | The first atom of this pair is atom number                      1 .
  | The second atom of this pair is atom number                     1 .
  | Wigner-Seitz cell of the first atom image           0     0     1 .
  | (The Wigner-Seitz cell of the second atom is 0 0 0  by definition.)

  Quantities derived from the lattice vectors:
  | Reciprocal lattice vector 1: -0.000000  1.532484  1.532484
  | Reciprocal lattice vector 2:  1.532484 -0.000000  1.532484
  | Reciprocal lattice vector 3:  1.532484  1.532484  0.000000
  | Unit cell volume                               :   0.344605E+02  A^3

  Range separation radius for Ewald summation (hartree_convergence_parameter):      4.72609331 bohr.

  Fractional coordinates:
                         L1                L2                L3
       atom_frac         0.00000000        0.00000000        0.00000000  Si

  Number of empty states per atom not set in control.in - providing a guess from actual geometry.
  | Total number of empty states used during s.c.f. cycle:        3
  If you use a very high smearing, use empty_states (per atom!) in control.in to increase this value.

  Structure-dependent array size parameters: 
  | Maximum number of distinct radial functions  :        8
  | Maximum number of basis functions            :       18
  | Number of Kohn-Sham states (occupied + empty):       10
------------------------------------------------------------

------------------------------------------------------------
          Preparing all fixed parts of the calculation.
------------------------------------------------------------
  Determining machine precision:
     2.2250738585072014E-308
  Setting up grids for atomic and cluster calculations.

  Creating wave function, potential, and density for free atoms.

  Species: Si

  List of occupied orbitals and eigenvalues:
    n    l              occ      energy [Ha]    energy [eV]
    1    0           2.0000       -65.491668     -1782.1190
    2    0           2.0000        -5.087967      -138.4506
    3    0           2.0000        -0.391471       -10.6525
    2    1           6.0000        -3.502246       -95.3010
    3    1           2.0000        -0.143943        -3.9169

  Creating fixed part of basis set: Ionic, confined, hydrogenic.

  Si                   ion:

  List of free ionic orbitals and eigenvalues:
    n    l      energy [Ha]    energy [eV]
    1    0       -66.364436     -1805.8682
    2    0        -5.935799      -161.5213
    3    0        -1.078166       -29.3384
    2    1        -4.351123      -118.4001
    3    1        -0.781733       -21.2720


  List of ionic basis orbitals and eigenvalues:
    n    l      energy [Ha]    energy [eV]    outer radius [A]
    3    0        -1.078146       -29.3378       4.214062


  Si                   hydrogenic:

  List of hydrogenic basis orbitals: 
    n    l      effective z      eigenvalue [eV]  inner max. [A]     outer max. [A]     outer radius [A]   
    3    2         4.200000       -26.6624           1.139231           1.139231           4.534782
    2    1         1.400000        -6.4613           1.472672           1.472672           4.590560


  Adding cutoff potential to free-atom effective potential.
  Creating atomic-like basis functions for current effective potential.

  Species Si                  :

  List of atomic basis orbitals and eigenvalues:
    n    l      energy [Ha]    energy [eV]    outer radius [A]
    1    0       -65.491668     -1782.1190       0.789468
    2    0        -5.087967      -138.4506       2.815114
    3    0        -0.391471       -10.6525       4.534782
    2    1        -3.502246       -95.3010       3.259919
    3    1        -0.143943        -3.9169       4.590560

  Assembling full basis from fixed parts.
  | Species Si :   atomic orbital   1 s accepted.
  | Species Si :   atomic orbital   2 s accepted.
  | Species Si :    ionic orbital   3 s accepted.
  | Species Si :   atomic orbital   3 s accepted.
  | Species Si :   atomic orbital   2 p accepted.
  | Species Si :   atomic orbital   3 p accepted.
  | Species Si :    hydro orbital   2 p accepted.
  | Species Si :    hydro orbital   3 d accepted.

  Basis size parameters after reduction:
  | Total number of radial functions:        8
  | Total number of basis functions :       18

  Per-task memory consumption for arrays in subroutine allocate_ext:
  |           2.757468MB.
  Testing on-site integration grid accuracy.
  |  Species  Function  <phi|h_atom|phi> (log., in eV)  <phi|h_atom|phi> (rad., in eV)
           1        1              -1782.1189727076              -1782.1182429251
           1        2               -138.4506350693               -138.4506310079
           1        3                -10.3030408815                -10.3029120678
           1        4                  5.0238999146                  4.9457540310 ***
           1        5                -95.3009689499                -95.3009689315
           1        6                 -3.9266496564                 -3.9420918374
           1        7                  6.3453628447                  6.1632372158 ***
           1        8                  6.2883050744                  6.2861881409
 * Note: Onsite integrals marked "***" above are less accurate than
 * onsite_accuracy_threshold =    0.03000 eV. Usually, this is harmless.
 * When in doubt, tighten the "radial" and/or "radial_multiplier" flags to check.

  Preparing densities etc. for the partition functions (integrals / Hartree potential).

  Preparations completed.
  max(cpu_time)          :      0.103 s.
  Wall clock time (cpu1) :      0.103 s.
------------------------------------------------------------

------------------------------------------------------------
          Begin self-consistency loop: Initialization.

          Date     :  20190514, Time     :  123524.461
------------------------------------------------------------

  Initializing index lists of integration centers etc. from given atomic structure:
  Mapping all atomic coordinates to central unit cell.

  Initializing the k-points
          Using symmetry for reducing the k-points
  | k-points reduced from:     1728 to      868
  | Number of k-points                             :       868
  The eigenvectors in the calculations are COMPLEX.
  | K-points in task   0:       868
  | Number of basis functions in the Hamiltonian integrals :       766
  | Number of basis functions in a single unit cell        :        18
  | Number of centers in hartree potential         :       537
  | Number of centers in hartree multipole         :       169
  | Number of centers in electron density summation:       113
  | Number of centers in basis integrals           :       113
  | Number of centers in integrals                 :        57
  | Number of centers in hamiltonian               :       113
  | Consuming       1546 KiB for k_phase.
  | Number of super-cells (origin) [n_cells]                     :        3375
  | Number of super-cells (after PM_index) [n_cells]             :         114
  | Number of super-cells in hamiltonian [n_cells_in_hamiltonian]:         114
  | Size of matrix packed + index [n_hamiltonian_matrix_size] :       13896
  Partitioning the integration grid into batches with maxmin method.
  | Maximal weight for a single point:     1.000
  | Minimal weight for a single point:     0.742
  | Number of batches:       64
  | Maximal batch size:      90
  | Minimal batch size:      85
  | Average batch size:      87.562
  | Standard deviation of batch sizes:       1.499
  Initializing partition tables, free-atom densities, potentials, etc. across the integration grid (initialize_grid_storage).
  | initialize_grid_storage: Actual outermost partition radius vs. multipole_radius_free
  | (-- VB: in principle, multipole_radius_free should be larger, hence this output)
  | Species        1: Confinement radius =              4.999999999999999 AA, multipole_radius_free =              5.000694715736543 AA.
  | Species        1: outer_partition_radius set to              5.000694715736543 AA .
  | Original list of interatomic distances with         113 x        113 entries is created.
  | Net number of integration points:     5604
  | of which are non-zero points    :     5088
  | Numerical average free-atom electrostatic potential    :     -7.63386229 eV
  Renormalizing the initial density to the exact electron count on the 3D integration grid.
  | Initial density: Formal number of electrons (from input files) :      14.0000000000
  | Integrated number of electrons on 3D grid     :      14.0000289428
  | Charge integration error                      :       0.0000289428
  | Normalization factor for density and gradient :       0.9999979327
  Obtaining max. number of non-zero basis functions in each batch (get_n_compute_maxes).
  | Maximal number of non-zero basis functions:      305 in task     0
  Allocating        2.500 MB for KS_eigenvector_complex
  Integrating Hamiltonian matrix: batch-based integration.
  Time summed over all CPUs for integration: real work        0.122 s, elapsed        0.122 s
  Integrating overlap matrix.
  Time summed over all CPUs for integration: real work        0.086 s, elapsed        0.086 s
  Decreasing sparse matrix size:
   Tolerance:   9.9999998245167004E-014
   Hamiltonian matrix
  | Array has     9847 nonzero elements out of    13896 elements
  | Sparsity factor is 0.291
   Overlap matrix
  | Array has     8985 nonzero elements out of    13896 elements
  | Sparsity factor is 0.353
  New size of hamiltonian matrix:        9986

  Updating Kohn-Sham eigenvalues, eigenvectors, occupation numbers, and Fermi level.
  Solving generalized eigenproblem
  Transforming overlap matrix and checking for singularities.
  Overlap matrix is nonsingular at first k-point:
  | Lowest eigenvalue:  0.619219E-02

  Obtaining occupation numbers and chemical potential using ELSI.
  | Chemical potential (Fermi level):    -4.82473324eV
  Writing Kohn-Sham eigenvalues.
  K-point:       1 at    0.000000    0.000000    0.000000 (in units of recip. lattice)

  State    Occupation    Eigenvalue [Ha]    Eigenvalue [eV]
      1       2.00000         -65.491807        -1782.12274
      2       2.00000          -5.088302         -138.45973
      3       2.00000          -3.502576          -95.30995
      4       2.00000          -3.502576          -95.30995
      5       2.00000          -3.502576          -95.30995
      6       2.00000          -0.492783          -13.40932
      7       0.00000          -0.023741           -0.64601
      8       0.00000          -0.023741           -0.64601
      9       0.00000          -0.023741           -0.64601
     10       0.00000           0.182598            4.96876

  What follows are estimated values for band gap, HOMO, LUMO, etc.
  | They are estimated on a discrete k-point grid and not necessarily exact.
  | For converged numbers, create a DOS and/or band structure plot on a denser k-grid.

  Highest occupied state (VBM) at     -4.83466216 eV (relative to internal zero)
  | Occupation number:      1.83972933
  | K-point:     383 at    0.250000    0.833333    0.250000 (in units of recip. lattice)

  Lowest unoccupied state (CBM) at    -4.81732955 eV (relative to internal zero)
  | Occupation number:      0.29508093
  | K-point:     713 at    0.583333    0.666667    0.250000 (in units of recip. lattice)

  ESTIMATED overall HOMO-LUMO gap:      0.01733262 eV between HOMO at k-point 383 and LUMO at k-point 713
  | This appears to be an indirect band gap.
  | Smallest direct gap :      0.40800903 eV for k_point 566 at    0.583333    0.666667    0.250000 (in units of recip. lattice)
  However, this system has fractional occupation numbers. Since we use a finite k-point grid,
  this material is metallic within the approximate finite broadening function (occupation_type)
  applied to determine the occupation numbers.
  Calculating total energy contributions from superposition of free atom densities.

  Total energy components:
  | Sum of eigenvalues            :        -163.43352470 Ha       -4447.25248089 eV
  | XC energy correction          :         -19.68239988 Ha        -535.58535098 eV
  | XC potential correction       :          26.00495461 Ha         707.63081877 eV
  | Free-atom electrostatic energy:        -132.17610589 Ha       -3596.69483918 eV
  | Hartree energy correction     :          -0.00000000 Ha          -0.00000000 eV
  | Entropy correction            :          -0.00000227 Ha          -0.00006174 eV
  | ---------------------------
  | Total energy                  :        -289.28707587 Ha       -7871.90185228 eV
  | Total energy, T -> 0          :        -289.28707814 Ha       -7871.90191402 eV  <-- do not rely on this value for anything but (periodic) metals
  | Electronic free energy        :        -289.28708040 Ha       -7871.90197576 eV

  Derived energy quantities:
  | Kinetic energy                :         289.56593995 Ha        7879.49013007 eV
  | Electrostatic energy          :        -559.17061594 Ha      -15215.80663137 eV
  | Energy correction for multipole
  | error in Hartree potential    :           0.00000000 Ha           0.00000000 eV
  | Sum of eigenvalues per atom                           :       -4447.25248089 eV
  | Total energy (T->0) per atom                          :       -7871.90191402 eV  <-- do not rely on this value for anything but (periodic) metals
  | Electronic free energy per atom                       :       -7871.90197576 eV
  Initialize hartree_potential_storage
  Max. number of atoms included in rho_multipole:            1

  End scf initialization - timings             :  max(cpu_time)    wall_clock(cpu1)
  | Time for scf. initialization               :        0.539 s           0.540 s
  | Boundary condition initialization          :        0.034 s           0.034 s
  | Integration                                :        0.208 s           0.208 s
  | Solution of K.-S. eqns.                    :        0.241 s           0.242 s
  | Grid partitioning                          :        0.010 s           0.010 s
  | Preloading free-atom quantities on grid    :        0.001 s           0.001 s
  | Free-atom superposition energy             :        0.009 s           0.010 s
  | Total energy evaluation                    :        0.000 s           0.000 s

  Partial memory accounting:
  | Current value for overall tracked memory usage on task 0  :           2.700 MB
  | Peak value for overall tracked memory usage on task 0     :           4.181 MB after allocating wave
  | Largest tracked array allocation on task 0 so far         :           2.500 MB  when allocating +KS_eigenvector_complex
  Note:  These values currently only include a subset of arrays which are explicitly tracked.
  The "true" memory usage will be greater.
------------------------------------------------------------

------------------------------------------------------------
          Begin self-consistency iteration #    1

  Date     :  20190514, Time     :  123525.001
------------------------------------------------------------
  Evaluating new KS density using the density matrix
  Evaluating density matrix
  Time summed over all CPUs for getting density from density matrix: real work        0.199 s, elapsed        0.199 s
  Integration grid: deviation in total charge (<rho> - N_e) =  -4.547474E-13
  Pulay mixing of updated and previous charge densities.

  Evaluating partitioned Hartree potential by multipole expansion.
  | Analytical far-field extrapolation by fixed multipoles:
  | Hartree multipole sum: apparent total charge =  -0.909968E-04
  Summing up the Hartree potential.
  | Estimated reciprocal-space cutoff momentum G_max:         1.95663532 bohr^-1 .
  | Reciprocal lattice points for long-range Hartree potential:      18
  Time summed over all CPUs for potential: real work        0.133 s, elapsed        0.133 s
  | RMS charge density error from multipole expansion :   0.555534E-04
  | Average real-space part of the electrostatic potential :     -0.01108753 eV

  Integrating Hamiltonian matrix: batch-based integration.
  Time summed over all CPUs for integration: real work        0.133 s, elapsed        0.133 s

  Updating Kohn-Sham eigenvalues, eigenvectors, occupation numbers, and Fermi level.
  Solving generalized eigenproblem

  Obtaining occupation numbers and chemical potential using ELSI.
  | Chemical potential (Fermi level):    -4.83212360eV
  Writing Kohn-Sham eigenvalues.
  K-point:       1 at    0.000000    0.000000    0.000000 (in units of recip. lattice)

  State    Occupation    Eigenvalue [Ha]    Eigenvalue [eV]
      1       2.00000         -65.494067        -1782.18425
      2       2.00000          -5.089862         -138.50220
      3       2.00000          -3.504187          -95.35378
      4       2.00000          -3.504187          -95.35378
      5       2.00000          -3.504187          -95.35378
      6       2.00000          -0.493084          -13.41750
      7       0.00000          -0.024172           -0.65775
      8       0.00000          -0.024172           -0.65775
      9       0.00000          -0.024172           -0.65775
     10       0.00000           0.182189            4.95763

  What follows are estimated values for band gap, HOMO, LUMO, etc.
  | They are estimated on a discrete k-point grid and not necessarily exact.
  | For converged numbers, create a DOS and/or band structure plot on a denser k-grid.

  Highest occupied state (VBM) at     -4.84299963 eV (relative to internal zero)
  | Occupation number:      1.87597651
  | K-point:     806 at    0.833333    0.250000    0.250000 (in units of recip. lattice)

  Lowest unoccupied state (CBM) at    -4.82446140 eV (relative to internal zero)
  | Occupation number:      0.27854272
  | K-point:     484 at    0.333333    0.750000    0.500000 (in units of recip. lattice)

  ESTIMATED overall HOMO-LUMO gap:      0.01853823 eV between HOMO at k-point 806 and LUMO at k-point 484
  | This appears to be an indirect band gap.
  | Smallest direct gap :      0.40748152 eV for k_point 672 at    0.333333    0.750000    0.500000 (in units of recip. lattice)
  However, this system has fractional occupation numbers. Since we use a finite k-point grid,
  this material is metallic within the approximate finite broadening function (occupation_type)
  applied to determine the occupation numbers.

  Total energy components:
  | Sum of eigenvalues            :        -163.45207500 Ha       -4447.75726023 eV
  | XC energy correction          :         -19.68082333 Ha        -535.54245093 eV
  | XC potential correction       :          26.00287280 Ha         707.57416986 eV
  | Free-atom electrostatic energy:        -132.17610589 Ha       -3596.69483918 eV
  | Hartree energy correction     :           0.01914199 Ha           0.52087995 eV
  | Entropy correction            :          -0.00000212 Ha          -0.00005777 eV
  | ---------------------------
  | Total energy                  :        -289.28698944 Ha       -7871.89950053 eV
  | Total energy, T -> 0          :        -289.28699156 Ha       -7871.89955830 eV  <-- do not rely on this value for anything but (periodic) metals
  | Electronic free energy        :        -289.28699369 Ha       -7871.89961607 eV

  Derived energy quantities:
  | Kinetic energy                :         289.55021902 Ha        7879.06234173 eV
  | Electrostatic energy          :        -559.15638513 Ha      -15215.41939133 eV
  | Energy correction for multipole
  | error in Hartree potential    :           0.00000684 Ha           0.00018614 eV
  | Sum of eigenvalues per atom                           :       -4447.75726023 eV
  | Total energy (T->0) per atom                          :       -7871.89955830 eV  <-- do not rely on this value for anything but (periodic) metals
  | Electronic free energy per atom                       :       -7871.89961607 eV

  Self-consistency convergence accuracy:
  | Change of charge density      :  0.2760E-01
  | Change of sum of eigenvalues  : -0.5048E+00 eV
  | Change of total energy        :  0.2352E-02 eV

  End self-consistency iteration #     1       :  max(cpu_time)    wall_clock(cpu1)
  | Time for this iteration                    :        0.626 s           0.627 s
  | Charge density update                      :        0.216 s           0.217 s
  | Density mixing & preconditioning           :        0.019 s           0.020 s
  | Hartree multipole update                   :        0.000 s           0.000 s
  | Hartree multipole summation                :        0.135 s           0.135 s
  | Integration                                :        0.132 s           0.133 s
  | Solution of K.-S. eqns.                    :        0.121 s           0.122 s
  | Total energy evaluation                    :        0.000 s           0.000 s

  Partial memory accounting:
  | Current value for overall tracked memory usage on task 0  :           2.700 MB
  | Peak value for overall tracked memory usage on task 0     :           4.181 MB after allocating wave
  | Largest tracked array allocation on task 0 so far         :           2.500 MB  when allocating +KS_eigenvector_complex
  Note:  These values currently only include a subset of arrays which are explicitly tracked.
  The "true" memory usage will be greater.
------------------------------------------------------------

------------------------------------------------------------
          Begin self-consistency iteration #    2

  Date     :  20190514, Time     :  123525.628
------------------------------------------------------------
  Evaluating new KS density using the density matrix
  Evaluating density matrix
  Time summed over all CPUs for getting density from density matrix: real work        0.236 s, elapsed        0.236 s
  Integration grid: deviation in total charge (<rho> - N_e) =  -3.748113E-13
  Pulay mixing of updated and previous charge densities.

  Evaluating partitioned Hartree potential by multipole expansion.
  | Analytical far-field extrapolation by fixed multipoles:
  | Hartree multipole sum: apparent total charge =  -0.229919E-02
  Summing up the Hartree potential.
  Time summed over all CPUs for potential: real work        0.157 s, elapsed        0.157 s
  | RMS charge density error from multipole expansion :   0.107526E-02
  | Average real-space part of the electrostatic potential :     -0.20981099 eV

  Integrating Hamiltonian matrix: batch-based integration.
  Time summed over all CPUs for integration: real work        0.128 s, elapsed        0.128 s

  Updating Kohn-Sham eigenvalues, eigenvectors, occupation numbers, and Fermi level.
  Solving generalized eigenproblem

  Obtaining occupation numbers and chemical potential using ELSI.
  | Chemical potential (Fermi level):    -4.96074343eV
  What follows are estimated values for band gap, HOMO, LUMO, etc.
  | They are estimated on a discrete k-point grid and not necessarily exact.
  | For converged numbers, create a DOS and/or band structure plot on a denser k-grid.

  Highest occupied state (VBM) at     -4.97196396 eV (relative to internal zero)
  | Occupation number:      1.88744724
  | K-point:     554 at    0.416667    0.416667    0.250000 (in units of recip. lattice)

  Lowest unoccupied state (CBM) at    -4.95285209 eV (relative to internal zero)
  | Occupation number:      0.26442090
  | K-point:     591 at    0.416667    0.750000    0.333333 (in units of recip. lattice)

  ESTIMATED overall HOMO-LUMO gap:      0.01911186 eV between HOMO at k-point 554 and LUMO at k-point 591
  | This appears to be an indirect band gap.
  | Smallest direct gap :      0.39789960 eV for k_point 565 at    0.416667    0.750000    0.333333 (in units of recip. lattice)
  However, this system has fractional occupation numbers. Since we use a finite k-point grid,
  this material is metallic within the approximate finite broadening function (occupation_type)
  applied to determine the occupation numbers.

  Checking to see if s.c.f. parameters should be adjusted.
  Adjusted the Pulay mixing parameter (charge_mix_param) for an expected low-gap system. New value:   0.020000 .
  Adjusted the occupation broadening width for an expected low-gap system. New value:      0.05000000 eV.

  Total energy components:
  | Sum of eigenvalues            :        -163.78194963 Ha       -4456.73360547 eV
  | XC energy correction          :         -19.65274355 Ha        -534.77836115 eV
  | XC potential correction       :          25.96579284 Ha         706.56517292 eV
  | Free-atom electrostatic energy:        -132.17610589 Ha       -3596.69483918 eV
  | Hartree energy correction     :           0.35892313 Ha           9.76679529 eV
  | Entropy correction            :          -0.00003601 Ha          -0.00097975 eV
  | ---------------------------
  | Total energy                  :        -289.28608309 Ha       -7871.87483760 eV
  | Total energy, T -> 0          :        -289.28611910 Ha       -7871.87581734 eV  <-- do not rely on this value for anything but (periodic) metals
  | Electronic free energy        :        -289.28615511 Ha       -7871.87679709 eV

  Derived energy quantities:
  | Kinetic energy                :         289.28353484 Ha        7871.80549603 eV
  | Electrostatic energy          :        -558.91687439 Ha      -15208.90197247 eV
  | Energy correction for multipole
  | error in Hartree potential    :           0.00014252 Ha           0.00387827 eV
  | Sum of eigenvalues per atom                           :       -4456.73360547 eV
  | Total energy (T->0) per atom                          :       -7871.87581734 eV  <-- do not rely on this value for anything but (periodic) metals
  | Electronic free energy per atom                       :       -7871.87679709 eV

  Self-consistency convergence accuracy:
  | Change of charge density      :  0.2625E-01
  | Change of sum of eigenvalues  : -0.8976E+01 eV
  | Change of total energy        :  0.2466E-01 eV

  End self-consistency iteration #     2       :  max(cpu_time)    wall_clock(cpu1)
  | Time for this iteration                    :        0.678 s           0.681 s
  | Charge density update                      :        0.253 s           0.255 s
  | Density mixing & preconditioning           :        0.019 s           0.019 s
  | Hartree multipole update                   :        0.000 s           0.000 s
  | Hartree multipole summation                :        0.158 s           0.159 s
  | Integration                                :        0.128 s           0.128 s
  | Solution of K.-S. eqns.                    :        0.119 s           0.119 s
  | Total energy evaluation                    :        0.000 s           0.000 s

  Partial memory accounting:
  | Current value for overall tracked memory usage on task 0  :           2.701 MB
  | Peak value for overall tracked memory usage on task 0     :           4.181 MB after allocating wave
  | Largest tracked array allocation on task 0 so far         :           2.500 MB  when allocating +KS_eigenvector_complex
  Note:  These values currently only include a subset of arrays which are explicitly tracked.
  The "true" memory usage will be greater.
------------------------------------------------------------

------------------------------------------------------------
          Begin self-consistency iteration #    3

  Date     :  20190514, Time     :  123526.309
------------------------------------------------------------
  Evaluating new KS density using the density matrix
  Evaluating density matrix
  Time summed over all CPUs for getting density from density matrix: real work        0.206 s, elapsed        0.206 s
  Integration grid: deviation in total charge (<rho> - N_e) =  -3.090861E-13
  Pulay mixing of updated and previous charge densities.

  Evaluating partitioned Hartree potential by multipole expansion.
  | Analytical far-field extrapolation by fixed multipoles:
  | Hartree multipole sum: apparent total charge =  -0.316259E-02
  Summing up the Hartree potential.
  Time summed over all CPUs for potential: real work        0.166 s, elapsed        0.166 s
  | RMS charge density error from multipole expansion :   0.144241E-02
  | Average real-space part of the electrostatic potential :     -0.27100764 eV

  Integrating Hamiltonian matrix: batch-based integration.
  Time summed over all CPUs for integration: real work        0.128 s, elapsed        0.128 s

  Updating Kohn-Sham eigenvalues, eigenvectors, occupation numbers, and Fermi level.
  Solving generalized eigenproblem

  Obtaining occupation numbers and chemical potential using ELSI.
  | Chemical potential (Fermi level):    -4.99691117eV
  What follows are estimated values for band gap, HOMO, LUMO, etc.
  | They are estimated on a discrete k-point grid and not necessarily exact.
  | For converged numbers, create a DOS and/or band structure plot on a denser k-grid.

  Highest occupied state (VBM) at     -5.00629494 eV (relative to internal zero)
  | Occupation number:      1.20930877
  | K-point:     554 at    0.416667    0.416667    0.250000 (in units of recip. lattice)

  Lowest unoccupied state (CBM) at    -4.98863636 eV (relative to internal zero)
  | Occupation number:      0.81494846
  | K-point:     677 at    0.500000    0.666667    0.250000 (in units of recip. lattice)

  ESTIMATED overall HOMO-LUMO gap:      0.01765858 eV between HOMO at k-point 554 and LUMO at k-point 677
  | This appears to be an indirect band gap.
  | Smallest direct gap :      0.39539909 eV for k_point 663 at    0.500000    0.666667    0.250000 (in units of recip. lattice)
  However, this system has fractional occupation numbers. Since we use a finite k-point grid,
  this material is metallic within the approximate finite broadening function (occupation_type)
  applied to determine the occupation numbers.

  Total energy components:
  | Sum of eigenvalues            :        -163.84435992 Ha       -4458.43187590 eV
  | XC energy correction          :         -19.64918048 Ha        -534.68140506 eV
  | XC potential correction       :          25.96112204 Ha         706.43807378 eV
  | Free-atom electrostatic energy:        -132.17610589 Ha       -3596.69483918 eV
  | Hartree energy correction     :           0.42250759 Ha          11.49701655 eV
  | Entropy correction            :          -0.00003467 Ha          -0.00094349 eV
  | ---------------------------
  | Total energy                  :        -289.28601666 Ha       -7871.87302981 eV
  | Total energy, T -> 0          :        -289.28605133 Ha       -7871.87397331 eV  <-- do not rely on this value for anything but (periodic) metals
  | Electronic free energy        :        -289.28608601 Ha       -7871.87491680 eV

  Derived energy quantities:
  | Kinetic energy                :         289.29168834 Ha        7872.02736421 eV
  | Electrostatic energy          :        -558.92852453 Ha      -15209.21898896 eV
  | Energy correction for multipole
  | error in Hartree potential    :           0.00019697 Ha           0.00535973 eV
  | Sum of eigenvalues per atom                           :       -4458.43187590 eV
  | Total energy (T->0) per atom                          :       -7871.87397331 eV  <-- do not rely on this value for anything but (periodic) metals
  | Electronic free energy per atom                       :       -7871.87491680 eV

  Self-consistency convergence accuracy:
  | Change of charge density      :  0.6506E-02
  | Change of sum of eigenvalues  : -0.1698E+01 eV
  | Change of total energy        :  0.1808E-02 eV

  End self-consistency iteration #     3       :  max(cpu_time)    wall_clock(cpu1)
  | Time for this iteration                    :        0.656 s           0.658 s
  | Charge density update                      :        0.223 s           0.224 s
  | Density mixing & preconditioning           :        0.019 s           0.019 s
  | Hartree multipole update                   :        0.000 s           0.000 s
  | Hartree multipole summation                :        0.167 s           0.168 s
  | Integration                                :        0.129 s           0.128 s
  | Solution of K.-S. eqns.                    :        0.118 s           0.119 s
  | Total energy evaluation                    :        0.000 s           0.000 s

  Partial memory accounting:
  | Current value for overall tracked memory usage on task 0  :           2.701 MB
  | Peak value for overall tracked memory usage on task 0     :           4.181 MB after allocating wave
  | Largest tracked array allocation on task 0 so far         :           2.500 MB  when allocating +KS_eigenvector_complex
  Note:  These values currently only include a subset of arrays which are explicitly tracked.
  The "true" memory usage will be greater.
------------------------------------------------------------

------------------------------------------------------------
          Begin self-consistency iteration #    4

  Date     :  20190514, Time     :  123526.967
------------------------------------------------------------
  Evaluating new KS density using the density matrix
  Evaluating density matrix
  Time summed over all CPUs for getting density from density matrix: real work        0.200 s, elapsed        0.200 s
  Integration grid: deviation in total charge (<rho> - N_e) =  -3.055334E-13
  Pulay mixing of updated and previous charge densities.

  Evaluating partitioned Hartree potential by multipole expansion.
  | Analytical far-field extrapolation by fixed multipoles:
  | Hartree multipole sum: apparent total charge =  -0.308958E-02
  Summing up the Hartree potential.
  Time summed over all CPUs for potential: real work        0.163 s, elapsed        0.163 s
  | RMS charge density error from multipole expansion :   0.142538E-02
  | Average real-space part of the electrostatic potential :     -0.26282596 eV

  Integrating Hamiltonian matrix: batch-based integration.
  Time summed over all CPUs for integration: real work        0.124 s, elapsed        0.124 s

  Updating Kohn-Sham eigenvalues, eigenvectors, occupation numbers, and Fermi level.
  Solving generalized eigenproblem

  Obtaining occupation numbers and chemical potential using ELSI.
  | Chemical potential (Fermi level):    -4.98954072eV
  What follows are estimated values for band gap, HOMO, LUMO, etc.
  | They are estimated on a discrete k-point grid and not necessarily exact.
  | For converged numbers, create a DOS and/or band structure plot on a denser k-grid.

  Highest occupied state (VBM) at     -4.99953782 eV (relative to internal zero)
  | Occupation number:      1.22263968
  | K-point:     554 at    0.416667    0.416667    0.250000 (in units of recip. lattice)

  Lowest unoccupied state (CBM) at    -4.98149221 eV (relative to internal zero)
  | Occupation number:      0.81992123
  | K-point:     677 at    0.500000    0.666667    0.250000 (in units of recip. lattice)

  ESTIMATED overall HOMO-LUMO gap:      0.01804561 eV between HOMO at k-point 554 and LUMO at k-point 677
  | This appears to be an indirect band gap.
  | Smallest direct gap :      0.39604392 eV for k_point 565 at    0.500000    0.666667    0.250000 (in units of recip. lattice)
  However, this system has fractional occupation numbers. Since we use a finite k-point grid,
  this material is metallic within the approximate finite broadening function (occupation_type)
  applied to determine the occupation numbers.

  Total energy components:
  | Sum of eigenvalues            :        -163.81147987 Ha       -4457.53716431 eV
  | XC energy correction          :         -19.65268975 Ha        -534.77689726 eV
  | XC potential correction       :          25.96577357 Ha         706.56464859 eV
  | Free-atom electrostatic energy:        -132.17610589 Ha       -3596.69483918 eV
  | Hartree energy correction     :           0.38848783 Ha          10.57129180 eV
  | Entropy correction            :          -0.00003489 Ha          -0.00094935 eV
  | ---------------------------
  | Total energy                  :        -289.28601411 Ha       -7871.87296037 eV
  | Total energy, T -> 0          :        -289.28604900 Ha       -7871.87390972 eV  <-- do not rely on this value for anything but (periodic) metals
  | Electronic free energy        :        -289.28608388 Ha       -7871.87485906 eV

  Derived energy quantities:
  | Kinetic energy                :         289.34642193 Ha        7873.51674094 eV
  | Electrostatic energy          :        -558.97974629 Ha      -15210.61280405 eV
  | Energy correction for multipole
  | error in Hartree potential    :           0.00019458 Ha           0.00529482 eV
  | Sum of eigenvalues per atom                           :       -4457.53716431 eV
  | Total energy (T->0) per atom                          :       -7871.87390972 eV  <-- do not rely on this value for anything but (periodic) metals
  | Electronic free energy per atom                       :       -7871.87485906 eV

  Self-consistency convergence accuracy:
  | Change of charge density      :  0.3468E-02
  | Change of sum of eigenvalues  :  0.8947E+00 eV
  | Change of total energy        :  0.6945E-04 eV

  End self-consistency iteration #     4       :  max(cpu_time)    wall_clock(cpu1)
  | Time for this iteration                    :        0.641 s           0.642 s
  | Charge density update                      :        0.216 s           0.217 s
  | Density mixing & preconditioning           :        0.018 s           0.018 s
  | Hartree multipole update                   :        0.000 s           0.001 s
  | Hartree multipole summation                :        0.164 s           0.165 s
  | Integration                                :        0.124 s           0.124 s
  | Solution of K.-S. eqns.                    :        0.117 s           0.117 s
  | Total energy evaluation                    :        0.000 s           0.000 s

  Partial memory accounting:
  | Current value for overall tracked memory usage on task 0  :           2.701 MB
  | Peak value for overall tracked memory usage on task 0     :           4.181 MB after allocating wave
  | Largest tracked array allocation on task 0 so far         :           2.500 MB  when allocating +KS_eigenvector_complex
  Note:  These values currently only include a subset of arrays which are explicitly tracked.
  The "true" memory usage will be greater.
------------------------------------------------------------

------------------------------------------------------------
          Begin self-consistency iteration #    5

  Date     :  20190514, Time     :  123527.610
------------------------------------------------------------
  Evaluating new KS density using the density matrix
  Evaluating density matrix
  Time summed over all CPUs for getting density from density matrix: real work        0.203 s, elapsed        0.203 s
  Integration grid: deviation in total charge (<rho> - N_e) =  -3.073097E-13
  Pulay mixing of updated and previous charge densities.

  Evaluating partitioned Hartree potential by multipole expansion.
  | Analytical far-field extrapolation by fixed multipoles:
  | Hartree multipole sum: apparent total charge =  -0.296756E-02
  Summing up the Hartree potential.
  Time summed over all CPUs for potential: real work        0.162 s, elapsed        0.162 s
  | RMS charge density error from multipole expansion :   0.143042E-02
  | Average real-space part of the electrostatic potential :     -0.26493578 eV

  Integrating Hamiltonian matrix: batch-based integration.
  Time summed over all CPUs for integration: real work        0.127 s, elapsed        0.127 s

  Updating Kohn-Sham eigenvalues, eigenvectors, occupation numbers, and Fermi level.
  Solving generalized eigenproblem

  Obtaining occupation numbers and chemical potential using ELSI.
  | Chemical potential (Fermi level):    -4.99038469eV
  What follows are estimated values for band gap, HOMO, LUMO, etc.
  | They are estimated on a discrete k-point grid and not necessarily exact.
  | For converged numbers, create a DOS and/or band structure plot on a denser k-grid.

  Highest occupied state (VBM) at     -5.00030676 eV (relative to internal zero)
  | Occupation number:      1.22101233
  | K-point:     554 at    0.416667    0.416667    0.250000 (in units of recip. lattice)

  Lowest unoccupied state (CBM) at    -4.98230912 eV (relative to internal zero)
  | Occupation number:      0.81932635
  | K-point:     677 at    0.500000    0.666667    0.250000 (in units of recip. lattice)

  ESTIMATED overall HOMO-LUMO gap:      0.01799764 eV between HOMO at k-point 554 and LUMO at k-point 677
  | This appears to be an indirect band gap.
  | Smallest direct gap :      0.39596752 eV for k_point 565 at    0.500000    0.666667    0.250000 (in units of recip. lattice)
  However, this system has fractional occupation numbers. Since we use a finite k-point grid,
  this material is metallic within the approximate finite broadening function (occupation_type)
  applied to determine the occupation numbers.

  Total energy components:
  | Sum of eigenvalues            :        -163.81440429 Ha       -4457.61674180 eV
  | XC energy correction          :         -19.65236656 Ha        -534.76810270 eV
  | XC potential correction       :          25.96534666 Ha         706.55303159 eV
  | Free-atom electrostatic energy:        -132.17610589 Ha       -3596.69483918 eV
  | Hartree energy correction     :           0.39151617 Ha          10.65369693 eV
  | Entropy correction            :          -0.00003486 Ha          -0.00094866 eV
  | ---------------------------
  | Total energy                  :        -289.28601392 Ha       -7871.87295516 eV
  | Total energy, T -> 0          :        -289.28604878 Ha       -7871.87390382 eV  <-- do not rely on this value for anything but (periodic) metals
  | Electronic free energy        :        -289.28608364 Ha       -7871.87485248 eV

  Derived energy quantities:
  | Kinetic energy                :         289.34268820 Ha        7873.41514080 eV
  | Electrostatic energy          :        -558.97633556 Ha      -15210.51999326 eV
  | Energy correction for multipole
  | error in Hartree potential    :           0.00019532 Ha           0.00531505 eV
  | Sum of eigenvalues per atom                           :       -4457.61674180 eV
  | Total energy (T->0) per atom                          :       -7871.87390382 eV  <-- do not rely on this value for anything but (periodic) metals
  | Electronic free energy per atom                       :       -7871.87485248 eV

  Self-consistency convergence accuracy:
  | Change of charge density      :  0.6483E-03
  | Change of sum of eigenvalues  : -0.7958E-01 eV
  | Change of total energy        :  0.5206E-05 eV

  End self-consistency iteration #     5       :  max(cpu_time)    wall_clock(cpu1)
  | Time for this iteration                    :        0.646 s           0.648 s
  | Charge density update                      :        0.220 s           0.220 s
  | Density mixing & preconditioning           :        0.017 s           0.018 s
  | Hartree multipole update                   :        0.000 s           0.000 s
  | Hartree multipole summation                :        0.164 s           0.164 s
  | Integration                                :        0.127 s           0.128 s
  | Solution of K.-S. eqns.                    :        0.117 s           0.117 s
  | Total energy evaluation                    :        0.000 s           0.001 s

  Partial memory accounting:
  | Current value for overall tracked memory usage on task 0  :           2.702 MB
  | Peak value for overall tracked memory usage on task 0     :           4.181 MB after allocating wave
  | Largest tracked array allocation on task 0 so far         :           2.500 MB  when allocating +KS_eigenvector_complex
  Note:  These values currently only include a subset of arrays which are explicitly tracked.
  The "true" memory usage will be greater.
------------------------------------------------------------

------------------------------------------------------------
          Begin self-consistency iteration #    6

  Date     :  20190514, Time     :  123528.258
------------------------------------------------------------
  Evaluating new KS density using the density matrix
  Evaluating density matrix
  Time summed over all CPUs for getting density from density matrix: real work        0.204 s, elapsed        0.204 s
  Integration grid: deviation in total charge (<rho> - N_e) =  -2.184919E-13
  Pulay mixing of updated and previous charge densities.

  Evaluating partitioned Hartree potential by multipole expansion.
  | Analytical far-field extrapolation by fixed multipoles:
  | Hartree multipole sum: apparent total charge =  -0.203936E-03
  Summing up the Hartree potential.
  Time summed over all CPUs for potential: real work        0.162 s, elapsed        0.162 s
  | RMS charge density error from multipole expansion :   0.142624E-02
  | Average real-space part of the electrostatic potential :     -0.28246242 eV

  Integrating Hamiltonian matrix: batch-based integration.
  Time summed over all CPUs for integration: real work        0.129 s, elapsed        0.129 s

  Updating Kohn-Sham eigenvalues, eigenvectors, occupation numbers, and Fermi level.
  Solving generalized eigenproblem

  Obtaining occupation numbers and chemical potential using ELSI.
  | Chemical potential (Fermi level):    -4.98910224eV
  What follows are estimated values for band gap, HOMO, LUMO, etc.
  | They are estimated on a discrete k-point grid and not necessarily exact.
  | For converged numbers, create a DOS and/or band structure plot on a denser k-grid.

  Highest occupied state (VBM) at     -4.99893206 eV (relative to internal zero)
  | Occupation number:      1.21900996
  | K-point:     542 at    0.416667    0.250000    0.916667 (in units of recip. lattice)

  Lowest unoccupied state (CBM) at    -4.98105015 eV (relative to internal zero)
  | Occupation number:      0.81984249
  | K-point:     368 at    0.250000    0.666667    0.583333 (in units of recip. lattice)

  ESTIMATED overall HOMO-LUMO gap:      0.01788190 eV between HOMO at k-point 542 and LUMO at k-point 368
  | This appears to be an indirect band gap.
  | Smallest direct gap :      0.39586255 eV for k_point 574 at    0.250000    0.666667    0.583333 (in units of recip. lattice)
  However, this system has fractional occupation numbers. Since we use a finite k-point grid,
  this material is metallic within the approximate finite broadening function (occupation_type)
  applied to determine the occupation numbers.

  Total energy components:
  | Sum of eigenvalues            :        -163.81554016 Ha       -4457.64765024 eV
  | XC energy correction          :         -19.65129095 Ha        -534.73883390 eV
  | XC potential correction       :          25.96393869 Ha         706.51471882 eV
  | Free-atom electrostatic energy:        -132.17610589 Ha       -3596.69483918 eV
  | Hartree energy correction     :           0.39298419 Ha          10.69364377 eV
  | Entropy correction            :          -0.00003488 Ha          -0.00094920 eV
  | ---------------------------
  | Total energy                  :        -289.28601412 Ha       -7871.87296072 eV
  | Total energy, T -> 0          :        -289.28604900 Ha       -7871.87390993 eV  <-- do not rely on this value for anything but (periodic) metals
  | Electronic free energy        :        -289.28608389 Ha       -7871.87485913 eV

  Derived energy quantities:
  | Kinetic energy                :         289.33752056 Ha        7873.27452228 eV
  | Electrostatic energy          :        -558.97224374 Ha      -15210.40864911 eV
  | Energy correction for multipole
  | error in Hartree potential    :           0.00019424 Ha           0.00528555 eV
  | Sum of eigenvalues per atom                           :       -4457.64765024 eV
  | Total energy (T->0) per atom                          :       -7871.87390993 eV  <-- do not rely on this value for anything but (periodic) metals
  | Electronic free energy per atom                       :       -7871.87485913 eV

  Self-consistency convergence accuracy:
  | Change of charge density      :  0.4606E-03
  | Change of sum of eigenvalues  : -0.3091E-01 eV
  | Change of total energy        : -0.5562E-05 eV

  End self-consistency iteration #     6       :  max(cpu_time)    wall_clock(cpu1)
  | Time for this iteration                    :        0.652 s           0.654 s
  | Charge density update                      :        0.222 s           0.223 s
  | Density mixing & preconditioning           :        0.017 s           0.017 s
  | Hartree multipole update                   :        0.000 s           0.000 s
  | Hartree multipole summation                :        0.164 s           0.164 s
  | Integration                                :        0.128 s           0.129 s
  | Solution of K.-S. eqns.                    :        0.120 s           0.120 s
  | Total energy evaluation                    :        0.000 s           0.000 s

  Partial memory accounting:
  | Current value for overall tracked memory usage on task 0  :           2.702 MB
  | Peak value for overall tracked memory usage on task 0     :           4.181 MB after allocating wave
  | Largest tracked array allocation on task 0 so far         :           2.500 MB  when allocating +KS_eigenvector_complex
  Note:  These values currently only include a subset of arrays which are explicitly tracked.
  The "true" memory usage will be greater.
------------------------------------------------------------

------------------------------------------------------------
          Begin self-consistency iteration #    7

  Date     :  20190514, Time     :  123528.912
------------------------------------------------------------
  Evaluating new KS density using the density matrix
  Evaluating density matrix
  Time summed over all CPUs for getting density from density matrix: real work        0.203 s, elapsed        0.203 s
  Integration grid: deviation in total charge (<rho> - N_e) =  -2.700062E-13
  Pulay mixing of updated and previous charge densities.

  Evaluating partitioned Hartree potential by multipole expansion.
  | Analytical far-field extrapolation by fixed multipoles:
  | Hartree multipole sum: apparent total charge =  -0.266313E-03
  Summing up the Hartree potential.
  Time summed over all CPUs for potential: real work        0.163 s, elapsed        0.163 s
  | RMS charge density error from multipole expansion :   0.142882E-02
  | Average real-space part of the electrostatic potential :     -0.28256742 eV

  Integrating Hamiltonian matrix: batch-based integration.
  Time summed over all CPUs for integration: real work        0.129 s, elapsed        0.129 s

  Updating Kohn-Sham eigenvalues, eigenvectors, occupation numbers, and Fermi level.
  Solving generalized eigenproblem

  Obtaining occupation numbers and chemical potential using ELSI.
  | Chemical potential (Fermi level):    -4.98942111eV
  What follows are estimated values for band gap, HOMO, LUMO, etc.
  | They are estimated on a discrete k-point grid and not necessarily exact.
  | For converged numbers, create a DOS and/or band structure plot on a denser k-grid.

  Highest occupied state (VBM) at     -4.99923178 eV (relative to internal zero)
  | Occupation number:      1.21859445
  | K-point:     542 at    0.416667    0.250000    0.916667 (in units of recip. lattice)

  Lowest unoccupied state (CBM) at    -4.98135912 eV (relative to internal zero)
  | Occupation number:      0.81962499
  | K-point:     678 at    0.500000    0.666667    0.583333 (in units of recip. lattice)

  ESTIMATED overall HOMO-LUMO gap:      0.01787266 eV between HOMO at k-point 542 and LUMO at k-point 678
  | This appears to be an indirect band gap.
  | Smallest direct gap :      0.39584414 eV for k_point 574 at    0.500000    0.666667    0.583333 (in units of recip. lattice)
  However, this system has fractional occupation numbers. Since we use a finite k-point grid,
  this material is metallic within the approximate finite broadening function (occupation_type)
  applied to determine the occupation numbers.

  Total energy components:
  | Sum of eigenvalues            :        -163.81608726 Ha       -4457.66253777 eV
  | XC energy correction          :         -19.65127521 Ha        -534.73840561 eV
  | XC potential correction       :          25.96391784 Ha         706.51415148 eV
  | Free-atom electrostatic energy:        -132.17610589 Ha       -3596.69483918 eV
  | Hartree energy correction     :           0.39353646 Ha          10.70867180 eV
  | Entropy correction            :          -0.00003487 Ha          -0.00094895 eV
  | ---------------------------
  | Total energy                  :        -289.28601407 Ha       -7871.87295928 eV
  | Total energy, T -> 0          :        -289.28604894 Ha       -7871.87390823 eV  <-- do not rely on this value for anything but (periodic) metals
  | Electronic free energy        :        -289.28608381 Ha       -7871.87485718 eV

  Derived energy quantities:
  | Kinetic energy                :         289.33750663 Ha        7873.27414317 eV
  | Electrostatic energy          :        -558.97224549 Ha      -15210.40869685 eV
  | Energy correction for multipole
  | error in Hartree potential    :           0.00019466 Ha           0.00529687 eV
  | Sum of eigenvalues per atom                           :       -4457.66253777 eV
  | Total energy (T->0) per atom                          :       -7871.87390823 eV  <-- do not rely on this value for anything but (periodic) metals
  | Electronic free energy per atom                       :       -7871.87485718 eV

  Self-consistency convergence accuracy:
  | Change of charge density      :  0.4230E-04
  | Change of sum of eigenvalues  : -0.1489E-01 eV
  | Change of total energy        :  0.1442E-05 eV

  End self-consistency iteration #     7       :  max(cpu_time)    wall_clock(cpu1)
  | Time for this iteration                    :        0.649 s           0.651 s
  | Charge density update                      :        0.219 s           0.220 s
  | Density mixing & preconditioning           :        0.017 s           0.017 s
  | Hartree multipole update                   :        0.000 s           0.000 s
  | Hartree multipole summation                :        0.164 s           0.165 s
  | Integration                                :        0.129 s           0.129 s
  | Solution of K.-S. eqns.                    :        0.119 s           0.120 s
  | Total energy evaluation                    :        0.000 s           0.000 s

  Partial memory accounting:
  | Current value for overall tracked memory usage on task 0  :           2.702 MB
  | Peak value for overall tracked memory usage on task 0     :           4.181 MB after allocating wave
  | Largest tracked array allocation on task 0 so far         :           2.500 MB  when allocating +KS_eigenvector_complex
  Note:  These values currently only include a subset of arrays which are explicitly tracked.
  The "true" memory usage will be greater.
------------------------------------------------------------

------------------------------------------------------------
          Begin self-consistency iteration #    8

  Date     :  20190514, Time     :  123529.563
------------------------------------------------------------
  Evaluating new KS density using the density matrix
  Evaluating density matrix
  Time summed over all CPUs for getting density from density matrix: real work        0.201 s, elapsed        0.201 s
  Integration grid: deviation in total charge (<rho> - N_e) =  -3.534950E-13
  Pulay mixing of updated and previous charge densities.

  Evaluating partitioned Hartree potential by multipole expansion.
  | Analytical far-field extrapolation by fixed multipoles:
  | Hartree multipole sum: apparent total charge =   0.294751E-04
  Summing up the Hartree potential.
  Time summed over all CPUs for potential: real work        0.163 s, elapsed        0.163 s
  | RMS charge density error from multipole expansion :   0.142476E-02
  | Average real-space part of the electrostatic potential :     -0.28389115 eV

  Integrating Hamiltonian matrix: batch-based integration.
  Time summed over all CPUs for integration: real work        0.126 s, elapsed        0.126 s

  Updating Kohn-Sham eigenvalues, eigenvectors, occupation numbers, and Fermi level.
  Solving generalized eigenproblem

  Obtaining occupation numbers and chemical potential using ELSI.
  | Chemical potential (Fermi level):    -4.98903197eV
  What follows are estimated values for band gap, HOMO, LUMO, etc.
  | They are estimated on a discrete k-point grid and not necessarily exact.
  | For converged numbers, create a DOS and/or band structure plot on a denser k-grid.

  Highest occupied state (VBM) at     -4.99885127 eV (relative to internal zero)
  | Occupation number:      1.21878172
  | K-point:     554 at    0.416667    0.416667    0.250000 (in units of recip. lattice)

  Lowest unoccupied state (CBM) at    -4.98097689 eV (relative to internal zero)
  | Occupation number:      0.81977684
  | K-point:     677 at    0.500000    0.666667    0.250000 (in units of recip. lattice)

  ESTIMATED overall HOMO-LUMO gap:      0.01787438 eV between HOMO at k-point 554 and LUMO at k-point 677
  | This appears to be an indirect band gap.
  | Smallest direct gap :      0.39585053 eV for k_point 565 at    0.500000    0.666667    0.250000 (in units of recip. lattice)
  However, this system has fractional occupation numbers. Since we use a finite k-point grid,
  this material is metallic within the approximate finite broadening function (occupation_type)
  applied to determine the occupation numbers.

  Total energy components:
  | Sum of eigenvalues            :        -163.81567886 Ha       -4457.65142468 eV
  | XC energy correction          :         -19.65120574 Ha        -534.73651526 eV
  | XC potential correction       :          25.96382730 Ha         706.51168782 eV
  | Free-atom electrostatic energy:        -132.17610589 Ha       -3596.69483918 eV
  | Hartree energy correction     :           0.39314907 Ha          10.69813051 eV
  | Entropy correction            :          -0.00003488 Ha          -0.00094913 eV
  | ---------------------------
  | Total energy                  :        -289.28601412 Ha       -7871.87296079 eV
  | Total energy, T -> 0          :        -289.28604900 Ha       -7871.87390992 eV  <-- do not rely on this value for anything but (periodic) metals
  | Electronic free energy        :        -289.28608388 Ha       -7871.87485904 eV

  Derived energy quantities:
  | Kinetic energy                :         289.33734649 Ha        7873.26978551 eV
  | Electrostatic energy          :        -558.97215487 Ha      -15210.40623104 eV
  | Energy correction for multipole
  | error in Hartree potential    :           0.00019406 Ha           0.00528073 eV
  | Sum of eigenvalues per atom                           :       -4457.65142468 eV
  | Total energy (T->0) per atom                          :       -7871.87390992 eV  <-- do not rely on this value for anything but (periodic) metals
  | Electronic free energy per atom                       :       -7871.87485904 eV

  Self-consistency convergence accuracy:
  | Change of charge density      :  0.4775E-04
  | Change of sum of eigenvalues  :  0.1111E-01 eV
  | Change of total energy        : -0.1512E-05 eV

  End self-consistency iteration #     8       :  max(cpu_time)    wall_clock(cpu1)
  | Time for this iteration                    :        0.645 s           0.647 s
  | Charge density update                      :        0.218 s           0.218 s
  | Density mixing & preconditioning           :        0.018 s           0.018 s
  | Hartree multipole update                   :        0.000 s           0.001 s
  | Hartree multipole summation                :        0.164 s           0.164 s
  | Integration                                :        0.126 s           0.126 s
  | Solution of K.-S. eqns.                    :        0.119 s           0.119 s
  | Total energy evaluation                    :        0.000 s           0.001 s

  Partial memory accounting:
  | Current value for overall tracked memory usage on task 0  :           2.703 MB
  | Peak value for overall tracked memory usage on task 0     :           4.181 MB after allocating wave
  | Largest tracked array allocation on task 0 so far         :           2.500 MB  when allocating +KS_eigenvector_complex
  Note:  These values currently only include a subset of arrays which are explicitly tracked.
  The "true" memory usage will be greater.
------------------------------------------------------------

------------------------------------------------------------
          Begin self-consistency iteration #    9

  Date     :  20190514, Time     :  123530.210
------------------------------------------------------------
  Evaluating new KS density using the density matrix
  Evaluating density matrix
  Time summed over all CPUs for getting density from density matrix: real work        0.202 s, elapsed        0.203 s
  Integration grid: deviation in total charge (<rho> - N_e) =  -3.446132E-13
  Pulay mixing of updated and previous charge densities.

  Evaluating partitioned Hartree potential by multipole expansion.
  | Analytical far-field extrapolation by fixed multipoles:
  | Hartree multipole sum: apparent total charge =   0.294237E-04
  Summing up the Hartree potential.
  Time summed over all CPUs for potential: real work        0.160 s, elapsed        0.160 s
  | RMS charge density error from multipole expansion :   0.142477E-02
  | Average real-space part of the electrostatic potential :     -0.28389408 eV

  Integrating Hamiltonian matrix: batch-based integration.
  Time summed over all CPUs for integration: real work        0.127 s, elapsed        0.127 s

  Updating Kohn-Sham eigenvalues, eigenvectors, occupation numbers, and Fermi level.
  Solving generalized eigenproblem

  Obtaining occupation numbers and chemical potential using ELSI.
  | Chemical potential (Fermi level):    -4.98903396eV
  What follows are estimated values for band gap, HOMO, LUMO, etc.
  | They are estimated on a discrete k-point grid and not necessarily exact.
  | For converged numbers, create a DOS and/or band structure plot on a denser k-grid.

  Highest occupied state (VBM) at     -4.99885312 eV (relative to internal zero)
  | Occupation number:      1.21877853
  | K-point:     554 at    0.416667    0.416667    0.250000 (in units of recip. lattice)

  Lowest unoccupied state (CBM) at    -4.98097882 eV (relative to internal zero)
  | Occupation number:      0.81977540
  | K-point:     591 at    0.416667    0.750000    0.333333 (in units of recip. lattice)

  ESTIMATED overall HOMO-LUMO gap:      0.01787430 eV between HOMO at k-point 554 and LUMO at k-point 591
  | This appears to be an indirect band gap.
  | Smallest direct gap :      0.39585038 eV for k_point 565 at    0.416667    0.750000    0.333333 (in units of recip. lattice)
  However, this system has fractional occupation numbers. Since we use a finite k-point grid,
  this material is metallic within the approximate finite broadening function (occupation_type)
  applied to determine the occupation numbers.

  Total energy components:
  | Sum of eigenvalues            :        -163.81568303 Ha       -4457.65153803 eV
  | XC energy correction          :         -19.65120546 Ha        -534.73650759 eV
  | XC potential correction       :          25.96382693 Ha         706.51167771 eV
  | Free-atom electrostatic energy:        -132.17610589 Ha       -3596.69483918 eV
  | Hartree energy correction     :           0.39315333 Ha          10.69824631 eV
  | Entropy correction            :          -0.00003488 Ha          -0.00094912 eV
  | ---------------------------
  | Total energy                  :        -289.28601412 Ha       -7871.87296079 eV
  | Total energy, T -> 0          :        -289.28604900 Ha       -7871.87390991 eV  <-- do not rely on this value for anything but (periodic) metals
  | Electronic free energy        :        -289.28608388 Ha       -7871.87485903 eV

  Derived energy quantities:
  | Kinetic energy                :         289.33734484 Ha        7873.26974068 eV
  | Electrostatic energy          :        -558.97215351 Ha      -15210.40619387 eV
  | Energy correction for multipole
  | error in Hartree potential    :           0.00019407 Ha           0.00528079 eV
  | Sum of eigenvalues per atom                           :       -4457.65153803 eV
[...]
  | Hartree multipole update                   :        0.000 s           0.001 s
  | Hartree multipole summation                :        0.162 s           0.162 s
  | Integration                                :        0.127 s           0.127 s
  | Solution of K.-S. eqns.                    :        0.120 s           0.120 s
  | Total energy evaluation                    :        0.000 s           0.000 s

  Partial memory accounting:
  | Current value for overall tracked memory usage on task 0  :           2.703 MB
  | Peak value for overall tracked memory usage on task 0     :           4.181 MB after allocating wave
  | Largest tracked array allocation on task 0 so far         :           2.500 MB  when allocating +KS_eigenvector_complex
  Note:  These values currently only include a subset of arrays which are explicitly tracked.
  The "true" memory usage will be greater.
------------------------------------------------------------

------------------------------------------------------------
          Begin self-consistency iteration #   10

  Date     :  20190514, Time     :  123530.857
------------------------------------------------------------
  Evaluating new KS density using the density matrix
  Evaluating density matrix
  Time summed over all CPUs for getting density from density matrix: real work        0.203 s, elapsed        0.203 s
  Integration grid: deviation in total charge (<rho> - N_e) =  -4.121148E-13
  Pulay mixing of updated and previous charge densities.

  Evaluating partitioned Hartree potential by multipole expansion.
  | Analytical far-field extrapolation by fixed multipoles:
  | Hartree multipole sum: apparent total charge =   0.281960E-04
  Summing up the Hartree potential.
  Time summed over all CPUs for potential: real work        0.163 s, elapsed        0.163 s
  | RMS charge density error from multipole expansion :   0.142468E-02
  | Average real-space part of the electrostatic potential :     -0.28386336 eV

  Integrating Hamiltonian matrix: batch-based integration.
  Time summed over all CPUs for integration: real work        0.128 s, elapsed        0.128 s

  Updating Kohn-Sham eigenvalues, eigenvectors, occupation numbers, and Fermi level.
  Solving generalized eigenproblem

  Obtaining occupation numbers and chemical potential using ELSI.
  | Chemical potential (Fermi level):    -4.98901935eV
  What follows are estimated values for band gap, HOMO, LUMO, etc.
  | They are estimated on a discrete k-point grid and not necessarily exact.
  | For converged numbers, create a DOS and/or band structure plot on a denser k-grid.

  Highest occupied state (VBM) at     -4.99883972 eV (relative to internal zero)
  | Occupation number:      1.21880488
  | K-point:     161 at    0.083333    0.750000    0.583333 (in units of recip. lattice)

  Lowest unoccupied state (CBM) at    -4.98096474 eV (relative to internal zero)
  | Occupation number:      0.81978696
  | K-point:     591 at    0.416667    0.750000    0.333333 (in units of recip. lattice)

  ESTIMATED overall HOMO-LUMO gap:      0.01787499 eV between HOMO at k-point 161 and LUMO at k-point 591
  | This appears to be an indirect band gap.
  | Smallest direct gap :      0.39585161 eV for k_point 663 at    0.416667    0.750000    0.333333 (in units of recip. lattice)
  However, this system has fractional occupation numbers. Since we use a finite k-point grid,
  this material is metallic within the approximate finite broadening function (occupation_type)
  applied to determine the occupation numbers.

  Total energy components:
  | Sum of eigenvalues            :        -163.81564885 Ha       -4457.65060804 eV
  | XC energy correction          :         -19.65120832 Ha        -534.73658554 eV
  | XC potential correction       :          25.96383070 Ha         706.51178029 eV
  | Free-atom electrostatic energy:        -132.17610589 Ha       -3596.69483918 eV
  | Hartree energy correction     :           0.39311824 Ha          10.69729163 eV
  | Entropy correction            :          -0.00003488 Ha          -0.00094914 eV
  | ---------------------------
  | Total energy                  :        -289.28601413 Ha       -7871.87296084 eV
  | Total energy, T -> 0          :        -289.28604901 Ha       -7871.87390998 eV  <-- do not rely on this value for anything but (periodic) metals
  | Electronic free energy        :        -289.28608389 Ha       -7871.87485912 eV

  Derived energy quantities:
  | Kinetic energy                :         289.33736381 Ha        7873.27025687 eV
  | Electrostatic energy          :        -558.97216961 Ha      -15210.40663217 eV
  | Energy correction for multipole
  | error in Hartree potential    :           0.00019405 Ha           0.00528036 eV
  | Sum of eigenvalues per atom                           :       -4457.65060804 eV
  | Total energy (T->0) per atom                          :       -7871.87390998 eV  <-- do not rely on this value for anything but (periodic) metals
  | Electronic free energy per atom                       :       -7871.87485912 eV

  Self-consistency convergence accuracy:
  | Change of charge density      :  0.2223E-05
  | Change of sum of eigenvalues  :  0.9300E-03 eV
  | Change of total energy        : -0.5697E-07 eV

  End self-consistency iteration #    10       :  max(cpu_time)    wall_clock(cpu1)
  | Time for this iteration                    :        0.652 s           0.652 s
  | Charge density update                      :        0.221 s           0.220 s
  | Density mixing & preconditioning           :        0.017 s           0.017 s
  | Hartree multipole update                   :        0.000 s           0.001 s
  | Hartree multipole summation                :        0.165 s           0.165 s
  | Integration                                :        0.128 s           0.128 s
  | Solution of K.-S. eqns.                    :        0.121 s           0.121 s
  | Total energy evaluation                    :        0.000 s           0.000 s

  Partial memory accounting:
  | Current value for overall tracked memory usage on task 0  :           2.703 MB
  | Peak value for overall tracked memory usage on task 0     :           4.181 MB after allocating wave
  | Largest tracked array allocation on task 0 so far         :           2.500 MB  when allocating +KS_eigenvector_complex
  Note:  These values currently only include a subset of arrays which are explicitly tracked.
  The "true" memory usage will be greater.
------------------------------------------------------------

------------------------------------------------------------
          Begin self-consistency iteration #   11

  Date     :  20190514, Time     :  123531.510
------------------------------------------------------------
  Evaluating new KS density using the density matrix
  Evaluating density matrix
  Time summed over all CPUs for getting density from density matrix: real work        0.204 s, elapsed        0.204 s
  Integration grid: deviation in total charge (<rho> - N_e) =  -3.019807E-13
  Pulay mixing of updated and previous charge densities.

  Evaluating partitioned Hartree potential by multipole expansion.
  | Analytical far-field extrapolation by fixed multipoles:
  | Hartree multipole sum: apparent total charge =   0.281116E-04
  Summing up the Hartree potential.
  Time summed over all CPUs for potential: real work        0.164 s, elapsed        0.164 s
  | RMS charge density error from multipole expansion :   0.142469E-02
  | Average real-space part of the electrostatic potential :     -0.28386543 eV

  Integrating Hamiltonian matrix: batch-based integration.
  Time summed over all CPUs for integration: real work        0.126 s, elapsed        0.126 s

  Updating Kohn-Sham eigenvalues, eigenvectors, occupation numbers, and Fermi level.
  Solving generalized eigenproblem

  Obtaining occupation numbers and chemical potential using ELSI.
  | Chemical potential (Fermi level):    -4.98902103eV
  What follows are estimated values for band gap, HOMO, LUMO, etc.
  | They are estimated on a discrete k-point grid and not necessarily exact.
  | For converged numbers, create a DOS and/or band structure plot on a denser k-grid.

  Highest occupied state (VBM) at     -4.99884128 eV (relative to internal zero)
  | Occupation number:      1.21880226
  | K-point:     765 at    0.750000    0.083333    0.583333 (in units of recip. lattice)

  Lowest unoccupied state (CBM) at    -4.98096636 eV (relative to internal zero)
  | Occupation number:      0.81978581
  | K-point:     358 at    0.250000    0.583333    0.500000 (in units of recip. lattice)

  ESTIMATED overall HOMO-LUMO gap:      0.01787492 eV between HOMO at k-point 765 and LUMO at k-point 358
  | This appears to be an indirect band gap.
  | Smallest direct gap :      0.39585149 eV for k_point 565 at    0.250000    0.583333    0.500000 (in units of recip. lattice)
  However, this system has fractional occupation numbers. Since we use a finite k-point grid,
  this material is metallic within the approximate finite broadening function (occupation_type)
  applied to determine the occupation numbers.

  Total energy components:
  | Sum of eigenvalues            :        -163.81565217 Ha       -4457.65069828 eV
  | XC energy correction          :         -19.65120812 Ha        -534.73658003 eV
  | XC potential correction       :          25.96383043 Ha         706.51177303 eV
  | Free-atom electrostatic energy:        -132.17610589 Ha       -3596.69483918 eV
  | Hartree energy correction     :           0.39312162 Ha          10.69738363 eV
  | Entropy correction            :          -0.00003488 Ha          -0.00094914 eV
  | ---------------------------
  | Total energy                  :        -289.28601413 Ha       -7871.87296084 eV
  | Total energy, T -> 0          :        -289.28604901 Ha       -7871.87390997 eV  <-- do not rely on this value for anything but (periodic) metals
  | Electronic free energy        :        -289.28608389 Ha       -7871.87485911 eV

  Derived energy quantities:
  | Kinetic energy                :         289.33736224 Ha        7873.27021402 eV
  | Electrostatic energy          :        -558.97216824 Ha      -15210.40659483 eV
  | Energy correction for multipole
  | error in Hartree potential    :           0.00019405 Ha           0.00528041 eV
  | Sum of eigenvalues per atom                           :       -4457.65069828 eV
  | Total energy (T->0) per atom                          :       -7871.87390997 eV  <-- do not rely on this value for anything but (periodic) metals
  | Electronic free energy per atom                       :       -7871.87485911 eV

  Self-consistency convergence accuracy:
  | Change of charge density      :  0.2664E-06
  | Change of sum of eigenvalues  : -0.9024E-04 eV
  | Change of total energy        :  0.6381E-08 eV

  Preliminary charge convergence reached. Turning off preconditioner.

  Writing Kohn-Sham eigenvalues.
  K-point:       1 at    0.000000    0.000000    0.000000 (in units of recip. lattice)

  State    Occupation    Eigenvalue [Ha]    Eigenvalue [eV]
      1       2.00000         -65.533784        -1783.26500
      2       2.00000          -5.121533         -139.36401
      3       2.00000          -3.536423          -96.23096
      4       2.00000          -3.536423          -96.23096
      5       2.00000          -3.536423          -96.23096
      6       2.00000          -0.499734          -13.59845
      7       0.00000          -0.033615           -0.91471
      8       0.00000          -0.033615           -0.91471
      9       0.00000          -0.033615           -0.91471
     10       0.00000           0.173335            4.71668

  What follows are estimated values for band gap, HOMO, LUMO, etc.
  | They are estimated on a discrete k-point grid and not necessarily exact.
  | For converged numbers, create a DOS and/or band structure plot on a denser k-grid.

  Highest occupied state (VBM) at     -4.99884128 eV (relative to internal zero)
  | Occupation number:      1.21880226
  | K-point:     765 at    0.750000    0.083333    0.583333 (in units of recip. lattice)

  Lowest unoccupied state (CBM) at    -4.98096636 eV (relative to internal zero)
  | Occupation number:      0.81978581
  | K-point:     358 at    0.250000    0.583333    0.500000 (in units of recip. lattice)

  ESTIMATED overall HOMO-LUMO gap:      0.01787492 eV between HOMO at k-point 765 and LUMO at k-point 358
  | This appears to be an indirect band gap.
  | Smallest direct gap :      0.39585149 eV for k_point 565 at    0.250000    0.583333    0.500000 (in units of recip. lattice)
  However, this system has fractional occupation numbers. Since we use a finite k-point grid,
  this material is metallic within the approximate finite broadening function (occupation_type)
  applied to determine the occupation numbers.

  Self-consistency cycle converged.

  End self-consistency iteration #    11       :  max(cpu_time)    wall_clock(cpu1)
  | Time for this iteration                    :        0.647 s           0.648 s
  | Charge density update                      :        0.221 s           0.221 s
  | Density mixing                             :        0.017 s           0.017 s
  | Hartree multipole update                   :        0.000 s           0.000 s
  | Hartree multipole summation                :        0.166 s           0.166 s
  | Integration                                :        0.126 s           0.126 s
  | Solution of K.-S. eqns.                    :        0.117 s           0.118 s
  | Total energy evaluation                    :        0.000 s           0.000 s

  Partial memory accounting:
  | Current value for overall tracked memory usage on task 0  :           2.703 MB
  | Peak value for overall tracked memory usage on task 0     :           4.181 MB after allocating wave
  | Largest tracked array allocation on task 0 so far         :           2.500 MB  when allocating +KS_eigenvector_complex
  Note:  These values currently only include a subset of arrays which are explicitly tracked.
  The "true" memory usage will be greater.
------------------------------------------------------------

  Energy and forces in a compact form:
  | Total energy uncorrected      :         -0.787187296083578E+04 eV
  | Total energy corrected        :         -0.787187390997148E+04 eV  <-- do not rely on this value for anything but (periodic) metals
  | Electronic free energy        :         -0.787187485910718E+04 eV

  ------------------------------------ 
  Start decomposition of the XC Energy 
  ------------------------------------ 
  X and C from original XC functional choice 
  Hartree-Fock Energy :          0.000000000 Ha              0.000000000 eV
  X Energy            :        -18.593768269 Ha           -505.962177679 eV
  C Energy            :         -1.057439850 Ha            -28.774402350 eV
  Total XC Energy     :        -19.651208120 Ha           -534.736580029 eV
  ------------------------------------ 
  LDA X and C from self-consistent density 
  X Energy LDA        :        -18.593768269 Ha           -505.962177679 eV
  C Energy LDA        :         -1.057439850 Ha            -28.774402350 eV
  ------------------------------------ 
  End decomposition of the XC Energy 
  ------------------------------------ 

------------------------------------------------------------

------------------------------------------------------------------------------
  Final output of selected total energy values:

  The following output summarizes some interesting total energy values
  at the end of a run (AFTER all relaxation, molecular dynamics, etc.).

  | Total energy of the DFT / Hartree-Fock s.c.f. calculation      :          -7871.872960836 eV
  | Final zero-broadening corrected energy (caution - metals only) :          -7871.873909971 eV
  | For reference only, the value of 1 Hartree used in FHI-aims is :             27.211384500 eV

  Before relying on these values, please be sure to understand exactly which
  total energy value is referred to by a given number. Different objects may
  all carry the same name 'total energy'. Definitions:

  Total energy of the DFT / Hartree-Fock s.c.f. calculation:
  | Note that this energy does not include ANY quantities calculated after the
  | s.c.f. cycle, in particular not ANY RPA, MP2, etc. many-body perturbation terms.

  Final zero-broadening corrected energy:
  | For metallic systems only, a broadening of the occupation numbers at the Fermi
  | level can be extrapolated back to zero broadening by an electron-gas inspired
  | formula. For all systems that are not real metals, this value can be
  | meaningless and should be avoided.

------------------------------------------------------------------------------
  Methods described in the following list of references were used in this FHI-aims run.
  If you publish the results, please make sure to cite these reference if they apply.
  FHI-aims is an academic code, and for our developers (often, Ph.D. students
  and postdocs), scientific credit in the community is essential.
  Thank you for helping us!

  For any use of FHI-aims, please cite:

    Volker Blum, Ralf Gehrke, Felix Hanke, Paula Havu, Ville Havu,
    Xinguo Ren, Karsten Reuter, and Matthias Scheffler
    'Ab initio molecular simulations with numeric atom-centered orbitals'
    Computer Physics Communications 180, 2175-2196 (2009)
    http://dx.doi.org/10.1016/j.cpc.2009.06.022


  For the real-space grid partitioning and parallelization used in this calculation, please cite:

    Ville Havu, Volker Blum, Paula Havu, and Matthias Scheffler,
    'Efficient O(N) integration for all-electron electronic structure calculation'
    'using numerically tabulated basis functions'
    Journal of Computational Physics 228, 8367-8379 (2009).
    http://dx.doi.org/10.1016/j.jcp.2009.08.008

  Of course, there are many other important community references, e.g., those cited in the
  above references. Our list is limited to references that describe implementations in the
  FHI-aims code. The reason is purely practical (length of this list) - please credit others as well.

------------------------------------------------------------
          Leaving FHI-aims.
          Date     :  20190514, Time     :  123532.162

          Computational steps:
          | Number of self-consistency cycles          :           11
          | Number of SCF (re)initializations          :            1

          Detailed time accounting                     :  max(cpu_time)    wall_clock(cpu1)
          | Total time                                 :        7.784 s           7.806 s
          | Preparation time                           :        0.103 s           0.103 s
          | Boundary condition initalization           :        0.034 s           0.034 s
          | Grid partitioning                          :        0.010 s           0.010 s
          | Preloading free-atom quantities on grid    :        0.001 s           0.001 s
          | Free-atom superposition energy             :        0.009 s           0.010 s
          | Total time for integrations                :        1.611 s           1.614 s
          | Total time for solution of K.-S. equations :        1.549 s           1.554 s
          | Total time for density update              :        2.449 s           2.455 s
          | Total time for mixing & preconditioning    :        0.195 s           0.196 s
          | Total time for Hartree multipole update    :        0.004 s           0.004 s
          | Total time for Hartree multipole sum       :        1.774 s           1.777 s
          | Total time for total energy evaluation     :        0.002 s           0.002 s
          | Total time for scaled ZORA corrections     :        0.000 s           0.000 s

 This is a stub MPI_ALLREDUCE call.
 You should not be here. Check your
 setting on the use_mpi variable, or
 link against true MPI-libraries.
