------------------------------------------------------------
          Invoking FHI-aims ...
          Version 171221_1
          Compiled on 2019/05/06 at 14:26:40 on host ffph0xx.

          When using FHI-aims, please cite the following reference:

          Volker Blum, Ralf Gehrke, Felix Hanke, Paula Havu,
          Ville Havu, Xinguo Ren, Karsten Reuter, and Matthias Scheffler,
          'Ab Initio Molecular Simulations with Numeric Atom-Centered Orbitals',
          Computer Physics Communications 180, 2175-2196 (2009)

          For any questions about FHI-aims, please visit the aimsclub website
          with its forums and wiki. Contributions to both the forums and the
          wiki are warmly encouraged - they are for you, and everyone is welcome there.

------------------------------------------------------------



  Date     :  20190509, Time     :  175010.496
  Time zero on CPU 1             :   0.635000000000000E-03  s.
  Internal wall clock time zero  :           326656210.496  s.

  FHI-aims created a unique identifier for this run for later identification
  aims_uuid : AF263333-9DF7-4939-A3CD-2C0C2D6A0971


  Performing system and environment tests:
  *** Environment variable OMP_NUM_THREADS is not set
  *** For performance reasons you might want to set it to 1
  | Stacksize not measured: no C compiler

  Obtaining array dimensions for all initial allocations:
  
  -----------------------------------------------------------------------
  Parsing control.in (first pass over file, find array dimensions only).
  The contents of control.in will be repeated verbatim below
  unless switched off by setting 'verbatim_writeout .false.' .
  in the first line of control.in .
  -----------------------------------------------------------------------
  
  #--- method ---
  xc pw-lda
  spin none
  relativistic atomic_zora scalar
  #---
  
  #--- k-grid settings ---
  k_grid 3 3 3
  #---
  
  
  
  
  
  
  
  
  
  
  
  #-------------------------------------------------------------------------------
  #--- Species defaults for Si
  #-------------------------------------------------------------------------------
  
  ################################################################################
  #
  #  FHI-aims code project
  #  VB, Fritz-Haber Institut, 2009
  #
  #  Suggested "light" defaults for Si atom (to be pasted into control.in file)
  #  Be sure to double-check any results obtained with these settings for post-processing,
  #  e.g., with the "tight" defaults and larger basis sets.
  #
  ################################################################################
    species        Si
  #     global species definitions
      nucleus             14
      mass                28.0855
  #
      l_hartree           4
  #
      cut_pot             3.5          1.5  1.0
      basis_dep_cutoff    1e-4
  #
      radial_base         42 5.0
      radial_multiplier   1
      angular_grids       specified
        division   0.5866   50
        division   0.9616  110
        division   1.2249  194
        division   1.3795  302
  #      division   1.4810  434
  #      division   1.5529  590
  #      division   1.6284  770
  #      division   1.7077  974
  #      division   2.4068 1202
  #      outer_grid   974
        outer_grid 302
  ################################################################################
  #
  #  Definition of "minimal" basis
  #
  ################################################################################
  #     valence basis states
      valence      3  s   2.
      valence      3  p   2.
  #     ion occupancy
      ion_occ      3  s   1.
      ion_occ      3  p   1.
  ################################################################################
  #
  #  Suggested additional basis functions. For production calculations,
  #  uncomment them one after another (the most important basis functions are
  #  listed first).
  #
  #  Constructed for dimers: 1.75 A, 2.0 A, 2.25 A, 2.75 A, 3.75 A
  #
  ################################################################################
  #  "First tier" - improvements: -571.96 meV to -37.03 meV
       hydro 3 d 4.2
       hydro 2 p 1.4
  #     hydro 4 f 6.2
       ionic 3 s auto
  #  "Second tier" - improvements: -16.76 meV to -3.03 meV
  #     hydro 3 d 9
  #     hydro 5 g 9.4
  #     hydro 4 p 4
  #     hydro 1 s 0.65
  #  "Third tier" - improvements: -3.89 meV to -0.60 meV
  #     ionic 3 d auto
  #     hydro 3 s 2.6
  #     hydro 4 f 8.4
  #     hydro 3 d 3.4
  #     hydro 3 p 7.8
  #  "Fourth tier" - improvements: -0.33 meV to -0.11 meV
  #     hydro 2 p 1.6
  #     hydro 5 g 10.8
  #     hydro 5 f 11.2
  #     hydro 3 d 1
  #     hydro 4 s 4.5
  #  Further basis functions that fell out of the optimization - noise
  #  level... < -0.08 meV
  #     hydro 4 d 6.6
  #     hydro 5 g 16.4
  #     hydro 4 d 9
  
  -----------------------------------------------------------------------
  Completed first pass over input file control.in .
  -----------------------------------------------------------------------
  
  
  -----------------------------------------------------------------------
  Parsing geometry.in (first pass over file, find array dimensions only).
  The contents of geometry.in will be repeated verbatim below
  unless switched off by setting 'verbatim_writeout .false.' .
  in the first line of geometry.in .
  -----------------------------------------------------------------------
  
  lattice_vector   0.000000   2.650000   2.650000
  lattice_vector   2.650000   0.000000   2.650000
  lattice_vector   2.650000   2.650000   0.000000
  atom_frac   0.000000   0.000000   0.000000 Si
  atom_frac   0.250000   0.250000   0.250000 Si
  
  -----------------------------------------------------------------------
  Completed first pass over input file geometry.in .
  -----------------------------------------------------------------------
  

  Basic array size parameters:
  | Number of species                 :        1
  | Number of atoms                   :        2
  | Number of lattice vectors         :        3
  | Max. basis fn. angular momentum   :        2
  | Max. atomic/ionic basis occupied n:        3
  | Max. number of basis fn. types    :        3
  | Max. radial fns per species/type  :        5
  | Max. logarithmic grid size        :     1346
  | Max. radial integration grid size :       42
  | Max. angular integration grid size:      302
  | Max. angular grid division number :        8
  | Radial grid for Hartree potential :     1346
  | Number of spin channels           :        1

------------------------------------------------------------
          Reading file control.in.
------------------------------------------------------------
  XC: Using Perdew-Wang parametrisation of Ceperley-Alder LDA.
  Spin treatment: No spin polarisation.
  Scalar relativistic treatment of kinetic energy: on-site free-atom approximation to ZORA.
  Found k-point grid:         3         3         3

  Reading configuration options for species Si                  .
  | Found nuclear charge :  14.0000
  | Found atomic mass :    28.085500000000000      amu
  | Found l_max for Hartree potential  :   4
  | Found cutoff potl. onset [A], width [A], scale factor :    3.50000    1.50000    1.00000
  | Threshold for basis-dependent cutoff potential is   0.100000E-03
  | Found data for basic radial integration grid :    42 points, outermost radius =    5.000 A
  | Found multiplier for basic radial grid :   1
  | Found angular grid specification: user-specified.
  | Specified grid contains     5 separate shells.
  | Check grid settings after all constraints further below.
  | Found free-atom valence shell :  3 s   2.000
  | Found free-atom valence shell :  3 p   2.000
  | Found free-ion valence shell :  3 s   1.000
  | Found free-ion valence shell :  3 p   1.000
  | Found hydrogenic basis function :  3 d   4.200
  | Found hydrogenic basis function :  2 p   1.400
  | Found ionic basis function :  3 s , default cutoff radius.
  Species Si                  : Missing cutoff potential type.
  Defaulting to exp(1/x)/(1-x)^2 type cutoff potential.
  Species Si: No 'logarithmic' tag. Using default grid for free atom:
  | Default logarithmic grid data [bohr] : 0.1000E-03 0.1000E+03 0.1012E+01
  | Will include ionic basis functions of  2.0-fold positive Si                   ion.
  Species Si: On-site basis accuracy parameter (for Gram-Schmidt orthonormalisation) not specified.
  Using default value basis_acc =  0.1000000E-03.
  Species Si                  : Using default innermost maximum threshold i_radial=  2 for radial functions.
  Species Si                  : Default cutoff onset for free atom density etc. : 0.35000000E+01 AA.
  Species Si                  : Basic radial grid will be enhanced according to radial_multiplier =   1, to contain    42 grid points.

  Finished reading input file 'control.in'. Consistency checks are next.

  MPI_IN_PLACE appears to work with this MPI implementation.
  | Keeping use_mpi_in_place .true. (see manual).
  Target number of points in a grid batch is not set. Defaulting to  100
  Method for grid partitioning is not set. Defaulting to 'maxmin' partitioning.
  Batch size limit is not set. Defaulting to    200
  By default, will store active basis functions for each batch.
  If in need of memory, prune_basis_once .false. can be used to disable this option.
  communication_type for Hartree potential was not specified.
  Defaulting to calc_hartree .
 * Attention: 
 * You may want to set distributed_spline_storage to .true. in order to save memory.
 * This doesn't harm performance and is perfectly ok unless:
 * - you get error messages in postprocessing (about missing atoms in get_rho_multipole_spl)
 * - you need full spline storage in hirshfeld_analysis
  Defaulting to Pulay charge density mixer.
  Pulay mixer: Number of relevant iterations not set.
  Defaulting to    8 iterations.
  Pulay mixer: Number of initial linear mixing iterations not set.
  Defaulting to    0 iterations.
  Work space size for distributed Hartree potential not set.
  Defaulting to   0.200000E+03 MB.
  Mixing parameter for charge density mixing has not been set.
  Using default: charge_mix_param =     0.0500.
  The mixing parameter will be adjusted in iteration number     2 of the first full s.c.f. cycle only.
  Algorithm-dependent basis array size parameters:
  | n_max_pulay                         :        8
 * Notice: The s.c.f. convergence criterion sc_accuracy_rho was not provided.
 * We used to stop in this case, and ask the user to provide reasonable
 * scf convergence criteria. However, this led some users to employ criteria
 * that led to extremely long run times, e.g., for simple relaxation.
 * We now preset a default value for sc_accuracy_rho if it is not set.
 * You may still wish to check if this setting is too tight or too loose for your needs.
 * Based on n_atoms, FHI-aims chose sc_accuracy_rho =  0.100000E-05 .
  Maximum number of self-consistency iterations not provided.
  Presetting  1000 iterations.
  Presetting      1001 iterations before the initial mixing cycle
  is restarted anyway using the sc_init_iter criterion / keyword.
  Presetting a factor      1.000 between actual scf density residual
  and density convergence criterion sc_accuracy_rho below which sc_init_iter
  takes no effect.
 * No s.c.f. convergence criteria (sc_accuracy_*) were provided in control.in.
 * The run will proceed with a reasonable default guess, but please check whether.
 * the s.c.f. cycles seem to take too much or too little time.
  Calculation of forces was not defined in control.in. No forces will be calculated.
  Geometry relaxation not requested: no relaxation will be performed.
  No accuracy limit for integral partition fn. given. Defaulting to  0.1000E-14.
  No threshold value for u(r) in integrations given. Defaulting to  0.1000E-05.
  No occupation type (smearing scheme) given. Defaulting to Gaussian broadening, width =  0.1000E-01 eV.
  The width will be adjusted in iteration number     2 of the first full s.c.f. cycle only.
  S.C.F. convergence parameters will be adjusted in iteration number     2 of the first full s.c.f. cycle only.
  No accuracy for occupation numbers given. Defaulting to  0.1000E-12.
  No threshold value for occupation numbers given. Defaulting to  0.0000E+00.
  No accuracy for fermi level given. Defaulting to  0.1000E-19.
  Maximum # of iterations to find E_F not set. Defaulting to  200.
  Preferred method for the eigenvalue solver ('KS_method') not specified in 'control.in'.
  Defaulting to serial version, 'lapack_fast'.
  Will not use alltoall communication since running on < 1024 CPUs.
  Threshold for basis singularities not set.
  Default threshold for basis singularities:  0.1000E-04
  partition_type (choice of integration weights) for integrals was not specified.
  | Using a version of the partition function of Stratmann and coworkers ('stratmann_smoother').
  | At each grid point, the set of atoms used to build the partition table is smoothly restricted to
  | only those atoms whose free-atom density would be non-zero at that grid point.
  Partitioning for Hartree potential was not defined. Using partition_type for integrals.
  | Adjusted default value of keyword multip_moments_threshold to:       0.10000000E-11
  | This value may affect high angular momentum components of the Hartree potential in periodic systems.
  Angular momentum expansion for Kerker preconditioner not set explicitly.
  | Using default value of   0
  No explicit requirement for turning off preconditioner.
  | By default, it will be turned off when the charge convergence reaches
  | sc_accuracy_rho  =   0.100000E-05
  No special mixing parameter while Kerker preconditioner is on.
  Using default: charge_mix_param =     0.0500.
  No q(lm)/r^(l+1) cutoff set for long-range Hartree potential.
  | Using default value of  0.100000E-09 .
  | Verify using the multipole_threshold keyword.
  Defaulting to new monopole extrapolation.
  Density update method: automatic selection selected.
  Using density matrix based charge density update.
  Using density matrix based charge density update.
  Using packed matrix style: index .
  Defaulting to use time-reversal symmetry for k-point grid.
------------------------------------------------------------


------------------------------------------------------------
          Reading geometry description geometry.in.
------------------------------------------------------------
  Input structure read successfully.
  The structure contains        2 atoms,  and a total of         28.000 electrons.

  Input geometry:
  | Unit cell:
  |        0.00000000        2.65000000        2.65000000
  |        2.65000000        0.00000000        2.65000000
  |        2.65000000        2.65000000        0.00000000
  | Atomic structure:
  |       Atom                x [A]            y [A]            z [A]
  |    1: Species Si            0.00000000        0.00000000        0.00000000
  |    2: Species Si            1.32500000        1.32500000        1.32500000

  Lattice parameters for 3D lattice (in Angstroms) :     3.747666    3.747666    3.747666
  Angle(s) between unit vectors (in degrees)      :    60.000000   60.000000   60.000000

  |

  | The smallest distance between any two atoms is         2.29496732 AA.
  |
  | The first atom of this pair is atom number                      1 .
  | The second atom of this pair is atom number                     2 .
  | Wigner-Seitz cell of the first atom image           0     0     0 .
  | (The Wigner-Seitz cell of the second atom is 0 0 0  by definition.)

  Quantities derived from the lattice vectors:
  | Reciprocal lattice vector 1: -1.185507  1.185507  1.185507
  | Reciprocal lattice vector 2:  1.185507 -1.185507  1.185507
  | Reciprocal lattice vector 3:  1.185507  1.185507 -1.185507
  | Unit cell volume                               :   0.372192E+02  A^3

  Range separation radius for Ewald summation (hartree_convergence_parameter):      3.78530813 bohr.

  Fractional coordinates:
                         L1                L2                L3
       atom_frac         0.00000000        0.00000000        0.00000000  Si
       atom_frac         0.25000000        0.25000000        0.25000000  Si

  Number of empty states per atom not set in control.in - providing a guess from actual geometry.
  | Total number of empty states used during s.c.f. cycle:        6
  If you use a very high smearing, use empty_states (per atom!) in control.in to increase this value.

  Structure-dependent array size parameters: 
  | Maximum number of distinct radial functions  :        8
  | Maximum number of basis functions            :       36
  | Number of Kohn-Sham states (occupied + empty):       20
------------------------------------------------------------

------------------------------------------------------------
          Preparing all fixed parts of the calculation.
------------------------------------------------------------
  Determining machine precision:
     2.2250738585072014E-308
  Setting up grids for atomic and cluster calculations.

  Creating wave function, potential, and density for free atoms.

  Species: Si

  List of occupied orbitals and eigenvalues:
    n    l              occ      energy [Ha]    energy [eV]
    1    0           2.0000       -65.491668     -1782.1190
    2    0           2.0000        -5.087967      -138.4506
    3    0           2.0000        -0.391471       -10.6525
    2    1           6.0000        -3.502246       -95.3010
    3    1           2.0000        -0.143943        -3.9169

  Creating fixed part of basis set: Ionic, confined, hydrogenic.

  Si                   ion:

  List of free ionic orbitals and eigenvalues:
    n    l      energy [Ha]    energy [eV]
    1    0       -66.364436     -1805.8682
    2    0        -5.935799      -161.5213
    3    0        -1.078166       -29.3384
    2    1        -4.351123      -118.4001
    3    1        -0.781733       -21.2720


  List of ionic basis orbitals and eigenvalues:
    n    l      energy [Ha]    energy [eV]    outer radius [A]
    3    0        -1.078146       -29.3378       4.214062


  Si                   hydrogenic:

  List of hydrogenic basis orbitals: 
    n    l      effective z      eigenvalue [eV]  inner max. [A]     outer max. [A]     outer radius [A]   
    3    2         4.200000       -26.6624           1.139231           1.139231           4.534782
    2    1         1.400000        -6.4613           1.472672           1.472672           4.590560


  Adding cutoff potential to free-atom effective potential.
  Creating atomic-like basis functions for current effective potential.

  Species Si                  :

  List of atomic basis orbitals and eigenvalues:
    n    l      energy [Ha]    energy [eV]    outer radius [A]
    1    0       -65.491668     -1782.1190       0.789468
    2    0        -5.087967      -138.4506       2.815114
    3    0        -0.391471       -10.6525       4.534782
    2    1        -3.502246       -95.3010       3.259919
    3    1        -0.143943        -3.9169       4.590560

  Assembling full basis from fixed parts.
  | Species Si :   atomic orbital   1 s accepted.
  | Species Si :   atomic orbital   2 s accepted.
  | Species Si :    ionic orbital   3 s accepted.
  | Species Si :   atomic orbital   3 s accepted.
  | Species Si :   atomic orbital   2 p accepted.
  | Species Si :   atomic orbital   3 p accepted.
  | Species Si :    hydro orbital   2 p accepted.
  | Species Si :    hydro orbital   3 d accepted.

  Basis size parameters after reduction:
  | Total number of radial functions:        8
  | Total number of basis functions :       36

  Per-task memory consumption for arrays in subroutine allocate_ext:
  |           2.757868MB.
  Testing on-site integration grid accuracy.
  |  Species  Function  <phi|h_atom|phi> (log., in eV)  <phi|h_atom|phi> (rad., in eV)
           1        1              -1782.1189727076              -1782.1182429251
           1        2               -138.4506350693               -138.4506310079
           1        3                -10.3030408815                -10.3029120678
           1        4                  5.0238999146                  4.9457540310 ***
           1        5                -95.3009689499                -95.3009689315
           1        6                 -3.9266496564                 -3.9420918374
           1        7                  6.3453628447                  6.1632372158 ***
           1        8                  6.2883050744                  6.2861881409
 * Note: Onsite integrals marked "***" above are less accurate than
 * onsite_accuracy_threshold =    0.03000 eV. Usually, this is harmless.
 * When in doubt, tighten the "radial" and/or "radial_multiplier" flags to check.

  Preparing densities etc. for the partition functions (integrals / Hartree potential).

  Preparations completed.
  max(cpu_time)          :      0.103 s.
  Wall clock time (cpu1) :      0.103 s.
------------------------------------------------------------

------------------------------------------------------------
          Begin self-consistency loop: Initialization.

          Date     :  20190509, Time     :  175010.600
------------------------------------------------------------

  Initializing index lists of integration centers etc. from given atomic structure:
  Mapping all atomic coordinates to central unit cell.

  Initializing the k-points
          Using symmetry for reducing the k-points
  | k-points reduced from:       27 to       14
  | Number of k-points                             :        14
  The eigenvectors in the calculations are COMPLEX.
  | K-points in task   0:        14
  | Number of basis functions in the Hamiltonian integrals :      1472
  | Number of basis functions in a single unit cell        :        36
  | Number of centers in hartree potential         :       732
  | Number of centers in hartree multipole         :       324
  | Number of centers in electron density summation:       228
  | Number of centers in basis integrals           :       228
  | Number of centers in integrals                 :       101
  | Number of centers in hamiltonian               :       228
  | Consuming         31 KiB for k_phase.
  | Number of super-cells (origin) [n_cells]                     :        2197
  | Number of super-cells (after PM_index) [n_cells]             :         142
  | Number of super-cells in hamiltonian [n_cells_in_hamiltonian]:         142
  | Size of matrix packed + index [n_hamiltonian_matrix_size] :       45735
  Partitioning the integration grid into batches with maxmin method.
  | Maximal weight for a single point:     1.000
  | Minimal weight for a single point:     0.683
  | Number of batches:      128
  | Maximal batch size:      90
  | Minimal batch size:      85
  | Average batch size:      87.562
  | Standard deviation of batch sizes:       1.504
  Initializing partition tables, free-atom densities, potentials, etc. across the integration grid (initialize_grid_storage).
  | initialize_grid_storage: Actual outermost partition radius vs. multipole_radius_free
  | (-- VB: in principle, multipole_radius_free should be larger, hence this output)
  | Species        1: Confinement radius =              4.999999999999999 AA, multipole_radius_free =              5.000694715736543 AA.
  | Species        1: outer_partition_radius set to              5.000694715736543 AA .
  | Original list of interatomic distances with         228 x        228 entries is created.
  | Net number of integration points:    11208
  | of which are non-zero points    :     9628
  | Numerical average free-atom electrostatic potential    :    -14.13935356 eV
  Renormalizing the initial density to the exact electron count on the 3D integration grid.
  | Initial density: Formal number of electrons (from input files) :      28.0000000000
  | Integrated number of electrons on 3D grid     :      28.0057615993
  | Charge integration error                      :       0.0057615993
  | Normalization factor for density and gradient :       0.9997942709
  Obtaining max. number of non-zero basis functions in each batch (get_n_compute_maxes).
  | Maximal number of non-zero basis functions:      515 in task     0
  Allocating        0.161 MB for KS_eigenvector_complex
  Integrating Hamiltonian matrix: batch-based integration.
  Time summed over all CPUs for integration: real work        0.656 s, elapsed        0.656 s
  Integrating overlap matrix.
  Time summed over all CPUs for integration: real work        0.503 s, elapsed        0.503 s
  Decreasing sparse matrix size:
   Tolerance:   9.9999998245167004E-014
   Hamiltonian matrix
  | Array has    39826 nonzero elements out of    45735 elements
  | Sparsity factor is 0.129
   Overlap matrix
  | Array has    36980 nonzero elements out of    45735 elements
  | Sparsity factor is 0.191
  New size of hamiltonian matrix:       40083

  Updating Kohn-Sham eigenvalues, eigenvectors, occupation numbers, and Fermi level.
  Solving generalized eigenproblem
  Transforming overlap matrix and checking for singularities.
  Overlap matrix is nonsingular at first k-point:
  | Lowest eigenvalue:  0.329719E-02

  Obtaining occupation numbers and chemical potential using ELSI.
  | Chemical potential (Fermi level):    -6.12224378eV
  Writing Kohn-Sham eigenvalues.
  K-point:       1 at    0.000000    0.000000    0.000000 (in units of recip. lattice)

  State    Occupation    Eigenvalue [Ha]    Eigenvalue [eV]
      1       2.00000         -65.518014        -1782.83586
      2       2.00000         -65.518014        -1782.83586
      3       2.00000          -5.120335         -139.33139
      4       2.00000          -5.119906         -139.31973
      5       2.00000          -3.534630          -96.18217
      6       2.00000          -3.534630          -96.18217
      7       2.00000          -3.534630          -96.18217
      8       2.00000          -3.533774          -96.15889
      9       2.00000          -3.533774          -96.15889
     10       2.00000          -3.533774          -96.15889
     11       2.00000          -0.691645          -18.82063
     12       2.00000          -0.239507           -6.51731
     13       2.00000          -0.239507           -6.51731
     14       2.00000          -0.239507           -6.51731
     15       0.00000          -0.133228           -3.62531
     16       0.00000          -0.133228           -3.62531
     17       0.00000          -0.133228           -3.62531
     18       0.00000          -0.083928           -2.28380
     19       0.00000           0.060797            1.65436
     20       0.00000           0.060797            1.65436

  What follows are estimated values for band gap, HOMO, LUMO, etc.
  | They are estimated on a discrete k-point grid and not necessarily exact.
  | For converged numbers, create a DOS and/or band structure plot on a denser k-grid.

  Highest occupied state (VBM) at     -6.51730867 eV (relative to internal zero)
  | Occupation number:      2.00000000
  | K-point:       1 at    0.000000    0.000000    0.000000 (in units of recip. lattice)

  Lowest unoccupied state (CBM) at    -5.56625320 eV (relative to internal zero)
  | Occupation number:      0.00000000
  | K-point:       5 at    0.000000    0.666667    0.666667 (in units of recip. lattice)

  ESTIMATED overall HOMO-LUMO gap:      0.95105547 eV between HOMO at k-point 1 and LUMO at k-point 5
  | This appears to be an indirect band gap.
  | Smallest direct gap :      2.89199802 eV for k_point 1 at    0.000000    0.666667    0.666667 (in units of recip. lattice)
  The gap value is above 0.2 eV. Unless you are using a very sparse k-point grid,
  this system is most likely an insulator or a semiconductor.
  Calculating total energy contributions from superposition of free atom densities.

  Total energy components:
  | Sum of eigenvalues            :        -328.37313429 Ha       -8935.48761674 eV
  | XC energy correction          :         -39.70109986 Ha       -1080.32189332 eV
  | XC potential correction       :          52.45126410 Ha        1427.27151502 eV
  | Free-atom electrostatic energy:        -263.09762940 Ha       -7159.25075475 eV
  | Hartree energy correction     :          -0.00000000 Ha          -0.00000000 eV
  | Entropy correction            :          -0.00000000 Ha          -0.00000000 eV
  | ---------------------------
  | Total energy                  :        -578.72059945 Ha      -15747.78874979 eV
  | Total energy, T -> 0          :        -578.72059945 Ha      -15747.78874979 eV  <-- do not rely on this value for anything but (periodic) metals
  | Electronic free energy        :        -578.72059945 Ha      -15747.78874979 eV

  Derived energy quantities:
  | Kinetic energy                :         579.83979925 Ha       15778.24372570 eV
  | Electrostatic energy          :       -1118.85929884 Ha      -30445.71058217 eV
  | Energy correction for multipole
  | error in Hartree potential    :           0.00000000 Ha           0.00000000 eV
  | Sum of eigenvalues per atom                           :       -4467.74380837 eV
  | Total energy (T->0) per atom                          :       -7873.89437490 eV  <-- do not rely on this value for anything but (periodic) metals
  | Electronic free energy per atom                       :       -7873.89437490 eV
  Initialize hartree_potential_storage
  Max. number of atoms included in rho_multipole:            2

  End scf initialization - timings             :  max(cpu_time)    wall_clock(cpu1)
  | Time for scf. initialization               :        1.470 s           1.470 s
  | Boundary condition initialization          :        0.038 s           0.038 s
  | Integration                                :        1.159 s           1.159 s
  | Solution of K.-S. eqns.                    :        0.018 s           0.018 s
  | Grid partitioning                          :        0.036 s           0.036 s
  | Preloading free-atom quantities on grid    :        0.001 s           0.001 s
  | Free-atom superposition energy             :        0.035 s           0.035 s
  | Total energy evaluation                    :        0.000 s           0.000 s

  Partial memory accounting:
  | Current value for overall tracked memory usage on task 0  :           0.963 MB
  | Peak value for overall tracked memory usage on task 0     :           4.310 MB after allocating wave
  | Largest tracked array allocation on task 0 so far         :           2.122 MB  when allocating hamiltonian_shell
  Note:  These values currently only include a subset of arrays which are explicitly tracked.
  The "true" memory usage will be greater.
------------------------------------------------------------

------------------------------------------------------------
          Begin self-consistency iteration #    1

  Date     :  20190509, Time     :  175012.070
------------------------------------------------------------
  Evaluating new KS density using the density matrix
  Evaluating density matrix
  Time summed over all CPUs for getting density from density matrix: real work        1.104 s, elapsed        1.104 s
  Integration grid: deviation in total charge (<rho> - N_e) =  -3.552714E-14
  Pulay mixing of updated and previous charge densities.

  Evaluating partitioned Hartree potential by multipole expansion.
  | Analytical far-field extrapolation by fixed multipoles:
  | Hartree multipole sum: apparent total charge =   0.596240E-02
  Summing up the Hartree potential.
  | Estimated reciprocal-space cutoff momentum G_max:         2.46938261 bohr^-1 .
  | Reciprocal lattice points for long-range Hartree potential:      58
  Time summed over all CPUs for potential: real work        0.373 s, elapsed        0.373 s
  | RMS charge density error from multipole expansion :   0.692753E-03
  | Average real-space part of the electrostatic potential :     -0.00035308 eV

  Integrating Hamiltonian matrix: batch-based integration.
  Time summed over all CPUs for integration: real work        0.757 s, elapsed        0.757 s

  Updating Kohn-Sham eigenvalues, eigenvectors, occupation numbers, and Fermi level.
  Solving generalized eigenproblem

  Obtaining occupation numbers and chemical potential using ELSI.
  | Chemical potential (Fermi level):    -6.09682599eV
  Writing Kohn-Sham eigenvalues.
  K-point:       1 at    0.000000    0.000000    0.000000 (in units of recip. lattice)

  State    Occupation    Eigenvalue [Ha]    Eigenvalue [eV]
      1       2.00000         -65.520956        -1782.91591
      2       2.00000         -65.520956        -1782.91591
      3       2.00000          -5.120456         -139.33471
      4       2.00000          -5.120028         -139.32306
      5       2.00000          -3.534839          -96.18786
      6       2.00000          -3.534839          -96.18786
      7       2.00000          -3.534839          -96.18786
      8       2.00000          -3.533986          -96.16464
      9       2.00000          -3.533986          -96.16464
     10       2.00000          -3.533986          -96.16464
     11       2.00000          -0.690932          -18.80121
     12       2.00000          -0.238467           -6.48900
     13       2.00000          -0.238467           -6.48900
     14       2.00000          -0.238467           -6.48900
     15       0.00000          -0.132714           -3.61133
     16       0.00000          -0.132714           -3.61133
     17       0.00000          -0.132714           -3.61133
     18       0.00000          -0.082989           -2.25824
     19       0.00000           0.061395            1.67064
     20       0.00000           0.061395            1.67064

  What follows are estimated values for band gap, HOMO, LUMO, etc.
  | They are estimated on a discrete k-point grid and not necessarily exact.
  | For converged numbers, create a DOS and/or band structure plot on a denser k-grid.

  Highest occupied state (VBM) at     -6.48900492 eV (relative to internal zero)
  | Occupation number:      2.00000000
  | K-point:       1 at    0.000000    0.000000    0.000000 (in units of recip. lattice)

  Lowest unoccupied state (CBM) at    -5.55725769 eV (relative to internal zero)
  | Occupation number:      0.00000000
  | K-point:       9 at    0.333333    0.333333    0.000000 (in units of recip. lattice)

  ESTIMATED overall HOMO-LUMO gap:      0.93174723 eV between HOMO at k-point 1 and LUMO at k-point 9
  | This appears to be an indirect band gap.
  | Smallest direct gap :      2.87767055 eV for k_point 1 at    0.333333    0.333333    0.000000 (in units of recip. lattice)
  The gap value is above 0.2 eV. Unless you are using a very sparse k-point grid,
  this system is most likely an insulator or a semiconductor.

  Total energy components:
  | Sum of eigenvalues            :        -328.38148288 Ha       -8935.71479324 eV
  | XC energy correction          :         -39.70516178 Ha       -1080.43242370 eV
  | XC potential correction       :          52.45662488 Ha        1427.41738909 eV
  | Free-atom electrostatic energy:        -263.09762940 Ha       -7159.25075475 eV
  | Hartree energy correction     :           0.00800490 Ha           0.21782453 eV
  | Entropy correction            :          -0.00000000 Ha          -0.00000000 eV
  | ---------------------------
  | Total energy                  :        -578.71964428 Ha      -15747.76275808 eV
  | Total energy, T -> 0          :        -578.71964428 Ha      -15747.76275808 eV  <-- do not rely on this value for anything but (periodic) metals
  | Electronic free energy        :        -578.71964428 Ha      -15747.76275808 eV

  Derived energy quantities:
  | Kinetic energy                :         579.68956785 Ha       15774.15572154 eV
  | Electrostatic energy          :       -1118.70405036 Ha      -30441.48605592 eV
  | Energy correction for multipole
  | error in Hartree potential    :           0.00094667 Ha           0.02576022 eV
  | Sum of eigenvalues per atom                           :       -4467.85739662 eV
  | Total energy (T->0) per atom                          :       -7873.88137904 eV  <-- do not rely on this value for anything but (periodic) metals
  | Electronic free energy per atom                       :       -7873.88137904 eV

  Self-consistency convergence accuracy:
  | Change of charge density      :  0.1275E+00
  | Change of sum of eigenvalues  : -0.2272E+00 eV
  | Change of total energy        :  0.2599E-01 eV

  End self-consistency iteration #     1       :  max(cpu_time)    wall_clock(cpu1)
  | Time for this iteration                    :        2.295 s           2.295 s
  | Charge density update                      :        1.105 s           1.105 s
  | Density mixing & preconditioning           :        0.047 s           0.047 s
  | Hartree multipole update                   :        0.001 s           0.001 s
  | Hartree multipole summation                :        0.376 s           0.376 s
  | Integration                                :        0.757 s           0.757 s
  | Solution of K.-S. eqns.                    :        0.008 s           0.008 s
  | Total energy evaluation                    :        0.000 s           0.000 s

  Partial memory accounting:
  | Current value for overall tracked memory usage on task 0  :           0.963 MB
  | Peak value for overall tracked memory usage on task 0     :           4.310 MB after allocating wave
  | Largest tracked array allocation on task 0 so far         :           2.122 MB  when allocating hamiltonian_shell
  Note:  These values currently only include a subset of arrays which are explicitly tracked.
  The "true" memory usage will be greater.
------------------------------------------------------------

------------------------------------------------------------
          Begin self-consistency iteration #    2

  Date     :  20190509, Time     :  175014.365
------------------------------------------------------------
  Evaluating new KS density using the density matrix
  Evaluating density matrix
  Time summed over all CPUs for getting density from density matrix: real work        1.168 s, elapsed        1.168 s
  Integration grid: deviation in total charge (<rho> - N_e) =   1.776357E-14
  Pulay mixing of updated and previous charge densities.

  Evaluating partitioned Hartree potential by multipole expansion.
  | Analytical far-field extrapolation by fixed multipoles:
  | Hartree multipole sum: apparent total charge =   0.966151E-02
  Summing up the Hartree potential.
  Time summed over all CPUs for potential: real work        0.445 s, elapsed        0.445 s
  | RMS charge density error from multipole expansion :   0.135653E-01
  | Average real-space part of the electrostatic potential :      0.47425891 eV

  Integrating Hamiltonian matrix: batch-based integration.
  Time summed over all CPUs for integration: real work        0.680 s, elapsed        0.680 s

  Updating Kohn-Sham eigenvalues, eigenvectors, occupation numbers, and Fermi level.
  Solving generalized eigenproblem

  Obtaining occupation numbers and chemical potential using ELSI.
  | Chemical potential (Fermi level):    -5.54757964eV
  What follows are estimated values for band gap, HOMO, LUMO, etc.
  | They are estimated on a discrete k-point grid and not necessarily exact.
  | For converged numbers, create a DOS and/or band structure plot on a denser k-grid.

  Highest occupied state (VBM) at     -5.76675156 eV (relative to internal zero)
  | Occupation number:      2.00000000
  | K-point:       1 at    0.000000    0.000000    0.000000 (in units of recip. lattice)

  Lowest unoccupied state (CBM) at    -5.32857106 eV (relative to internal zero)
  | Occupation number:      0.00000000
  | K-point:       5 at    0.000000    0.666667    0.666667 (in units of recip. lattice)

  ESTIMATED overall HOMO-LUMO gap:      0.43818050 eV between HOMO at k-point 1 and LUMO at k-point 5
  | This appears to be an indirect band gap.
  | Smallest direct gap :      2.51784494 eV for k_point 1 at    0.000000    0.666667    0.666667 (in units of recip. lattice)
  The gap value is above 0.2 eV. Unless you are using a very sparse k-point grid,
  this system is most likely an insulator or a semiconductor.

  Checking to see if s.c.f. parameters should be adjusted.
  The system likely has a gap. Increased the default Pulay mixing parameter (charge_mix_param). Value:   0.200000 .
  Kept the default occupation width. Value:   0.010000 eV.

  Total energy components:
  | Sum of eigenvalues            :        -327.20801191 Ha       -8903.78302365 eV
  | XC energy correction          :         -39.79621885 Ha       -1082.91021280 eV
  | XC potential correction       :          52.57674890 Ha        1430.68613008 eV
  | Free-atom electrostatic energy:        -263.09762940 Ha       -7159.25075475 eV
  | Hartree energy correction     :          -1.18524301 Ha         -32.25210321 eV
  | Entropy correction            :          -0.00000000 Ha          -0.00000000 eV
  | ---------------------------
  | Total energy                  :        -578.71035428 Ha      -15747.50996433 eV
  | Total energy, T -> 0          :        -578.71035428 Ha      -15747.50996433 eV  <-- do not rely on this value for anything but (periodic) metals
  | Electronic free energy        :        -578.71035428 Ha      -15747.50996433 eV

  Derived energy quantities:
  | Kinetic energy                :         580.15710454 Ha       15786.87804217 eV
  | Electrostatic energy          :       -1119.07123997 Ha      -30451.47779370 eV
  | Energy correction for multipole
  | error in Hartree potential    :           0.01850633 Ha           0.50358282 eV
  | Sum of eigenvalues per atom                           :       -4451.89151182 eV
  | Total energy (T->0) per atom                          :       -7873.75498216 eV  <-- do not rely on this value for anything but (periodic) metals
  | Electronic free energy per atom                       :       -7873.75498216 eV

  Self-consistency convergence accuracy:
  | Change of charge density      :  0.1211E+00
  | Change of sum of eigenvalues  :  0.3193E+02 eV
  | Change of total energy        :  0.2528E+00 eV

  End self-consistency iteration #     2       :  max(cpu_time)    wall_clock(cpu1)
  | Time for this iteration                    :        2.351 s           2.351 s
  | Charge density update                      :        1.169 s           1.169 s
  | Density mixing & preconditioning           :        0.045 s           0.045 s
  | Hartree multipole update                   :        0.001 s           0.001 s
  | Hartree multipole summation                :        0.448 s           0.448 s
  | Integration                                :        0.680 s           0.680 s
  | Solution of K.-S. eqns.                    :        0.008 s           0.008 s
  | Total energy evaluation                    :        0.000 s           0.000 s

  Partial memory accounting:
  | Current value for overall tracked memory usage on task 0  :           0.964 MB
  | Peak value for overall tracked memory usage on task 0     :           4.310 MB after allocating wave
  | Largest tracked array allocation on task 0 so far         :           2.122 MB  when allocating hamiltonian_shell
  Note:  These values currently only include a subset of arrays which are explicitly tracked.
  The "true" memory usage will be greater.
------------------------------------------------------------

------------------------------------------------------------
          Begin self-consistency iteration #    3

  Date     :  20190509, Time     :  175016.716
------------------------------------------------------------
  Evaluating new KS density using the density matrix
  Evaluating density matrix
  Time summed over all CPUs for getting density from density matrix: real work        1.238 s, elapsed        1.238 s
  Integration grid: deviation in total charge (<rho> - N_e) =  -7.105427E-15
  Pulay mixing of updated and previous charge densities.

  Evaluating partitioned Hartree potential by multipole expansion.
  | Analytical far-field extrapolation by fixed multipoles:
  | Hartree multipole sum: apparent total charge =   0.938536E-02
  Summing up the Hartree potential.
  Time summed over all CPUs for potential: real work        0.440 s, elapsed        0.440 s
  | RMS charge density error from multipole expansion :   0.134788E-01
  | Average real-space part of the electrostatic potential :      0.46281703 eV

  Integrating Hamiltonian matrix: batch-based integration.
  Time summed over all CPUs for integration: real work        0.688 s, elapsed        0.688 s

  Updating Kohn-Sham eigenvalues, eigenvectors, occupation numbers, and Fermi level.
  Solving generalized eigenproblem

  Obtaining occupation numbers and chemical potential using ELSI.
  | Chemical potential (Fermi level):    -5.57002476eV
  What follows are estimated values for band gap, HOMO, LUMO, etc.
  | They are estimated on a discrete k-point grid and not necessarily exact.
  | For converged numbers, create a DOS and/or band structure plot on a denser k-grid.

  Highest occupied state (VBM) at     -5.78704368 eV (relative to internal zero)
  | Occupation number:      2.00000000
  | K-point:       1 at    0.000000    0.000000    0.000000 (in units of recip. lattice)

  Lowest unoccupied state (CBM) at    -5.33446053 eV (relative to internal zero)
  | Occupation number:      0.00000000
  | K-point:       5 at    0.000000    0.666667    0.666667 (in units of recip. lattice)

  ESTIMATED overall HOMO-LUMO gap:      0.45258315 eV between HOMO at k-point 1 and LUMO at k-point 5
  | This appears to be an indirect band gap.
  | Smallest direct gap :      2.52712867 eV for k_point 1 at    0.000000    0.666667    0.666667 (in units of recip. lattice)
  The gap value is above 0.2 eV. Unless you are using a very sparse k-point grid,
  this system is most likely an insulator or a semiconductor.

  Total energy components:
  | Sum of eigenvalues            :        -327.24900935 Ha       -8904.89862061 eV
  | XC energy correction          :         -39.79347428 Ha       -1082.83552925 eV
  | XC potential correction       :          52.57312797 Ha        1430.58759952 eV
  | Free-atom electrostatic energy:        -263.09762940 Ha       -7159.25075475 eV
  | Hartree energy correction     :          -1.14323447 Ha         -31.10899267 eV
  | Entropy correction            :          -0.00000000 Ha          -0.00000000 eV
  | ---------------------------
  | Total energy                  :        -578.71021953 Ha      -15747.50629777 eV
  | Total energy, T -> 0          :        -578.71021953 Ha      -15747.50629777 eV  <-- do not rely on this value for anything but (periodic) metals
  | Electronic free energy        :        -578.71021953 Ha      -15747.50629777 eV

  Derived energy quantities:
  | Kinetic energy                :         580.13801585 Ha       15786.35861233 eV
  | Electrostatic energy          :       -1119.05476110 Ha      -30451.02938084 eV
  | Energy correction for multipole
  | error in Hartree potential    :           0.01843554 Ha           0.50165651 eV
  | Sum of eigenvalues per atom                           :       -4452.44931031 eV
  | Total energy (T->0) per atom                          :       -7873.75314889 eV  <-- do not rely on this value for anything but (periodic) metals
  | Electronic free energy per atom                       :       -7873.75314889 eV

  Self-consistency convergence accuracy:
  | Change of charge density      :  0.2001E-01
  | Change of sum of eigenvalues  : -0.1116E+01 eV
  | Change of total energy        :  0.3667E-02 eV

  End self-consistency iteration #     3       :  max(cpu_time)    wall_clock(cpu1)
  | Time for this iteration                    :        2.429 s           2.429 s
  | Charge density update                      :        1.239 s           1.239 s
  | Density mixing & preconditioning           :        0.047 s           0.047 s
  | Hartree multipole update                   :        0.001 s           0.000 s
  | Hartree multipole summation                :        0.444 s           0.444 s
  | Integration                                :        0.688 s           0.688 s
  | Solution of K.-S. eqns.                    :        0.010 s           0.011 s
  | Total energy evaluation                    :        0.000 s           0.000 s

  Partial memory accounting:
  | Current value for overall tracked memory usage on task 0  :           0.965 MB
  | Peak value for overall tracked memory usage on task 0     :           4.310 MB after allocating wave
  | Largest tracked array allocation on task 0 so far         :           2.122 MB  when allocating hamiltonian_shell
  Note:  These values currently only include a subset of arrays which are explicitly tracked.
  The "true" memory usage will be greater.
------------------------------------------------------------

------------------------------------------------------------
          Begin self-consistency iteration #    4

  Date     :  20190509, Time     :  175019.145
------------------------------------------------------------
  Evaluating new KS density using the density matrix
  Evaluating density matrix
  Time summed over all CPUs for getting density from density matrix: real work        1.161 s, elapsed        1.161 s
  Integration grid: deviation in total charge (<rho> - N_e) =   5.684342E-14
  Pulay mixing of updated and previous charge densities.

  Evaluating partitioned Hartree potential by multipole expansion.
  | Analytical far-field extrapolation by fixed multipoles:
  | Hartree multipole sum: apparent total charge =   0.788575E-02
  Summing up the Hartree potential.
  Time summed over all CPUs for potential: real work        0.438 s, elapsed        0.438 s
  | RMS charge density error from multipole expansion :   0.144539E-01
  | Average real-space part of the electrostatic potential :      0.45182304 eV

  Integrating Hamiltonian matrix: batch-based integration.
  Time summed over all CPUs for integration: real work        0.650 s, elapsed        0.650 s

  Updating Kohn-Sham eigenvalues, eigenvectors, occupation numbers, and Fermi level.
  Solving generalized eigenproblem

  Obtaining occupation numbers and chemical potential using ELSI.
  | Chemical potential (Fermi level):    -5.39020656eV
  What follows are estimated values for band gap, HOMO, LUMO, etc.
  | They are estimated on a discrete k-point grid and not necessarily exact.
  | For converged numbers, create a DOS and/or band structure plot on a denser k-grid.

  Highest occupied state (VBM) at     -5.81758104 eV (relative to internal zero)
  | Occupation number:      2.00000000
  | K-point:       1 at    0.000000    0.000000    0.000000 (in units of recip. lattice)

  Lowest unoccupied state (CBM) at    -5.33751802 eV (relative to internal zero)
  | Occupation number:      0.00000000
  | K-point:       5 at    0.000000    0.666667    0.666667 (in units of recip. lattice)

  ESTIMATED overall HOMO-LUMO gap:      0.48006301 eV between HOMO at k-point 1 and LUMO at k-point 5
  | This appears to be an indirect band gap.
  | Smallest direct gap :      2.53805483 eV for k_point 1 at    0.000000    0.666667    0.666667 (in units of recip. lattice)
  The gap value is above 0.2 eV. Unless you are using a very sparse k-point grid,
  this system is most likely an insulator or a semiconductor.

  Total energy components:
  | Sum of eigenvalues            :        -327.35363660 Ha       -8907.74567290 eV
  | XC energy correction          :         -39.78954553 Ha       -1082.72862259 eV
  | XC potential correction       :          52.56793387 Ha        1430.44626079 eV
  | Free-atom electrostatic energy:        -263.09762940 Ha       -7159.25075475 eV
  | Hartree energy correction     :          -1.03700716 Ha         -28.21840054 eV
  | Entropy correction            :          -0.00000000 Ha          -0.00000000 eV
  | ---------------------------
  | Total energy                  :        -578.70988483 Ha      -15747.49719000 eV
  | Total energy, T -> 0          :        -578.70988483 Ha      -15747.49719000 eV  <-- do not rely on this value for anything but (periodic) metals
  | Electronic free energy        :        -578.70988483 Ha      -15747.49719000 eV

  Derived energy quantities:
  | Kinetic energy                :         580.07594664 Ha       15784.66962324 eV
  | Electrostatic energy          :       -1118.99628593 Ha      -30449.43819065 eV
  | Energy correction for multipole
  | error in Hartree potential    :           0.02002051 Ha           0.54478578 eV
  | Sum of eigenvalues per atom                           :       -4453.87283645 eV
  | Total energy (T->0) per atom                          :       -7873.74859500 eV  <-- do not rely on this value for anything but (periodic) metals
  | Electronic free energy per atom                       :       -7873.74859500 eV

  Self-consistency convergence accuracy:
  | Change of charge density      :  0.1751E-01
  | Change of sum of eigenvalues  : -0.2847E+01 eV
  | Change of total energy        :  0.9108E-02 eV

  End self-consistency iteration #     4       :  max(cpu_time)    wall_clock(cpu1)
  | Time for this iteration                    :        2.308 s           2.308 s
  | Charge density update                      :        1.162 s           1.162 s
  | Density mixing & preconditioning           :        0.045 s           0.045 s
  | Hartree multipole update                   :        0.001 s           0.001 s
  | Hartree multipole summation                :        0.442 s           0.442 s
  | Integration                                :        0.650 s           0.650 s
  | Solution of K.-S. eqns.                    :        0.008 s           0.008 s
  | Total energy evaluation                    :        0.000 s           0.000 s

  Partial memory accounting:
  | Current value for overall tracked memory usage on task 0  :           0.965 MB
  | Peak value for overall tracked memory usage on task 0     :           4.310 MB after allocating wave
  | Largest tracked array allocation on task 0 so far         :           2.122 MB  when allocating hamiltonian_shell
  Note:  These values currently only include a subset of arrays which are explicitly tracked.
  The "true" memory usage will be greater.
------------------------------------------------------------

------------------------------------------------------------
          Begin self-consistency iteration #    5

  Date     :  20190509, Time     :  175021.453
------------------------------------------------------------
  Evaluating new KS density using the density matrix
  Evaluating density matrix
  Time summed over all CPUs for getting density from density matrix: real work        1.064 s, elapsed        1.064 s
  Integration grid: deviation in total charge (<rho> - N_e) =   3.552714E-14
  Pulay mixing of updated and previous charge densities.

  Evaluating partitioned Hartree potential by multipole expansion.
  | Analytical far-field extrapolation by fixed multipoles:
  | Hartree multipole sum: apparent total charge =   0.606727E-02
  Summing up the Hartree potential.
  Time summed over all CPUs for potential: real work        0.439 s, elapsed        0.439 s
  | RMS charge density error from multipole expansion :   0.143785E-01
  | Average real-space part of the electrostatic potential :      0.44801699 eV

  Integrating Hamiltonian matrix: batch-based integration.
  Time summed over all CPUs for integration: real work        0.647 s, elapsed        0.647 s

  Updating Kohn-Sham eigenvalues, eigenvectors, occupation numbers, and Fermi level.
  Solving generalized eigenproblem

  Obtaining occupation numbers and chemical potential using ELSI.
  | Chemical potential (Fermi level):    -5.40512746eV
  What follows are estimated values for band gap, HOMO, LUMO, etc.
  | They are estimated on a discrete k-point grid and not necessarily exact.
  | For converged numbers, create a DOS and/or band structure plot on a denser k-grid.

  Highest occupied state (VBM) at     -5.82848261 eV (relative to internal zero)
  | Occupation number:      2.00000000
  | K-point:       1 at    0.000000    0.000000    0.000000 (in units of recip. lattice)

  Lowest unoccupied state (CBM) at    -5.34220930 eV (relative to internal zero)
  | Occupation number:      0.00000000
  | K-point:       5 at    0.000000    0.666667    0.666667 (in units of recip. lattice)

  ESTIMATED overall HOMO-LUMO gap:      0.48627331 eV between HOMO at k-point 1 and LUMO at k-point 5
  | This appears to be an indirect band gap.
  | Smallest direct gap :      2.54220989 eV for k_point 1 at    0.000000    0.666667    0.666667 (in units of recip. lattice)
  The gap value is above 0.2 eV. Unless you are using a very sparse k-point grid,
  this system is most likely an insulator or a semiconductor.

  Total energy components:
  | Sum of eigenvalues            :        -327.39731520 Ha       -8908.93422811 eV
  | XC energy correction          :         -39.78646555 Ha       -1082.64481204 eV
  | XC potential correction       :          52.56384794 Ha        1430.33507707 eV
  | Free-atom electrostatic energy:        -263.09762940 Ha       -7159.25075475 eV
  | Hartree energy correction     :          -0.99226722 Ha         -27.00096485 eV
  | Entropy correction            :          -0.00000000 Ha          -0.00000000 eV
  | ---------------------------
  | Total energy                  :        -578.70982944 Ha      -15747.49568269 eV
  | Total energy, T -> 0          :        -578.70982944 Ha      -15747.49568269 eV  <-- do not rely on this value for anything but (periodic) metals
  | Electronic free energy        :        -578.70982944 Ha      -15747.49568269 eV

  Derived energy quantities:
  | Kinetic energy                :         580.04626386 Ha       15783.86191355 eV
  | Electrostatic energy          :       -1118.96962774 Ha      -30448.71278420 eV
  | Energy correction for multipole
  | error in Hartree potential    :           0.01985622 Ha           0.54031526 eV
  | Sum of eigenvalues per atom                           :       -4454.46711406 eV
  | Total energy (T->0) per atom                          :       -7873.74784134 eV  <-- do not rely on this value for anything but (periodic) metals
  | Electronic free energy per atom                       :       -7873.74784134 eV

  Self-consistency convergence accuracy:
  | Change of charge density      :  0.1158E-01
  | Change of sum of eigenvalues  : -0.1189E+01 eV
  | Change of total energy        :  0.1507E-02 eV

  End self-consistency iteration #     5       :  max(cpu_time)    wall_clock(cpu1)
  | Time for this iteration                    :        2.209 s           2.210 s
  | Charge density update                      :        1.066 s           1.066 s
  | Density mixing & preconditioning           :        0.044 s           0.044 s
  | Hartree multipole update                   :        0.001 s           0.001 s
  | Hartree multipole summation                :        0.442 s           0.442 s
  | Integration                                :        0.647 s           0.647 s
  | Solution of K.-S. eqns.                    :        0.008 s           0.009 s
  | Total energy evaluation                    :        0.000 s           0.000 s

  Partial memory accounting:
  | Current value for overall tracked memory usage on task 0  :           0.965 MB
  | Peak value for overall tracked memory usage on task 0     :           4.310 MB after allocating wave
  | Largest tracked array allocation on task 0 so far         :           2.122 MB  when allocating hamiltonian_shell
  Note:  These values currently only include a subset of arrays which are explicitly tracked.
  The "true" memory usage will be greater.
------------------------------------------------------------

------------------------------------------------------------
          Begin self-consistency iteration #    6

  Date     :  20190509, Time     :  175023.663
------------------------------------------------------------
  Evaluating new KS density using the density matrix
  Evaluating density matrix
  Time summed over all CPUs for getting density from density matrix: real work        1.063 s, elapsed        1.063 s
  Integration grid: deviation in total charge (<rho> - N_e) =   2.131628E-14
  Pulay mixing of updated and previous charge densities.

  Evaluating partitioned Hartree potential by multipole expansion.
  | Analytical far-field extrapolation by fixed multipoles:
  | Hartree multipole sum: apparent total charge =   0.577322E-02
  Summing up the Hartree potential.
  Time summed over all CPUs for potential: real work        0.435 s, elapsed        0.435 s
  | RMS charge density error from multipole expansion :   0.144187E-01
  | Average real-space part of the electrostatic potential :      0.44825508 eV

  Integrating Hamiltonian matrix: batch-based integration.
  Time summed over all CPUs for integration: real work        0.642 s, elapsed        0.642 s

  Updating Kohn-Sham eigenvalues, eigenvectors, occupation numbers, and Fermi level.
  Solving generalized eigenproblem

  Obtaining occupation numbers and chemical potential using ELSI.
  | Chemical potential (Fermi level):    -5.40638231eV
  What follows are estimated values for band gap, HOMO, LUMO, etc.
  | They are estimated on a discrete k-point grid and not necessarily exact.
  | For converged numbers, create a DOS and/or band structure plot on a denser k-grid.

  Highest occupied state (VBM) at     -5.82878097 eV (relative to internal zero)
  | Occupation number:      2.00000000
  | K-point:       1 at    0.000000    0.000000    0.000000 (in units of recip. lattice)

  Lowest unoccupied state (CBM) at    -5.34233393 eV (relative to internal zero)
  | Occupation number:      0.00000000
  | K-point:       5 at    0.000000    0.666667    0.666667 (in units of recip. lattice)

  ESTIMATED overall HOMO-LUMO gap:      0.48644704 eV between HOMO at k-point 1 and LUMO at k-point 5
  | This appears to be an indirect band gap.
  | Smallest direct gap :      2.54207317 eV for k_point 1 at    0.000000    0.666667    0.666667 (in units of recip. lattice)
  The gap value is above 0.2 eV. Unless you are using a very sparse k-point grid,
  this system is most likely an insulator or a semiconductor.

  Total energy components:
  | Sum of eigenvalues            :        -327.40629108 Ha       -8909.17847431 eV
  | XC energy correction          :         -39.78571295 Ha       -1082.62433261 eV
  | XC potential correction       :          52.56284728 Ha        1430.30784777 eV
  | Free-atom electrostatic energy:        -263.09762940 Ha       -7159.25075475 eV
  | Hartree energy correction     :          -0.98303281 Ha         -26.74968372 eV
  | Entropy correction            :          -0.00000000 Ha          -0.00000000 eV
  | ---------------------------
  | Total energy                  :        -578.70981896 Ha      -15747.49539763 eV
  | Total energy, T -> 0          :        -578.70981896 Ha      -15747.49539763 eV  <-- do not rely on this value for anything but (periodic) metals
  | Electronic free energy        :        -578.70981896 Ha      -15747.49539763 eV

  Derived energy quantities:
  | Kinetic energy                :         580.03386041 Ha       15783.52439870 eV
  | Electrostatic energy          :       -1118.95796642 Ha      -30448.39546372 eV
  | Energy correction for multipole
  | error in Hartree potential    :           0.01989655 Ha           0.54141277 eV
  | Sum of eigenvalues per atom                           :       -4454.58923716 eV
  | Total energy (T->0) per atom                          :       -7873.74769882 eV  <-- do not rely on this value for anything but (periodic) metals
  | Electronic free energy per atom                       :       -7873.74769882 eV

  Self-consistency convergence accuracy:
  | Change of charge density      :  0.9716E-02
  | Change of sum of eigenvalues  : -0.2442E+00 eV
  | Change of total energy        :  0.2851E-03 eV

  End self-consistency iteration #     6       :  max(cpu_time)    wall_clock(cpu1)
  | Time for this iteration                    :        2.197 s           2.197 s
  | Charge density update                      :        1.064 s           1.064 s
  | Density mixing & preconditioning           :        0.044 s           0.043 s
  | Hartree multipole update                   :        0.001 s           0.001 s
  | Hartree multipole summation                :        0.439 s           0.439 s
  | Integration                                :        0.642 s           0.642 s
  | Solution of K.-S. eqns.                    :        0.008 s           0.008 s
  | Total energy evaluation                    :        0.000 s           0.000 s

  Partial memory accounting:
  | Current value for overall tracked memory usage on task 0  :           0.965 MB
  | Peak value for overall tracked memory usage on task 0     :           4.310 MB after allocating wave
  | Largest tracked array allocation on task 0 so far         :           2.122 MB  when allocating hamiltonian_shell
  Note:  These values currently only include a subset of arrays which are explicitly tracked.
  The "true" memory usage will be greater.
------------------------------------------------------------

------------------------------------------------------------
          Begin self-consistency iteration #    7

  Date     :  20190509, Time     :  175025.860
------------------------------------------------------------
  Evaluating new KS density using the density matrix
  Evaluating density matrix
  Time summed over all CPUs for getting density from density matrix: real work        1.335 s, elapsed        1.335 s
  Integration grid: deviation in total charge (<rho> - N_e) =   1.136868E-13
  Pulay mixing of updated and previous charge densities.

  Evaluating partitioned Hartree potential by multipole expansion.
  | Analytical far-field extrapolation by fixed multipoles:
  | Hartree multipole sum: apparent total charge =   0.554277E-02
  Summing up the Hartree potential.
  Time summed over all CPUs for potential: real work        0.464 s, elapsed        0.464 s
  | RMS charge density error from multipole expansion :   0.143689E-01
  | Average real-space part of the electrostatic potential :      0.44446179 eV

  Integrating Hamiltonian matrix: batch-based integration.
  Time summed over all CPUs for integration: real work        0.672 s, elapsed        0.672 s

  Updating Kohn-Sham eigenvalues, eigenvectors, occupation numbers, and Fermi level.
  Solving generalized eigenproblem

  Obtaining occupation numbers and chemical potential using ELSI.
  | Chemical potential (Fermi level):    -5.41385975eV
  What follows are estimated values for band gap, HOMO, LUMO, etc.
  | They are estimated on a discrete k-point grid and not necessarily exact.
  | For converged numbers, create a DOS and/or band structure plot on a denser k-grid.

  Highest occupied state (VBM) at     -5.83459211 eV (relative to internal zero)
  | Occupation number:      2.00000000
  | K-point:       1 at    0.000000    0.000000    0.000000 (in units of recip. lattice)

  Lowest unoccupied state (CBM) at    -5.34447230 eV (relative to internal zero)
  | Occupation number:      0.00000000
  | K-point:       5 at    0.000000    0.666667    0.666667 (in units of recip. lattice)

  ESTIMATED overall HOMO-LUMO gap:      0.49011981 eV between HOMO at k-point 1 and LUMO at k-point 5
  | This appears to be an indirect band gap.
  | Smallest direct gap :      2.54463880 eV for k_point 1 at    0.000000    0.666667    0.666667 (in units of recip. lattice)
  The gap value is above 0.2 eV. Unless you are using a very sparse k-point grid,
  this system is most likely an insulator or a semiconductor.

  Total energy components:
  | Sum of eigenvalues            :        -327.42840194 Ha       -8909.78014153 eV
  | XC energy correction          :         -39.78354199 Ha       -1082.56525791 eV
  | XC potential correction       :          52.55997112 Ha        1430.22958352 eV
  | Free-atom electrostatic energy:        -263.09762940 Ha       -7159.25075475 eV
  | Hartree energy correction     :          -0.96019559 Ha         -26.12825142 eV
  | Entropy correction            :          -0.00000000 Ha          -0.00000000 eV
  | ---------------------------
  | Total energy                  :        -578.70979781 Ha      -15747.49482210 eV
  | Total energy, T -> 0          :        -578.70979781 Ha      -15747.49482210 eV  <-- do not rely on this value for anything but (periodic) metals
  | Electronic free energy        :        -578.70979781 Ha      -15747.49482210 eV

  Derived energy quantities:
  | Kinetic energy                :         580.00781862 Ha       15782.81576542 eV
  | Electrostatic energy          :       -1118.93407443 Ha      -30447.74532960 eV
  | Energy correction for multipole
  | error in Hartree potential    :           0.01980104 Ha           0.53881380 eV
  | Sum of eigenvalues per atom                           :       -4454.89007077 eV
  | Total energy (T->0) per atom                          :       -7873.74741105 eV  <-- do not rely on this value for anything but (periodic) metals
  | Electronic free energy per atom                       :       -7873.74741105 eV

  Self-consistency convergence accuracy:
  | Change of charge density      :  0.9226E-02
  | Change of sum of eigenvalues  : -0.6017E+00 eV
  | Change of total energy        :  0.5755E-03 eV

  End self-consistency iteration #     7       :  max(cpu_time)    wall_clock(cpu1)
  | Time for this iteration                    :        2.539 s           2.545 s
  | Charge density update                      :        1.334 s           1.337 s
  | Density mixing & preconditioning           :        0.055 s           0.056 s
  | Hartree multipole update                   :        0.002 s           0.002 s
  | Hartree multipole summation                :        0.469 s           0.469 s
  | Integration                                :        0.671 s           0.672 s
  | Solution of K.-S. eqns.                    :        0.009 s           0.009 s
  | Total energy evaluation                    :        0.000 s           0.000 s

  Partial memory accounting:
  | Current value for overall tracked memory usage on task 0  :           0.966 MB
  | Peak value for overall tracked memory usage on task 0     :           4.310 MB after allocating wave
  | Largest tracked array allocation on task 0 so far         :           2.122 MB  when allocating hamiltonian_shell
  Note:  These values currently only include a subset of arrays which are explicitly tracked.
  The "true" memory usage will be greater.
------------------------------------------------------------

------------------------------------------------------------
          Begin self-consistency iteration #    8

  Date     :  20190509, Time     :  175028.406
------------------------------------------------------------
  Evaluating new KS density using the density matrix
  Evaluating density matrix
  Time summed over all CPUs for getting density from density matrix: real work        1.083 s, elapsed        1.083 s
  Integration grid: deviation in total charge (<rho> - N_e) =   1.030287E-13
  Pulay mixing of updated and previous charge densities.

  Evaluating partitioned Hartree potential by multipole expansion.
  | Analytical far-field extrapolation by fixed multipoles:
  | Hartree multipole sum: apparent total charge =   0.573493E-02
  Summing up the Hartree potential.
  Time summed over all CPUs for potential: real work        0.446 s, elapsed        0.446 s
  | RMS charge density error from multipole expansion :   0.143256E-01
  | Average real-space part of the electrostatic potential :      0.43619759 eV

  Integrating Hamiltonian matrix: batch-based integration.
  Time summed over all CPUs for integration: real work        0.654 s, elapsed        0.654 s

  Updating Kohn-Sham eigenvalues, eigenvectors, occupation numbers, and Fermi level.
  Solving generalized eigenproblem

  Obtaining occupation numbers and chemical potential using ELSI.
  | Chemical potential (Fermi level):    -5.42600848eV
  What follows are estimated values for band gap, HOMO, LUMO, etc.
  | They are estimated on a discrete k-point grid and not necessarily exact.
  | For converged numbers, create a DOS and/or band structure plot on a denser k-grid.

  Highest occupied state (VBM) at     -5.84360208 eV (relative to internal zero)
  | Occupation number:      2.00000000
  | K-point:       1 at    0.000000    0.000000    0.000000 (in units of recip. lattice)

  Lowest unoccupied state (CBM) at    -5.34750212 eV (relative to internal zero)
  | Occupation number:      0.00000000
  | K-point:       5 at    0.000000    0.666667    0.666667 (in units of recip. lattice)

  ESTIMATED overall HOMO-LUMO gap:      0.49609996 eV between HOMO at k-point 1 and LUMO at k-point 5
  | This appears to be an indirect band gap.
  | Smallest direct gap :      2.54858845 eV for k_point 1 at    0.000000    0.666667    0.666667 (in units of recip. lattice)
  The gap value is above 0.2 eV. Unless you are using a very sparse k-point grid,
  this system is most likely an insulator or a semiconductor.

  Total energy components:
  | Sum of eigenvalues            :        -327.46874129 Ha       -8910.87783097 eV
  | XC energy correction          :         -39.77938241 Ha       -1082.45207000 eV
  | XC potential correction       :          52.55446265 Ha        1430.07969025 eV
  | Free-atom electrostatic energy:        -263.09762940 Ha       -7159.25075475 eV
  | Hartree energy correction     :          -0.91847331 Ha         -24.99293034 eV
  | Entropy correction            :          -0.00000000 Ha          -0.00000000 eV
  | ---------------------------
  | Total energy                  :        -578.70976377 Ha      -15747.49389581 eV
  | Total energy, T -> 0          :        -578.70976377 Ha      -15747.49389581 eV  <-- do not rely on this value for anything but (periodic) metals
  | Electronic free energy        :        -578.70976377 Ha      -15747.49389581 eV

  Derived energy quantities:
  | Kinetic energy                :         579.95740528 Ha       15781.44394877 eV
  | Electrostatic energy          :       -1118.88778664 Ha      -30446.48577459 eV
  | Energy correction for multipole
  | error in Hartree potential    :           0.01968973 Ha           0.53578483 eV
  | Sum of eigenvalues per atom                           :       -4455.43891549 eV
  | Total energy (T->0) per atom                          :       -7873.74694791 eV  <-- do not rely on this value for anything but (periodic) metals
  | Electronic free energy per atom                       :       -7873.74694791 eV

  Self-consistency convergence accuracy:
  | Change of charge density      :  0.7849E-02
  | Change of sum of eigenvalues  : -0.1098E+01 eV
  | Change of total energy        :  0.9263E-03 eV

  End self-consistency iteration #     8       :  max(cpu_time)    wall_clock(cpu1)
  | Time for this iteration                    :        2.236 s           2.241 s
  | Charge density update                      :        1.082 s           1.084 s
  | Density mixing & preconditioning           :        0.044 s           0.044 s
  | Hartree multipole update                   :        0.001 s           0.001 s
  | Hartree multipole summation                :        0.449 s           0.450 s
  | Integration                                :        0.652 s           0.654 s
  | Solution of K.-S. eqns.                    :        0.008 s           0.008 s
  | Total energy evaluation                    :        0.000 s           0.000 s

  Partial memory accounting:
  | Current value for overall tracked memory usage on task 0  :           0.966 MB
  | Peak value for overall tracked memory usage on task 0     :           4.310 MB after allocating wave
  | Largest tracked array allocation on task 0 so far         :           2.122 MB  when allocating hamiltonian_shell
  Note:  These values currently only include a subset of arrays which are explicitly tracked.
  The "true" memory usage will be greater.
------------------------------------------------------------

------------------------------------------------------------
          Begin self-consistency iteration #    9

  Date     :  20190509, Time     :  175030.647
------------------------------------------------------------
  Evaluating new KS density using the density matrix
  Evaluating density matrix
  Time summed over all CPUs for getting density from density matrix: real work        1.086 s, elapsed        1.086 s
  Integration grid: deviation in total charge (<rho> - N_e) =   5.684342E-14
  Pulay mixing of updated and previous charge densities.

  Evaluating partitioned Hartree potential by multipole expansion.
  | Analytical far-field extrapolation by fixed multipoles:
  | Hartree multipole sum: apparent total charge =   0.584324E-02
  Summing up the Hartree potential.
  Time summed over all CPUs for potential: real work        0.443 s, elapsed        0.443 s
  | RMS charge density error from multipole expansion :   0.142778E-01
  | Average real-space part of the electrostatic potential :      0.42866908 eV

  Integrating Hamiltonian matrix: batch-based integration.
  Time summed over all CPUs for integration: real work        0.654 s, elapsed        0.654 s

  Updating Kohn-Sham eigenvalues, eigenvectors, occupation numbers, and Fermi level.
  Solving generalized eigenproblem

  Obtaining occupation numbers and chemical potential using ELSI.
  | Chemical potential (Fermi level):    -5.43746004eV
  What follows are estimated values for band gap, HOMO, LUMO, etc.
  | They are estimated on a discrete k-point grid and not necessarily exact.
  | For converged numbers, create a DOS and/or band structure plot on a denser k-grid.

  Highest occupied state (VBM) at     -5.85217791 eV (relative to internal zero)
  | Occupation number:      2.00000000
  | K-point:       1 at    0.000000    0.000000    0.000000 (in units of recip. lattice)

  Lowest unoccupied state (CBM) at    -5.35042832 eV (relative to internal zero)
  | Occupation number:      0.00000000
  | K-point:       5 at    0.000000    0.666667    0.666667 (in units of recip. lattice)

  ESTIMATED overall HOMO-LUMO gap:      0.50174959 eV between HOMO at k-point 1 and LUMO at k-point 5
  | This appears to be an indirect band gap.
  | Smallest direct gap :      2.55236102 eV for k_point 1 at    0.000000    0.666667    0.666667 (in units of recip. lattice)
  The gap value is above 0.2 eV. Unless you are using a very sparse k-point grid,
  this system is most likely an insulator or a semiconductor.

  Total energy components:
  | Sum of eigenvalues            :        -327.50609887 Ha       -8911.89438254 eV
  | XC energy correction          :         -39.77554501 Ha       -1082.34764886 eV
  | XC potential correction       :          52.54938056 Ha        1429.94139972 eV
  | Free-atom electrostatic energy:        -263.09762940 Ha       -7159.25075475 eV
  | Hartree energy correction     :          -0.87984658 Ha         -23.94184355 eV
  | Entropy correction            :          -0.00000000 Ha          -0.00000000 eV
  | ---------------------------
  | Total energy                  :        -578.70973930 Ha      -15747.49322999 eV
  | Total energy, T -> 0          :        -578.70973930 Ha      -15747.49322999 eV  <-- do not rely on this value for anything but (periodic) metals
  | Electronic free energy        :        -578.70973930 Ha      -15747.49322999 eV

  Derived energy quantities:
  | Kinetic energy                :         579.91088736 Ha       15780.17813165 eV
[...]
  | Total energy evaluation                    :        0.000 s           0.000 s

  Partial memory accounting:
  | Current value for overall tracked memory usage on task 0  :           0.966 MB
  | Peak value for overall tracked memory usage on task 0     :           4.310 MB after allocating wave
  | Largest tracked array allocation on task 0 so far         :           2.122 MB  when allocating hamiltonian_shell
  Note:  These values currently only include a subset of arrays which are explicitly tracked.
  The "true" memory usage will be greater.
------------------------------------------------------------

------------------------------------------------------------
          Begin self-consistency iteration #   12

  Date     :  20190509, Time     :  175037.342
------------------------------------------------------------
  Evaluating new KS density using the density matrix
  Evaluating density matrix
  Time summed over all CPUs for getting density from density matrix: real work        1.078 s, elapsed        1.078 s
  Integration grid: deviation in total charge (<rho> - N_e) =   1.421085E-14
  Pulay mixing of updated and previous charge densities.

  Evaluating partitioned Hartree potential by multipole expansion.
  | Analytical far-field extrapolation by fixed multipoles:
  | Hartree multipole sum: apparent total charge =   0.584299E-02
  Summing up the Hartree potential.
  Time summed over all CPUs for potential: real work        0.451 s, elapsed        0.451 s
  | RMS charge density error from multipole expansion :   0.142263E-01
  | Average real-space part of the electrostatic potential :      0.41980195 eV

  Integrating Hamiltonian matrix: batch-based integration.
  Time summed over all CPUs for integration: real work        0.671 s, elapsed        0.671 s

  Updating Kohn-Sham eigenvalues, eigenvectors, occupation numbers, and Fermi level.
  Solving generalized eigenproblem

  Obtaining occupation numbers and chemical potential using ELSI.
  | Chemical potential (Fermi level):    -5.45160013eV
  What follows are estimated values for band gap, HOMO, LUMO, etc.
  | They are estimated on a discrete k-point grid and not necessarily exact.
  | For converged numbers, create a DOS and/or band structure plot on a denser k-grid.

  Highest occupied state (VBM) at     -5.86270018 eV (relative to internal zero)
  | Occupation number:      2.00000000
  | K-point:       1 at    0.000000    0.000000    0.000000 (in units of recip. lattice)

  Lowest unoccupied state (CBM) at    -5.35404738 eV (relative to internal zero)
  | Occupation number:      0.00000000
  | K-point:       5 at    0.000000    0.666667    0.666667 (in units of recip. lattice)

  ESTIMATED overall HOMO-LUMO gap:      0.50865280 eV between HOMO at k-point 1 and LUMO at k-point 5
  | This appears to be an indirect band gap.
  | Smallest direct gap :      2.55693084 eV for k_point 1 at    0.000000    0.666667    0.666667 (in units of recip. lattice)
  The gap value is above 0.2 eV. Unless you are using a very sparse k-point grid,
  this system is most likely an insulator or a semiconductor.

  Total energy components:
  | Sum of eigenvalues            :        -327.55288217 Ha       -8913.16742090 eV
  | XC energy correction          :         -39.77080971 Ha       -1082.21879488 eV
  | XC potential correction       :          52.54310817 Ha        1429.77071931 eV
  | Free-atom electrostatic energy:        -263.09762940 Ha       -7159.25075475 eV
  | Hartree energy correction     :          -0.83150412 Ha         -22.62637820 eV
  | Entropy correction            :          -0.00000000 Ha          -0.00000000 eV
  | ---------------------------
  | Total energy                  :        -578.70971723 Ha      -15747.49262942 eV
  | Total energy, T -> 0          :        -578.70971723 Ha      -15747.49262942 eV  <-- do not rely on this value for anything but (periodic) metals
  | Electronic free energy        :        -578.70971723 Ha      -15747.49262942 eV

  Derived energy quantities:
  | Kinetic energy                :         579.85252843 Ha       15778.59010437 eV
  | Electrostatic energy          :       -1118.79143595 Ha      -30443.86393891 eV
  | Energy correction for multipole
  | error in Hartree potential    :           0.01944281 Ha           0.52906580 eV
  | Sum of eigenvalues per atom                           :       -4456.58371045 eV
  | Total energy (T->0) per atom                          :       -7873.74631471 eV  <-- do not rely on this value for anything but (periodic) metals
  | Electronic free energy per atom                       :       -7873.74631471 eV

  Self-consistency convergence accuracy:
  | Change of charge density      :  0.5125E-05
  | Change of sum of eigenvalues  : -0.1831E-02 eV
  | Change of total energy        : -0.8665E-07 eV

  End self-consistency iteration #    12       :  max(cpu_time)    wall_clock(cpu1)
  | Time for this iteration                    :        2.253 s           2.259 s
  | Charge density update                      :        1.077 s           1.080 s
  | Density mixing & preconditioning           :        0.045 s           0.045 s
  | Hartree multipole update                   :        0.001 s           0.000 s
  | Hartree multipole summation                :        0.453 s           0.455 s
  | Integration                                :        0.669 s           0.671 s
  | Solution of K.-S. eqns.                    :        0.008 s           0.008 s
  | Total energy evaluation                    :        0.000 s           0.000 s

  Partial memory accounting:
  | Current value for overall tracked memory usage on task 0  :           0.966 MB
  | Peak value for overall tracked memory usage on task 0     :           4.310 MB after allocating wave
  | Largest tracked array allocation on task 0 so far         :           2.122 MB  when allocating hamiltonian_shell
  Note:  These values currently only include a subset of arrays which are explicitly tracked.
  The "true" memory usage will be greater.
------------------------------------------------------------

------------------------------------------------------------
          Begin self-consistency iteration #   13

  Date     :  20190509, Time     :  175039.601
------------------------------------------------------------
  Evaluating new KS density using the density matrix
  Evaluating density matrix
  Time summed over all CPUs for getting density from density matrix: real work        1.078 s, elapsed        1.078 s
  Integration grid: deviation in total charge (<rho> - N_e) =   1.492140E-13
  Pulay mixing of updated and previous charge densities.

  Evaluating partitioned Hartree potential by multipole expansion.
  | Analytical far-field extrapolation by fixed multipoles:
  | Hartree multipole sum: apparent total charge =   0.584299E-02
  Summing up the Hartree potential.
  Time summed over all CPUs for potential: real work        0.438 s, elapsed        0.438 s
  | RMS charge density error from multipole expansion :   0.142263E-01
  | Average real-space part of the electrostatic potential :      0.41980183 eV

  Integrating Hamiltonian matrix: batch-based integration.
  Time summed over all CPUs for integration: real work        0.651 s, elapsed        0.651 s

  Updating Kohn-Sham eigenvalues, eigenvectors, occupation numbers, and Fermi level.
  Solving generalized eigenproblem

  Obtaining occupation numbers and chemical potential using ELSI.
  | Chemical potential (Fermi level):    -5.45160034eV
  What follows are estimated values for band gap, HOMO, LUMO, etc.
  | They are estimated on a discrete k-point grid and not necessarily exact.
  | For converged numbers, create a DOS and/or band structure plot on a denser k-grid.

  Highest occupied state (VBM) at     -5.86270030 eV (relative to internal zero)
  | Occupation number:      2.00000000
  | K-point:       1 at    0.000000    0.000000    0.000000 (in units of recip. lattice)

  Lowest unoccupied state (CBM) at    -5.35404745 eV (relative to internal zero)
  | Occupation number:      0.00000000
  | K-point:       5 at    0.000000    0.666667    0.666667 (in units of recip. lattice)

  ESTIMATED overall HOMO-LUMO gap:      0.50865285 eV between HOMO at k-point 1 and LUMO at k-point 5
  | This appears to be an indirect band gap.
  | Smallest direct gap :      2.55693089 eV for k_point 1 at    0.000000    0.666667    0.666667 (in units of recip. lattice)
  The gap value is above 0.2 eV. Unless you are using a very sparse k-point grid,
  this system is most likely an insulator or a semiconductor.

  Total energy components:
  | Sum of eigenvalues            :        -327.55288318 Ha       -8913.16744834 eV
  | XC energy correction          :         -39.77080957 Ha       -1082.21879120 eV
  | XC potential correction       :          52.54310799 Ha        1429.77071443 eV
  | Free-atom electrostatic energy:        -263.09762940 Ha       -7159.25075475 eV
  | Hartree energy correction     :          -0.83150306 Ha         -22.62634956 eV
  | Entropy correction            :          -0.00000000 Ha          -0.00000000 eV
  | ---------------------------
  | Total energy                  :        -578.70971723 Ha      -15747.49262943 eV
  | Total energy, T -> 0          :        -578.70971723 Ha      -15747.49262943 eV  <-- do not rely on this value for anything but (periodic) metals
  | Electronic free energy        :        -578.70971723 Ha      -15747.49262943 eV

  Derived energy quantities:
  | Kinetic energy                :         579.85252682 Ha       15778.59006064 eV
  | Electrostatic energy          :       -1118.79143448 Ha      -30443.86389887 eV
  | Energy correction for multipole
  | error in Hartree potential    :           0.01944280 Ha           0.52906563 eV
  | Sum of eigenvalues per atom                           :       -4456.58372417 eV
  | Total energy (T->0) per atom                          :       -7873.74631471 eV  <-- do not rely on this value for anything but (periodic) metals
  | Electronic free energy per atom                       :       -7873.74631471 eV

  Self-consistency convergence accuracy:
  | Change of charge density      :  0.2295E-06
  | Change of sum of eigenvalues  : -0.2744E-04 eV
  | Change of total energy        : -0.5680E-08 eV

  Preliminary charge convergence reached. Turning off preconditioner.

  Writing Kohn-Sham eigenvalues.
  K-point:       1 at    0.000000    0.000000    0.000000 (in units of recip. lattice)

  State    Occupation    Eigenvalue [Ha]    Eigenvalue [eV]
      1       2.00000         -65.477108        -1781.72275
      2       2.00000         -65.477108        -1781.72275
      3       2.00000          -5.089439         -138.49069
      4       2.00000          -5.089012         -138.47907
      5       2.00000          -3.502534          -95.30880
      6       2.00000          -3.502534          -95.30880
      7       2.00000          -3.502534          -95.30880
      8       2.00000          -3.501684          -95.28567
      9       2.00000          -3.501684          -95.28567
     10       2.00000          -3.501684          -95.28567
     11       2.00000          -0.675293          -18.37567
     12       2.00000          -0.215450           -5.86270
     13       2.00000          -0.215450           -5.86270
     14       2.00000          -0.215450           -5.86270
     15       0.00000          -0.121485           -3.30577
     16       0.00000          -0.121485           -3.30577
     17       0.00000          -0.121485           -3.30577
     18       0.00000          -0.059815           -1.62766
     19       0.00000           0.072800            1.98100
     20       0.00000           0.072800            1.98100

  What follows are estimated values for band gap, HOMO, LUMO, etc.
  | They are estimated on a discrete k-point grid and not necessarily exact.
  | For converged numbers, create a DOS and/or band structure plot on a denser k-grid.

  Highest occupied state (VBM) at     -5.86270030 eV (relative to internal zero)
  | Occupation number:      2.00000000
  | K-point:       1 at    0.000000    0.000000    0.000000 (in units of recip. lattice)

  Lowest unoccupied state (CBM) at    -5.35404745 eV (relative to internal zero)
  | Occupation number:      0.00000000
  | K-point:       5 at    0.000000    0.666667    0.666667 (in units of recip. lattice)

  ESTIMATED overall HOMO-LUMO gap:      0.50865285 eV between HOMO at k-point 1 and LUMO at k-point 5
  | This appears to be an indirect band gap.
  | Smallest direct gap :      2.55693089 eV for k_point 1 at    0.000000    0.666667    0.666667 (in units of recip. lattice)
  The gap value is above 0.2 eV. Unless you are using a very sparse k-point grid,
  this system is most likely an insulator or a semiconductor.

  Self-consistency cycle converged.

  End self-consistency iteration #    13       :  max(cpu_time)    wall_clock(cpu1)
  | Time for this iteration                    :        2.223 s           2.229 s
  | Charge density update                      :        1.077 s           1.080 s
  | Density mixing                             :        0.047 s           0.048 s
  | Hartree multipole update                   :        0.001 s           0.000 s
  | Hartree multipole summation                :        0.441 s           0.442 s
  | Integration                                :        0.649 s           0.651 s
  | Solution of K.-S. eqns.                    :        0.008 s           0.008 s
  | Total energy evaluation                    :        0.000 s           0.000 s

  Partial memory accounting:
  | Current value for overall tracked memory usage on task 0  :           0.966 MB
  | Peak value for overall tracked memory usage on task 0     :           4.310 MB after allocating wave
  | Largest tracked array allocation on task 0 so far         :           2.122 MB  when allocating hamiltonian_shell
  Note:  These values currently only include a subset of arrays which are explicitly tracked.
  The "true" memory usage will be greater.
------------------------------------------------------------

  Energy and forces in a compact form:
  | Total energy uncorrected      :         -0.157474926294263E+05 eV
  | Total energy corrected        :         -0.157474926294263E+05 eV  <-- do not rely on this value for anything but (periodic) metals
  | Electronic free energy        :         -0.157474926294263E+05 eV

  ------------------------------------ 
  Start decomposition of the XC Energy 
  ------------------------------------ 
  X and C from original XC functional choice 
  Hartree-Fock Energy :          0.000000000 Ha              0.000000000 eV
  X Energy            :        -37.621182784 Ha          -1023.724470092 eV
  C Energy            :         -2.149626790 Ha            -58.494321106 eV
  Total XC Energy     :        -39.770809574 Ha          -1082.218791198 eV
  ------------------------------------ 
  LDA X and C from self-consistent density 
  X Energy LDA        :        -37.621182784 Ha          -1023.724470092 eV
  C Energy LDA        :         -2.149626790 Ha            -58.494321106 eV
  ------------------------------------ 
  End decomposition of the XC Energy 
  ------------------------------------ 

------------------------------------------------------------

------------------------------------------------------------------------------
  Final output of selected total energy values:

  The following output summarizes some interesting total energy values
  at the end of a run (AFTER all relaxation, molecular dynamics, etc.).

  | Total energy of the DFT / Hartree-Fock s.c.f. calculation      :         -15747.492629426 eV
  | Final zero-broadening corrected energy (caution - metals only) :         -15747.492629426 eV
  | For reference only, the value of 1 Hartree used in FHI-aims is :             27.211384500 eV

  Before relying on these values, please be sure to understand exactly which
  total energy value is referred to by a given number. Different objects may
  all carry the same name 'total energy'. Definitions:

  Total energy of the DFT / Hartree-Fock s.c.f. calculation:
  | Note that this energy does not include ANY quantities calculated after the
  | s.c.f. cycle, in particular not ANY RPA, MP2, etc. many-body perturbation terms.

  Final zero-broadening corrected energy:
  | For metallic systems only, a broadening of the occupation numbers at the Fermi
  | level can be extrapolated back to zero broadening by an electron-gas inspired
  | formula. For all systems that are not real metals, this value can be
  | meaningless and should be avoided.

------------------------------------------------------------------------------
  Methods described in the following list of references were used in this FHI-aims run.
  If you publish the results, please make sure to cite these reference if they apply.
  FHI-aims is an academic code, and for our developers (often, Ph.D. students
  and postdocs), scientific credit in the community is essential.
  Thank you for helping us!

  For any use of FHI-aims, please cite:

    Volker Blum, Ralf Gehrke, Felix Hanke, Paula Havu, Ville Havu,
    Xinguo Ren, Karsten Reuter, and Matthias Scheffler
    'Ab initio molecular simulations with numeric atom-centered orbitals'
    Computer Physics Communications 180, 2175-2196 (2009)
    http://dx.doi.org/10.1016/j.cpc.2009.06.022


  For the real-space grid partitioning and parallelization used in this calculation, please cite:

    Ville Havu, Volker Blum, Paula Havu, and Matthias Scheffler,
    'Efficient O(N) integration for all-electron electronic structure calculation'
    'using numerically tabulated basis functions'
    Journal of Computational Physics 228, 8367-8379 (2009).
    http://dx.doi.org/10.1016/j.jcp.2009.08.008

  Of course, there are many other important community references, e.g., those cited in the
  above references. Our list is limited to references that describe implementations in the
  FHI-aims code. The reason is purely practical (length of this list) - please credit others as well.

------------------------------------------------------------
          Leaving FHI-aims.
          Date     :  20190509, Time     :  175041.838

          Computational steps:
          | Number of self-consistency cycles          :           13
          | Number of SCF (re)initializations          :            1

          Detailed time accounting                     :  max(cpu_time)    wall_clock(cpu1)
          | Total time                                 :       31.304 s          31.342 s
          | Preparation time                           :        0.103 s           0.103 s
          | Boundary condition initalization           :        0.038 s           0.038 s
          | Grid partitioning                          :        0.036 s           0.036 s
          | Preloading free-atom quantities on grid    :        0.001 s           0.001 s
          | Free-atom superposition energy             :        0.035 s           0.035 s
          | Total time for integrations                :        9.837 s           9.848 s
          | Total time for solution of K.-S. equations :        0.129 s           0.129 s
          | Total time for density update              :       14.596 s          14.615 s
          | Total time for mixing & preconditioning    :        0.595 s           0.595 s
          | Total time for Hartree multipole update    :        0.011 s           0.011 s
          | Total time for Hartree multipole sum       :        5.727 s           5.735 s
          | Total time for total energy evaluation     :        0.001 s           0.000 s
          | Total time for scaled ZORA corrections     :        0.000 s           0.000 s

 This is a stub MPI_ALLREDUCE call.
 You should not be here. Check your
 setting on the use_mpi variable, or
 link against true MPI-libraries.
