------------------------------------------------------------
          Invoking FHI-aims ...
          Version 171221_1
          Compiled on 2019/05/06 at 14:26:40 on host ffph0xx.

          When using FHI-aims, please cite the following reference:

          Volker Blum, Ralf Gehrke, Felix Hanke, Paula Havu,
          Ville Havu, Xinguo Ren, Karsten Reuter, and Matthias Scheffler,
          'Ab Initio Molecular Simulations with Numeric Atom-Centered Orbitals',
          Computer Physics Communications 180, 2175-2196 (2009)

          For any questions about FHI-aims, please visit the aimsclub website
          with its forums and wiki. Contributions to both the forums and the
          wiki are warmly encouraged - they are for you, and everyone is welcome there.

------------------------------------------------------------



  Date     :  20190508, Time     :  170402.513
  Time zero on CPU 1             :   0.109100000000000E-02  s.
  Internal wall clock time zero  :           326567042.513  s.

  FHI-aims created a unique identifier for this run for later identification
  aims_uuid : EB8DAA08-7401-46CD-AE9F-4B06C6FF503D


  Performing system and environment tests:
  *** Environment variable OMP_NUM_THREADS is not set
  *** For performance reasons you might want to set it to 1
  | Stacksize not measured: no C compiler

  Obtaining array dimensions for all initial allocations:
  
  -----------------------------------------------------------------------
  Parsing control.in (first pass over file, find array dimensions only).
  The contents of control.in will be repeated verbatim below
  unless switched off by setting 'verbatim_writeout .false.' .
  in the first line of control.in .
  -----------------------------------------------------------------------
  
  # Relaxation of the H3O+ molecule
  #--- Method ---
    xc  pw-lda
    charge 1.0 # this gives the cation
    spin none
  
  #######Iteration limit####################
    sc_iter_limit 100
  
  #######Relaxation######################
    ##############relax_geometry trm 1E-3
  
  #######Species#########################
  ################################################################################
  #
  #  FHI-aims code project
  #  VB, Fritz-Haber Institut, 2009
  #
  #  Suggested "light" defaults for H atom (to be pasted into control.in file)
  #  Be sure to double-check any results obtained with these settings for post-processing,
  #  e.g., with the "tight" defaults and larger basis sets.
  #
  ################################################################################
    species        H
  #     global species definitions
      nucleus             1
      mass                1.00794
  #
      l_hartree           4
  #
      cut_pot             3.5  1.5  1.0
      basis_dep_cutoff    1e-4
  #
      radial_base         24 5.0
      radial_multiplier   1
      angular_grids       specified
        division   0.2421   50
        division   0.3822  110
        division   0.4799  194
        division   0.5341  302
  #      division   0.5626  434
  #      division   0.5922  590
  #      division   0.6542  770
  #      division   0.6868 1202
  #      outer_grid  770
        outer_grid  302
  ################################################################################
  #
  #  Definition of "minimal" basis
  #
  ################################################################################
  #     valence basis states
      valence      1  s   1.
  #     ion occupancy
      ion_occ      1  s   0.5
  ################################################################################
  #
  #  Suggested additional basis functions. For production calculations,
  #  uncomment them one after another (the most important basis functions are
  #  listed first).
  #
  #  Basis constructed for dimers: 0.5 A, 0.7 A, 1.0 A, 1.5 A, 2.5 A
  #
  ################################################################################
  #  "First tier" - improvements: -1014.90 meV to -62.69 meV
       hydro 2 s 2.1
       hydro 2 p 3.5
  #  "Second tier" - improvements: -12.89 meV to -1.83 meV
  #     hydro 1 s 0.85
  #     hydro 2 p 3.7
  #     hydro 2 s 1.2
  #     hydro 3 d 7
  #  "Third tier" - improvements: -0.25 meV to -0.12 meV
  #     hydro 4 f 11.2
  #     hydro 3 p 4.8
  #     hydro 4 d 9
  #     hydro 3 s 3.2
  ################################################################################
  #
  #  FHI-aims code project
  #  VB, Fritz-Haber Institut, 2009
  #
  #  Suggested "light" defaults for O atom (to be pasted into control.in file)
  #  Be sure to double-check any results obtained with these settings for post-processing,
  #  e.g., with the "tight" defaults and larger basis sets.
  #
  ################################################################################
    species        O
  #     global species definitions
      nucleus             8
      mass                15.9994
  #
      l_hartree           4
  #
      cut_pot             3.5  1.5  1.0
      basis_dep_cutoff    1e-4
  #
      radial_base         36 5.0
      radial_multiplier   1
       angular_grids specified
        division   0.2659   50
        division   0.4451  110
        division   0.6052  194
        division   0.7543  302
  #      division   0.8014  434
  #      division   0.8507  590
  #      division   0.8762  770
  #      division   0.9023  974
  #      division   1.2339 1202
  #      outer_grid 974
        outer_grid 302
  ################################################################################
  #
  #  Definition of "minimal" basis
  #
  ################################################################################
  #     valence basis states
      valence      2  s   2.
      valence      2  p   4.
  #     ion occupancy
      ion_occ      2  s   1.
      ion_occ      2  p   3.
  ################################################################################
  #
  #  Suggested additional basis functions. For production calculations,
  #  uncomment them one after another (the most important basis functions are
  #  listed first).
  #
  #  Constructed for dimers: 1.0 A, 1.208 A, 1.5 A, 2.0 A, 3.0 A
  #
  ################################################################################
  #  "First tier" - improvements: -699.05 meV to -159.38 meV
       hydro 2 p 1.8
       hydro 3 d 7.6
       hydro 3 s 6.4
  #  "Second tier" - improvements: -49.91 meV to -5.39 meV
  #     hydro 4 f 11.6
  #     hydro 3 p 6.2
  #     hydro 3 d 5.6
  #     hydro 5 g 17.6
  #     hydro 1 s 0.75
  #  "Third tier" - improvements: -2.83 meV to -0.50 meV
  #     ionic 2 p auto
  #     hydro 4 f 10.8
  #     hydro 4 d 4.7
  #     hydro 2 s 6.8
  #  "Fourth tier" - improvements: -0.40 meV to -0.12 meV
  #     hydro 3 p 5
  #     hydro 3 s 3.3
  #     hydro 5 g 15.6
  #     hydro 4 f 17.6
  #     hydro 4 d 14
  # Further basis functions - -0.08 meV and below
  #     hydro 3 s 2.1
  #     hydro 4 d 11.6
  #     hydro 3 p 16
  #     hydro 2 s 17.2
  /afs/ictp.it/public/shared/smr2475/fhi-aims/species_defaults/light/01_H_default
  compute_forces .true.
  final_forces_cleaned .true.
  output dipole
  
  -----------------------------------------------------------------------
  Completed first pass over input file control.in .
  -----------------------------------------------------------------------
  
  
  -----------------------------------------------------------------------
  Parsing geometry.in (first pass over file, find array dimensions only).
  The contents of geometry.in will be repeated verbatim below
  unless switched off by setting 'verbatim_writeout .false.' .
  in the first line of geometry.in .
  -----------------------------------------------------------------------
  
  #
  # temporary structure-file for finite-difference calculation of forces
  # displacement   0.0020 of \# atom     2 direction     0
  #
  atom   -0.00000000   -0.00002910    0.00000000   O
  atom    0.85488761   -0.49352200   -0.00000000   H
  atom   -0.85288761   -0.49352200   -0.00000000   H
  atom   -0.00000000    0.98707310   -0.00000000   H
  
  -----------------------------------------------------------------------
  Completed first pass over input file geometry.in .
  -----------------------------------------------------------------------
  

  Basic array size parameters:
  | Number of species                 :        2
  | Number of atoms                   :        4
  | Max. basis fn. angular momentum   :        2
  | Max. atomic/ionic basis occupied n:        2
  | Max. number of basis fn. types    :        2
  | Max. radial fns per species/type  :        3
  | Max. logarithmic grid size        :     1301
  | Max. radial integration grid size :       36
  | Max. angular integration grid size:      302
  | Max. angular grid division number :        8
  | Radial grid for Hartree potential :     1301
  | Number of spin channels           :        1

------------------------------------------------------------
          Reading file control.in.
------------------------------------------------------------
  XC: Using Perdew-Wang parametrisation of Ceperley-Alder LDA.
  Charged system requested: Charge =   0.100000E+01.
  Spin treatment: No spin polarisation.
  Maximum number of s.-c. iterations  :   100

  Reading configuration options for species H                   .
  | Found nuclear charge :   1.0000
  | Found atomic mass :    1.0079400000000001      amu
  | Found l_max for Hartree potential  :   4
  | Found cutoff potl. onset [A], width [A], scale factor :    3.50000    1.50000    1.00000
  | Threshold for basis-dependent cutoff potential is   0.100000E-03
  | Found data for basic radial integration grid :    24 points, outermost radius =    5.000 A
  | Found multiplier for basic radial grid :   1
  | Found angular grid specification: user-specified.
  | Specified grid contains     5 separate shells.
  | Check grid settings after all constraints further below.
  | Found free-atom valence shell :  1 s   1.000
  | No ionic wave fns used. Skipping ion_occ.
  | Found hydrogenic basis function :  2 s   2.100
  | Found hydrogenic basis function :  2 p   3.500
  Species H                   : Missing cutoff potential type.
  Defaulting to exp(1/x)/(1-x)^2 type cutoff potential.
  Species H : No 'logarithmic' tag. Using default grid for free atom:
  | Default logarithmic grid data [bohr] : 0.1000E-03 0.1000E+03 0.1012E+01
  Species H : On-site basis accuracy parameter (for Gram-Schmidt orthonormalisation) not specified.
  Using default value basis_acc =  0.1000000E-03.
  Species H                   : Using default innermost maximum threshold i_radial=  2 for radial functions.
  Species H                   : Default cutoff onset for free atom density etc. : 0.35000000E+01 AA.
  Species H                   : Basic radial grid will be enhanced according to radial_multiplier =   1, to contain    24 grid points.

  Reading configuration options for species O                   .
  | Found nuclear charge :   8.0000
  | Found atomic mass :    15.999400000000000      amu
  | Found l_max for Hartree potential  :   4
  | Found cutoff potl. onset [A], width [A], scale factor :    3.50000    1.50000    1.00000
  | Threshold for basis-dependent cutoff potential is   0.100000E-03
  | Found data for basic radial integration grid :    36 points, outermost radius =    5.000 A
  | Found multiplier for basic radial grid :   1
  | Found angular grid specification: user-specified.
  | Specified grid contains     5 separate shells.
  | Check grid settings after all constraints further below.
  | Found free-atom valence shell :  2 s   2.000
  | Found free-atom valence shell :  2 p   4.000
  | No ionic wave fns used. Skipping ion_occ.
  | No ionic wave fns used. Skipping ion_occ.
  | Found hydrogenic basis function :  2 p   1.800
  | Found hydrogenic basis function :  3 d   7.600
  | Found hydrogenic basis function :  3 s   6.400
  Species O                   : Missing cutoff potential type.
  Defaulting to exp(1/x)/(1-x)^2 type cutoff potential.
  Species O : No 'logarithmic' tag. Using default grid for free atom:
  | Default logarithmic grid data [bohr] : 0.1000E-03 0.1000E+03 0.1012E+01
  Species O : On-site basis accuracy parameter (for Gram-Schmidt orthonormalisation) not specified.
  Using default value basis_acc =  0.1000000E-03.
  Species O                   : Using default innermost maximum threshold i_radial=  2 for radial functions.
  Species O                   : Default cutoff onset for free atom density etc. : 0.35000000E+01 AA.
  Species O                   : Basic radial grid will be enhanced according to radial_multiplier =   1, to contain    36 grid points.
  Forces will be computed.
  Cleaning forces before final output.
  Dipole moment will be written out.

  Finished reading input file 'control.in'. Consistency checks are next.

  MPI_IN_PLACE appears to work with this MPI implementation.
  | Keeping use_mpi_in_place .true. (see manual).
  Target number of points in a grid batch is not set. Defaulting to  100
  Method for grid partitioning is not set. Defaulting to 'maxmin' partitioning.
  Batch size limit is not set. Defaulting to    200
  By default, will store active basis functions for each batch.
  If in need of memory, prune_basis_once .false. can be used to disable this option.
  communication_type for Hartree potential was not specified.
  Defaulting to calc_hartree .
 * Attention: 
 * You may want to set distributed_spline_storage to .true. in order to save memory.
 * This doesn't harm performance and is perfectly ok unless:
 * - you get error messages in postprocessing (about missing atoms in get_rho_multipole_spl)
 * - you need full spline storage in hirshfeld_analysis
  Defaulting to Pulay charge density mixer.
  Pulay mixer: Number of relevant iterations not set.
  Defaulting to    8 iterations.
  Pulay mixer: Number of initial linear mixing iterations not set.
  Defaulting to    0 iterations.
  Work space size for distributed Hartree potential not set.
  Defaulting to   0.200000E+03 MB.
  Mixing parameter for charge density mixing has not been set.
  Using default: charge_mix_param =     0.0500.
  The mixing parameter will be adjusted in iteration number     2 of the first full s.c.f. cycle only.
  Algorithm-dependent basis array size parameters:
  | n_max_pulay                         :        8
 * Notice: The s.c.f. convergence criterion sc_accuracy_rho was not provided.
 * We used to stop in this case, and ask the user to provide reasonable
 * scf convergence criteria. However, this led some users to employ criteria
 * that led to extremely long run times, e.g., for simple relaxation.
 * We now preset a default value for sc_accuracy_rho if it is not set.
 * You may still wish to check if this setting is too tight or too loose for your needs.
 * Based on n_atoms, FHI-aims chose sc_accuracy_rho =  0.100000E-05 .
  Presetting      1001 iterations before the initial mixing cycle
  is restarted anyway using the sc_init_iter criterion / keyword.
  Presetting a factor      1.000 between actual scf density residual
  and density convergence criterion sc_accuracy_rho below which sc_init_iter
  takes no effect.
 * No s.c.f. convergence criteria (sc_accuracy_*) were provided in control.in.
 * The run will proceed with a reasonable default guess, but please check whether.
 * the s.c.f. cycles seem to take too much or too little time.
  Geometry relaxation not requested: no relaxation will be performed.
  Force calculation: scf convergence accuracy of forces not set.
  Defaulting to 'sc_accuracy_forces not_checked'.
  Handling of forces: Unphysical translation and rotation will be removed from forces.
  No accuracy limit for integral partition fn. given. Defaulting to  0.1000E-14.
  No threshold value for u(r) in integrations given. Defaulting to  0.1000E-05.
  No occupation type (smearing scheme) given. Defaulting to Gaussian broadening, width =  0.1000E-01 eV.
  The width will be adjusted in iteration number     2 of the first full s.c.f. cycle only.
  S.C.F. convergence parameters will be adjusted in iteration number     2 of the first full s.c.f. cycle only.
  No accuracy for occupation numbers given. Defaulting to  0.1000E-12.
  No threshold value for occupation numbers given. Defaulting to  0.0000E+00.
  No accuracy for fermi level given. Defaulting to  0.1000E-19.
  Maximum # of iterations to find E_F not set. Defaulting to  200.
  Preferred method for the eigenvalue solver ('KS_method') not specified in 'control.in'.
  Defaulting to serial version, 'lapack_fast'.
  Will not use alltoall communication since running on < 1024 CPUs.
  Threshold for basis singularities not set.
  Default threshold for basis singularities:  0.1000E-04
  partition_type (choice of integration weights) for integrals was not specified.
  | Using a version of the partition function of Stratmann and coworkers ('stratmann_smoother').
  | At each grid point, the set of atoms used to build the partition table is smoothly restricted to
  | only those atoms whose free-atom density would be non-zero at that grid point.
  Partitioning for Hartree potential was not defined. Using partition_type for integrals.
  | Adjusted default value of keyword multip_moments_threshold to:       0.10000000E-11
  | This value may affect high angular momentum components of the Hartree potential in periodic systems.
  No q(lm)/r^(l+1) cutoff set for long-range Hartree potential.
  | Using default value of  0.100000E-09 .
  | Verify using the multipole_threshold keyword.
  Defaulting to new monopole extrapolation.
  Density update method: automatic selection selected.
------------------------------------------------------------


------------------------------------------------------------
          Reading geometry description geometry.in.
------------------------------------------------------------
 * Warning: Initial charge and total charge of the system are inconsistent.
 * Selected charge in control.in:     1.0000* Sum of initial charges in geometry.in:     0.0000
 * Warning! You did not set the 'relativistic' flag in input file 'control.in'.
 * Since you are not attempting to treat any elements beyond Ca(Z=20), FHI-aims
 * will default to 'relativistic none'.
 * You must ensure that this is really what you want!!
 * For example, DO NOT compute total-energy differences between results from
 * different settings of the 'relativistic' flag.
  Input structure read successfully.
  The structure contains        4 atoms,  and a total of         10.000 electrons.

  Input geometry:
  | No unit cell requested.
  | Atomic structure:
  |       Atom                x [A]            y [A]            z [A]
  |    1: Species O            -0.00000000       -0.00002910        0.00000000
  |    2: Species H             0.85488761       -0.49352200       -0.00000000
  |    3: Species H            -0.85288761       -0.49352200       -0.00000000
  |    4: Species H            -0.00000000        0.98707310       -0.00000000
  |

  | The smallest distance between any two atoms is         0.98536923 AA.
  |
  | The first atom of this pair is atom number                      1 .
  | The second atom of this pair is atom number                     3 .

  Number of empty states per atom not set in control.in - providing a guess from actual geometry.
  | Total number of empty states used during s.c.f. cycle:        8
  If you use a very high smearing, use empty_states (per atom!) in control.in to increase this value.

  Structure-dependent array size parameters: 
  | Maximum number of distinct radial functions  :        9
  | Maximum number of basis functions            :       29
  | Number of Kohn-Sham states (occupied + empty):       13
------------------------------------------------------------

------------------------------------------------------------
          Preparing all fixed parts of the calculation.
------------------------------------------------------------
  Determining machine precision:
     2.2250738585072014E-308
  Setting up grids for atomic and cluster calculations.

  Creating wave function, potential, and density for free atoms.

  Species: H

  List of occupied orbitals and eigenvalues:
    n    l              occ      energy [Ha]    energy [eV]
    1    0           1.0000        -0.232375        -6.3233


  Species: O

  List of occupied orbitals and eigenvalues:
    n    l              occ      energy [Ha]    energy [eV]
    1    0           2.0000       -18.757744      -510.4242
    2    0           2.0000        -0.870917       -23.6989
    2    1           4.0000        -0.337950        -9.1961

  Creating fixed part of basis set: Ionic, confined, hydrogenic.

  H                    hydrogenic:

  List of hydrogenic basis orbitals: 
    n    l      effective z      eigenvalue [eV]  inner max. [A]     outer max. [A]     outer radius [A]   
    2    0         2.100000       -14.9728           0.193243           1.317208           4.583499
    2    1         3.500000       -41.6669           0.602369           0.602369           3.723403


  O                    hydrogenic:

  List of hydrogenic basis orbitals: 
    n    l      effective z      eigenvalue [eV]  inner max. [A]     outer max. [A]     outer radius [A]   
    2    1         1.800000       -10.9749           1.164242           1.164242           4.578029
    3    2         7.600000       -87.3180           0.624125           0.624125           3.251020
    3    0         6.400000       -61.9207           0.061167           1.081902           4.001998


  Adding cutoff potential to free-atom effective potential.
  Creating atomic-like basis functions for current effective potential.

  Species H                   :

  List of atomic basis orbitals and eigenvalues:
    n    l      energy [Ha]    energy [eV]    outer radius [A]
    1    0        -0.232375        -6.3233       4.527807


  Species O                   :

  List of atomic basis orbitals and eigenvalues:
    n    l      energy [Ha]    energy [eV]    outer radius [A]
    1    0       -18.757744      -510.4242       1.433179
    2    0        -0.870917       -23.6989       4.413171
    2    1        -0.337950        -9.1961       4.522403

  Assembling full basis from fixed parts.
  | Species H :   atomic orbital   1 s accepted.
  | Species H :    hydro orbital   2 s accepted.
  | Species H :    hydro orbital   2 p accepted.
  | Species O :   atomic orbital   1 s accepted.
  | Species O :    hydro orbital   3 s accepted.
  | Species O :   atomic orbital   2 s accepted.
  | Species O :   atomic orbital   2 p accepted.
  | Species O :    hydro orbital   2 p accepted.
  | Species O :    hydro orbital   3 d accepted.

  Basis size parameters after reduction:
  | Total number of radial functions:        9
  | Total number of basis functions :       29

  Per-task memory consumption for arrays in subroutine allocate_ext:
  |           2.249476MB.
  Testing on-site integration grid accuracy.
  |  Species  Function  <phi|h_atom|phi> (log., in eV)  <phi|h_atom|phi> (rad., in eV)
           1        1                 -6.3245358373                 -6.3232436907
           1        2                 14.1326137532                 14.1384481100
           1        3                 25.3627025200                 25.3628451197
           2        4               -510.4241781769               -510.4240769412
           2        5                 14.9072942218                 14.9072945276
           2        6                -21.2004736467                -21.2005650544
           2        7                 -9.1962086499                 -9.1963509828
           2        8                  8.1896755011                  8.1702200086
           2        9                 45.7920584945                 45.7920228528

  Preparing densities etc. for the partition functions (integrals / Hartree potential).

  Preparations completed.
  max(cpu_time)          :      0.046 s.
  Wall clock time (cpu1) :      0.046 s.
------------------------------------------------------------

------------------------------------------------------------
          Begin self-consistency loop: Initialization.

          Date     :  20190508, Time     :  170402.561
------------------------------------------------------------

  Initializing index lists of integration centers etc. from given atomic structure:
  | Number of centers in hartree potential         :         4
  | Number of centers in hartree multipole         :         4
  | Number of centers in electron density summation:         4
  | Number of centers in basis integrals           :         4
  | Number of centers in integrals                 :         4
  | Number of centers in hamiltonian               :         4
  Partitioning the integration grid into batches with maxmin method.
  | Maximal weight for a single point:     1.000
  | Minimal weight for a single point:     0.000
  | Number of batches:      256
  | Maximal batch size:      90
  | Minimal batch size:      72
  | Average batch size:      80.719
  | Standard deviation of batch sizes:       6.450
  Initializing partition tables, free-atom densities, potentials, etc. across the integration grid (initialize_grid_storage).
  | initialize_grid_storage: Actual outermost partition radius vs. multipole_radius_free
  | (-- VB: in principle, multipole_radius_free should be larger, hence this output)
  | Species        1: Confinement radius =              4.999999999999999 AA, multipole_radius_free =              5.054417573612229 AA.
  | Species        1: outer_partition_radius set to              5.054417573612229 AA .
  | Species        2: Confinement radius =              4.999999999999999 AA, multipole_radius_free =              5.048384829883283 AA.
  | Species        2: outer_partition_radius set to              5.048384829883283 AA .
  | Original list of interatomic distances with           4 x          4 entries is created.
  | Net number of integration points:    20664
  | of which are non-zero points    :    18430
  Renormalizing the initial density to the exact electron count on the 3D integration grid.
  | Initial density: Formal number of electrons (from input files) :      11.0000000000
  | Integrated number of electrons on 3D grid     :      10.9999404085
  | Charge integration error                      :      -0.0000595915
  | Normalization factor for density and gradient :       1.0000054174
  Obtaining max. number of non-zero basis functions in each batch (get_n_compute_maxes).
  | Maximal number of non-zero basis functions:       29 in task     0
  Selecting the method for density update.
  Loop over occupied states selected for charge density update.
  Allocating        0.003 MB for KS_eigenvector
  Integrating Hamiltonian matrix: batch-based integration.
  Time summed over all CPUs for integration: real work        0.029 s, elapsed        0.029 s
  Integrating overlap matrix.
  Time summed over all CPUs for integration: real work        0.015 s, elapsed        0.015 s

  Updating Kohn-Sham eigenvalues, eigenvectors, occupation numbers, and Fermi level.
  Solving generalized eigenproblem
  Updating Kohn-Sham eigenvalues and eigenfunctions.
  Transforming overlap matrix and checking for singularities.
  Overlap matrix is nonsingular:
  | Lowest eigenvalue:  0.120189E-01
  Solving real generalised eigenvalue problem by standard LAPACK (fast)

  Obtaining occupation numbers and chemical potential using ELSI.
  | Chemical potential (Fermi level):    -6.56536834eV
  Writing Kohn-Sham eigenvalues.

  State    Occupation    Eigenvalue [Ha]    Eigenvalue [eV]
      1       2.00000         -18.915302         -514.71155
      2       2.00000          -1.148876          -31.26251
      3       2.00000          -0.685855          -18.66305
      4       2.00000          -0.685289          -18.64768
      5       2.00000          -0.492169          -13.39259
      6       0.00000          -0.091489           -2.48955
      7       0.00000           0.005449            0.14826
      8       0.00000           0.005933            0.16145
      9       0.00000           0.209615            5.70391
     10       0.00000           0.264632            7.20101
     11       0.00000           0.265029            7.21180
     12       0.00000           0.427973           11.64573
     13       0.00000           0.677122           18.42543

  Highest occupied state (VBM) at    -13.39259362 eV
  | Occupation number:      2.00000000

  Lowest unoccupied state (CBM) at    -2.48955272 eV
  | Occupation number:      0.00000000

  Overall HOMO-LUMO gap:     10.90304090 eV.
  Calculating total energy contributions from superposition of free atom densities.

  Total energy components:
  | Sum of eigenvalues            :         -43.85498138 Ha       -1193.35476050 eV
  | XC energy correction          :          -8.86502894 Ha        -241.22971105 eV
  | XC potential correction       :          11.67319860 Ha         317.64389558 eV
  | Free-atom electrostatic energy:         -35.26428140 Ha        -959.58992030 eV
  | Hartree energy correction     :          -0.00000000 Ha          -0.00000000 eV
  | Entropy correction            :          -0.00000000 Ha          -0.00000000 eV
  | ---------------------------
  | Total energy                  :         -76.31109311 Ha       -2076.53049628 eV
  | Total energy, T -> 0          :         -76.31109311 Ha       -2076.53049628 eV  <-- do not rely on this value for anything but (periodic) metals
  | Electronic free energy        :         -76.31109311 Ha       -2076.53049628 eV

  Derived energy quantities:
  | Kinetic energy                :          75.66719439 Ha        2059.00912070 eV
  | Electrostatic energy          :        -143.11325857 Ha       -3894.30990592 eV
  | Energy correction for multipole
  | error in Hartree potential    :           0.00000000 Ha           0.00000000 eV
  | Sum of eigenvalues per atom                           :        -298.33869013 eV
  | Total energy (T->0) per atom                          :        -519.13262407 eV  <-- do not rely on this value for anything but (periodic) metals
  | Electronic free energy per atom                       :        -519.13262407 eV
  Initialize hartree_potential_storage
  Max. number of atoms included in rho_multipole:            4

  End scf initialization - timings             :  max(cpu_time)    wall_clock(cpu1)
  | Time for scf. initialization               :        0.084 s           0.084 s
  | Boundary condition initialization          :        0.000 s           0.000 s
  | Integration                                :        0.044 s           0.044 s
  | Solution of K.-S. eqns.                    :        0.001 s           0.001 s
  | Grid partitioning                          :        0.014 s           0.014 s
  | Preloading free-atom quantities on grid    :        0.001 s           0.001 s
  | Free-atom superposition energy             :        0.012 s           0.012 s
  | Total energy evaluation                    :        0.000 s           0.000 s

  Partial memory accounting:
  | Current value for overall tracked memory usage on task 0  :           0.017 MB
  | Peak value for overall tracked memory usage on task 0     :           0.080 MB after allocating wave
  | Largest tracked array allocation on task 0 so far         :           0.021 MB  when allocating H_times_psi
  Note:  These values currently only include a subset of arrays which are explicitly tracked.
  The "true" memory usage will be greater.
------------------------------------------------------------

------------------------------------------------------------
          Begin self-consistency iteration #    1

  Date     :  20190508, Time     :  170402.645
------------------------------------------------------------
  Evaluating new KS density.
  Integration grid: deviation in total charge (<rho> - N_e) =  -1.776357E-15
  Pulay mixing of updated and previous charge densities.

  Evaluating partitioned Hartree potential by multipole expansion.
  | Analytical far-field extrapolation by fixed multipoles:
  | Hartree multipole sum: apparent total charge =   0.499199E-01
  Summing up the Hartree potential.
  Time summed over all CPUs for potential: real work        0.017 s, elapsed        0.017 s
  | RMS charge density error from multipole expansion :   0.543016E-03

  Integrating Hamiltonian matrix: batch-based integration.
  Time summed over all CPUs for integration: real work        0.029 s, elapsed        0.029 s

  Updating Kohn-Sham eigenvalues, eigenvectors, occupation numbers, and Fermi level.
  Solving generalized eigenproblem
  Updating Kohn-Sham eigenvalues and eigenfunctions.
  Solving real generalised eigenvalue problem by standard LAPACK (fast)

  Obtaining occupation numbers and chemical potential using ELSI.
  | Chemical potential (Fermi level):    -6.76865895eV
  Writing Kohn-Sham eigenvalues.

  State    Occupation    Eigenvalue [Ha]    Eigenvalue [eV]
      1       2.00000         -18.904338         -514.41322
      2       2.00000          -1.152187          -31.35260
      3       2.00000          -0.690740          -18.79599
      4       2.00000          -0.690185          -18.78088
      5       2.00000          -0.494247          -13.44913
      6       0.00000          -0.101527           -2.76269
      7       0.00000          -0.003794           -0.10323
      8       0.00000          -0.003299           -0.08977
      9       0.00000           0.202591            5.51279
     10       0.00000           0.254479            6.92473
     11       0.00000           0.254881            6.93566
     12       0.00000           0.417727           11.36694
     13       0.00000           0.668745           18.19747

  Highest occupied state (VBM) at    -13.44913351 eV
  | Occupation number:      2.00000000

  Lowest unoccupied state (CBM) at    -2.76269391 eV
  | Occupation number:      0.00000000

  Overall HOMO-LUMO gap:     10.68643960 eV.

  Total energy components:
  | Sum of eigenvalues            :         -43.86339347 Ha       -1193.58366513 eV
  | XC energy correction          :          -8.86893959 Ha        -241.33612542 eV
  | XC potential correction       :          11.67857449 Ha         317.79018097 eV
  | Free-atom electrostatic energy:         -35.26428140 Ha        -959.58992030 eV
  | Hartree energy correction     :           0.02501492 Ha           0.68069053 eV
  | Entropy correction            :          -0.00000000 Ha          -0.00000000 eV
  | ---------------------------
  | Total energy                  :         -76.29302505 Ha       -2076.03883935 eV
  | Total energy, T -> 0          :         -76.29302505 Ha       -2076.03883935 eV  <-- do not rely on this value for anything but (periodic) metals
  | Electronic free energy        :         -76.29302505 Ha       -2076.03883935 eV

  Derived energy quantities:
  | Kinetic energy                :          75.76081224 Ha        2061.55659194 eV
  | Electrostatic energy          :        -143.18489770 Ha       -3896.25930586 eV
  | Energy correction for multipole
  | error in Hartree potential    :           0.00057179 Ha           0.01555928 eV
  | Sum of eigenvalues per atom                           :        -298.39591628 eV
  | Total energy (T->0) per atom                          :        -519.00970984 eV  <-- do not rely on this value for anything but (periodic) metals
  | Electronic free energy per atom                       :        -519.00970984 eV

  Self-consistency convergence accuracy:
  | Change of charge density      :  0.2704E+00
  | Change of sum of eigenvalues  : -0.2289E+00 eV
  | Change of total energy        :  0.4917E+00 eV

  End self-consistency iteration #     1       :  max(cpu_time)    wall_clock(cpu1)
  | Time for this iteration                    :        0.061 s           0.061 s
  | Charge density update                      :        0.013 s           0.013 s
  | Density mixing                             :        0.000 s           0.001 s
  | Hartree multipole update                   :        0.001 s           0.001 s
  | Hartree multipole summation                :        0.017 s           0.017 s
  | Integration                                :        0.029 s           0.029 s
  | Solution of K.-S. eqns.                    :        0.000 s           0.000 s
  | Total energy evaluation                    :        0.000 s           0.000 s

  Partial memory accounting:
  | Current value for overall tracked memory usage on task 0  :           0.017 MB
  | Peak value for overall tracked memory usage on task 0     :           0.086 MB after allocating wave
  | Largest tracked array allocation on task 0 so far         :           0.021 MB  when allocating H_times_psi
  Note:  These values currently only include a subset of arrays which are explicitly tracked.
  The "true" memory usage will be greater.
------------------------------------------------------------

------------------------------------------------------------
          Begin self-consistency iteration #    2

  Date     :  20190508, Time     :  170402.706
------------------------------------------------------------
  Evaluating new KS density.
  Integration grid: deviation in total charge (<rho> - N_e) =  -1.065814E-14
  Pulay mixing of updated and previous charge densities.

  Evaluating partitioned Hartree potential by multipole expansion.
  | Analytical far-field extrapolation by fixed multipoles:
  | Hartree multipole sum: apparent total charge =   0.445214E+00
  Summing up the Hartree potential.
  Time summed over all CPUs for potential: real work        0.017 s, elapsed        0.017 s
  | RMS charge density error from multipole expansion :   0.477976E-02

  Integrating Hamiltonian matrix: batch-based integration.
  Time summed over all CPUs for integration: real work        0.028 s, elapsed        0.028 s

  Updating Kohn-Sham eigenvalues, eigenvectors, occupation numbers, and Fermi level.
  Solving generalized eigenproblem
  Updating Kohn-Sham eigenvalues and eigenfunctions.
  Solving real generalised eigenvalue problem by standard LAPACK (fast)

  Obtaining occupation numbers and chemical potential using ELSI.
  | Chemical potential (Fermi level):    -8.41450144eV
  Highest occupied state (VBM) at    -14.14802163 eV
  | Occupation number:      2.00000000

  Lowest unoccupied state (CBM) at    -4.89150401 eV
  | Occupation number:      0.00000000

  Overall HOMO-LUMO gap:      9.25651762 eV.

  Checking to see if s.c.f. parameters should be adjusted.
  The system likely has a gap. Increased the default Pulay mixing parameter (charge_mix_param). Value:   0.200000 .
  Kept the default occupation width. Value:   0.010000 eV.

  Total energy components:
  | Sum of eigenvalues            :         -44.03441277 Ha       -1198.23733707 eV
  | XC energy correction          :          -8.89894583 Ha        -242.15263654 eV
  | XC potential correction       :          11.71979538 Ha         318.91185837 eV
  | Free-atom electrostatic energy:         -35.26428140 Ha        -959.58992030 eV
  | Hartree energy correction     :           0.27356737 Ha           7.44414686 eV
  | Entropy correction            :          -0.00000000 Ha          -0.00000000 eV
  | ---------------------------
  | Total energy                  :         -76.20427725 Ha       -2073.62388868 eV
  | Total energy, T -> 0          :         -76.20427725 Ha       -2073.62388868 eV  <-- do not rely on this value for anything but (periodic) metals
  | Electronic free energy        :         -76.20427725 Ha       -2073.62388868 eV

  Derived energy quantities:
  | Kinetic energy                :          76.33449598 Ha        2077.16732079 eV
  | Electrostatic energy          :        -143.63982740 Ha       -3908.63857293 eV
  | Energy correction for multipole
  | error in Hartree potential    :           0.00479297 Ha           0.13042336 eV
  | Sum of eigenvalues per atom                           :        -299.55933427 eV
  | Total energy (T->0) per atom                          :        -518.40597217 eV  <-- do not rely on this value for anything but (periodic) metals
  | Electronic free energy per atom                       :        -518.40597217 eV

  Self-consistency convergence accuracy:
  | Change of charge density      :  0.2444E+00
  | Change of sum of eigenvalues  : -0.4654E+01 eV
  | Change of total energy        :  0.2415E+01 eV

  End self-consistency iteration #     2       :  max(cpu_time)    wall_clock(cpu1)
  | Time for this iteration                    :        0.059 s           0.059 s
  | Charge density update                      :        0.012 s           0.012 s
  | Density mixing                             :        0.000 s           0.000 s
  | Hartree multipole update                   :        0.001 s           0.001 s
  | Hartree multipole summation                :        0.017 s           0.017 s
  | Integration                                :        0.028 s           0.028 s
  | Solution of K.-S. eqns.                    :        0.000 s           0.000 s
  | Total energy evaluation                    :        0.000 s           0.000 s

  Partial memory accounting:
  | Current value for overall tracked memory usage on task 0  :           0.018 MB
  | Peak value for overall tracked memory usage on task 0     :           0.087 MB after allocating wave
  | Largest tracked array allocation on task 0 so far         :           0.021 MB  when allocating H_times_psi
  Note:  These values currently only include a subset of arrays which are explicitly tracked.
  The "true" memory usage will be greater.
------------------------------------------------------------

------------------------------------------------------------
          Begin self-consistency iteration #    3

  Date     :  20190508, Time     :  170402.765
------------------------------------------------------------
  Evaluating new KS density.
  Integration grid: deviation in total charge (<rho> - N_e) =   3.197442E-14
  Pulay mixing of updated and previous charge densities.

  Evaluating partitioned Hartree potential by multipole expansion.
  | Analytical far-field extrapolation by fixed multipoles:
  | Hartree multipole sum: apparent total charge =   0.845355E+00
  Summing up the Hartree potential.
  Time summed over all CPUs for potential: real work        0.016 s, elapsed        0.016 s
  | RMS charge density error from multipole expansion :   0.870222E-02

  Integrating Hamiltonian matrix: batch-based integration.
  Time summed over all CPUs for integration: real work        0.029 s, elapsed        0.029 s

  Updating Kohn-Sham eigenvalues, eigenvectors, occupation numbers, and Fermi level.
  Solving generalized eigenproblem
  Updating Kohn-Sham eigenvalues and eigenfunctions.
  Solving real generalised eigenvalue problem by standard LAPACK (fast)

  Obtaining occupation numbers and chemical potential using ELSI.
  | Chemical potential (Fermi level):   -11.25482382eV
  Highest occupied state (VBM) at    -17.61102998 eV
  | Occupation number:      2.00000000

  Lowest unoccupied state (CBM) at    -7.49522276 eV
  | Occupation number:      0.00000000

  Overall HOMO-LUMO gap:     10.11580722 eV.

  Total energy components:
  | Sum of eigenvalues            :         -45.40741539 Ha       -1235.59863937 eV
  | XC energy correction          :          -8.80095597 Ha        -239.48619689 eV
  | XC potential correction       :          11.59172336 Ha         315.42684149 eV
  | Free-atom electrostatic energy:         -35.26428140 Ha        -959.58992030 eV
  | Hartree energy correction     :           1.70696924 Ha          46.44899631 eV
  | Entropy correction            :          -0.00000000 Ha          -0.00000000 eV
  | ---------------------------
  | Total energy                  :         -76.17396016 Ha       -2072.79891875 eV
  | Total energy, T -> 0          :         -76.17396016 Ha       -2072.79891875 eV  <-- do not rely on this value for anything but (periodic) metals
  | Electronic free energy        :         -76.17396016 Ha       -2072.79891875 eV

  Derived energy quantities:
  | Kinetic energy                :          75.81254397 Ha        2062.96428376 eV
  | Electrostatic energy          :        -143.18554815 Ha       -3896.27700563 eV
  | Energy correction for multipole
  | error in Hartree potential    :           0.00604143 Ha           0.16439571 eV
  | Sum of eigenvalues per atom                           :        -308.89965984 eV
  | Total energy (T->0) per atom                          :        -518.19972969 eV  <-- do not rely on this value for anything but (periodic) metals
  | Electronic free energy per atom                       :        -518.19972969 eV

  Self-consistency convergence accuracy:
  | Change of charge density      :  0.1101E+00
  | Change of sum of eigenvalues  : -0.3736E+02 eV
  | Change of total energy        :  0.8250E+00 eV

  End self-consistency iteration #     3       :  max(cpu_time)    wall_clock(cpu1)
  | Time for this iteration                    :        0.058 s           0.058 s
  | Charge density update                      :        0.011 s           0.011 s
  | Density mixing                             :        0.000 s           0.000 s
  | Hartree multipole update                   :        0.001 s           0.002 s
  | Hartree multipole summation                :        0.017 s           0.016 s
  | Integration                                :        0.028 s           0.029 s
  | Solution of K.-S. eqns.                    :        0.000 s           0.000 s
  | Total energy evaluation                    :        0.000 s           0.000 s

  Partial memory accounting:
  | Current value for overall tracked memory usage on task 0  :           0.018 MB
  | Peak value for overall tracked memory usage on task 0     :           0.088 MB after allocating wave
  | Largest tracked array allocation on task 0 so far         :           0.021 MB  when allocating H_times_psi
  Note:  These values currently only include a subset of arrays which are explicitly tracked.
  The "true" memory usage will be greater.
------------------------------------------------------------

------------------------------------------------------------
          Begin self-consistency iteration #    4

  Date     :  20190508, Time     :  170402.823
------------------------------------------------------------
  Evaluating new KS density.
  Integration grid: deviation in total charge (<rho> - N_e) =   5.329071E-15
  Pulay mixing of updated and previous charge densities.

  Evaluating partitioned Hartree potential by multipole expansion.
  | Analytical far-field extrapolation by fixed multipoles:
  | Hartree multipole sum: apparent total charge =   0.101135E+01
  Summing up the Hartree potential.
  Time summed over all CPUs for potential: real work        0.017 s, elapsed        0.017 s
  | RMS charge density error from multipole expansion :   0.104321E-01

  Integrating Hamiltonian matrix: batch-based integration.
  Time summed over all CPUs for integration: real work        0.028 s, elapsed        0.028 s

  Updating Kohn-Sham eigenvalues, eigenvectors, occupation numbers, and Fermi level.
  Solving generalized eigenproblem
  Updating Kohn-Sham eigenvalues and eigenfunctions.
  Solving real generalised eigenvalue problem by standard LAPACK (fast)

  Obtaining occupation numbers and chemical potential using ELSI.
  | Chemical potential (Fermi level):   -11.97703901eV
  Highest occupied state (VBM) at    -18.42456580 eV
  | Occupation number:      2.00000000

  Lowest unoccupied state (CBM) at    -8.30007220 eV
  | Occupation number:      0.00000000

  Overall HOMO-LUMO gap:     10.12449360 eV.

  Total energy components:
  | Sum of eigenvalues            :         -45.70745212 Ha       -1243.76305411 eV
  | XC energy correction          :          -8.79753101 Ha        -239.39299910 eV
  | XC potential correction       :          11.58770688 Ha         315.31754729 eV
  | Free-atom electrostatic energy:         -35.26428140 Ha        -959.58992030 eV
  | Hartree energy correction     :           2.01026229 Ha          54.70202010 eV
  | Entropy correction            :          -0.00000000 Ha          -0.00000000 eV
  | ---------------------------
  | Total energy                  :         -76.17129537 Ha       -2072.72640611 eV
  | Total energy, T -> 0          :         -76.17129537 Ha       -2072.72640611 eV  <-- do not rely on this value for anything but (periodic) metals
  | Electronic free energy        :         -76.17129537 Ha       -2072.72640611 eV

  Derived energy quantities:
  | Kinetic energy                :          75.79021949 Ha        2062.35680376 eV
  | Electrostatic energy          :        -143.16398384 Ha       -3895.69021078 eV
  | Energy correction for multipole
  | error in Hartree potential    :           0.00711816 Ha           0.19369493 eV
  | Sum of eigenvalues per atom                           :        -310.94076353 eV
  | Total energy (T->0) per atom                          :        -518.18160153 eV  <-- do not rely on this value for anything but (periodic) metals
  | Electronic free energy per atom                       :        -518.18160153 eV

  Self-consistency convergence accuracy:
  | Change of charge density      :  0.5033E-01
  | Change of sum of eigenvalues  : -0.8164E+01 eV
  | Change of total energy        :  0.7251E-01 eV

  End self-consistency iteration #     4       :  max(cpu_time)    wall_clock(cpu1)
  | Time for this iteration                    :        0.058 s           0.058 s
  | Charge density update                      :        0.011 s           0.011 s
  | Density mixing                             :        0.000 s           0.001 s
  | Hartree multipole update                   :        0.001 s           0.001 s
  | Hartree multipole summation                :        0.016 s           0.017 s
  | Integration                                :        0.028 s           0.028 s
  | Solution of K.-S. eqns.                    :        0.000 s           0.000 s
  | Total energy evaluation                    :        0.000 s           0.000 s

  Partial memory accounting:
  | Current value for overall tracked memory usage on task 0  :           0.019 MB
  | Peak value for overall tracked memory usage on task 0     :           0.088 MB after allocating wave
  | Largest tracked array allocation on task 0 so far         :           0.021 MB  when allocating H_times_psi
  Note:  These values currently only include a subset of arrays which are explicitly tracked.
  The "true" memory usage will be greater.
------------------------------------------------------------

------------------------------------------------------------
          Begin self-consistency iteration #    5

  Date     :  20190508, Time     :  170402.881
------------------------------------------------------------
  Evaluating new KS density.
  Integration grid: deviation in total charge (<rho> - N_e) =   3.197442E-14
  Pulay mixing of updated and previous charge densities.

  Evaluating partitioned Hartree potential by multipole expansion.
  | Analytical far-field extrapolation by fixed multipoles:
  | Hartree multipole sum: apparent total charge =   0.100809E+01
  Summing up the Hartree potential.
  Time summed over all CPUs for potential: real work        0.017 s, elapsed        0.017 s
  | RMS charge density error from multipole expansion :   0.104743E-01

  Integrating Hamiltonian matrix: batch-based integration.
  Time summed over all CPUs for integration: real work        0.028 s, elapsed        0.029 s

  Updating Kohn-Sham eigenvalues, eigenvectors, occupation numbers, and Fermi level.
  Solving generalized eigenproblem
  Updating Kohn-Sham eigenvalues and eigenfunctions.
  Solving real generalised eigenvalue problem by standard LAPACK (fast)

  Obtaining occupation numbers and chemical potential using ELSI.
  | Chemical potential (Fermi level):   -11.77496542eV
  Highest occupied state (VBM) at    -18.12843998 eV
  | Occupation number:      2.00000000

  Lowest unoccupied state (CBM) at    -8.15030808 eV
  | Occupation number:      0.00000000

  Overall HOMO-LUMO gap:      9.97813191 eV.

  Total energy components:
  | Sum of eigenvalues            :         -45.58883621 Ha       -1240.53535115 eV
  | XC energy correction          :          -8.81290914 Ha        -239.81145926 eV
  | XC potential correction       :          11.60794876 Ha         315.86835693 eV
  | Free-atom electrostatic energy:         -35.26428140 Ha        -959.58992030 eV
  | Hartree energy correction     :           1.88690802 Ha          51.34537953 eV
  | Entropy correction            :          -0.00000000 Ha          -0.00000000 eV
  | ---------------------------
  | Total energy                  :         -76.17116998 Ha       -2072.72299426 eV
  | Total energy, T -> 0          :         -76.17116998 Ha       -2072.72299426 eV  <-- do not rely on this value for anything but (periodic) metals
  | Electronic free energy        :         -76.17116998 Ha       -2072.72299426 eV

  Derived energy quantities:
  | Kinetic energy                :          75.84658631 Ha        2063.89062297 eV
  | Electrostatic energy          :        -143.20484715 Ha       -3896.80215796 eV
  | Energy correction for multipole
  | error in Hartree potential    :           0.00698012 Ha           0.18993870 eV
  | Sum of eigenvalues per atom                           :        -310.13383779 eV
  | Total energy (T->0) per atom                          :        -518.18074856 eV  <-- do not rely on this value for anything but (periodic) metals
  | Electronic free energy per atom                       :        -518.18074856 eV

  Self-consistency convergence accuracy:
  | Change of charge density      :  0.1086E-01
  | Change of sum of eigenvalues  :  0.3228E+01 eV
  | Change of total energy        :  0.3412E-02 eV

  End self-consistency iteration #     5       :  max(cpu_time)    wall_clock(cpu1)
  | Time for this iteration                    :        0.059 s           0.059 s
  | Charge density update                      :        0.011 s           0.011 s
  | Density mixing                             :        0.001 s           0.001 s
  | Hartree multipole update                   :        0.001 s           0.001 s
  | Hartree multipole summation                :        0.017 s           0.017 s
  | Integration                                :        0.029 s           0.029 s
  | Solution of K.-S. eqns.                    :        0.000 s           0.000 s
  | Total energy evaluation                    :        0.000 s           0.000 s

  Partial memory accounting:
  | Current value for overall tracked memory usage on task 0  :           0.019 MB
  | Peak value for overall tracked memory usage on task 0     :           0.088 MB after allocating wave
  | Largest tracked array allocation on task 0 so far         :           0.021 MB  when allocating H_times_psi
  Note:  These values currently only include a subset of arrays which are explicitly tracked.
  The "true" memory usage will be greater.
------------------------------------------------------------

------------------------------------------------------------
          Begin self-consistency iteration #    6

  Date     :  20190508, Time     :  170402.940
------------------------------------------------------------
  Evaluating new KS density.
  Integration grid: deviation in total charge (<rho> - N_e) =   1.776357E-15
  Pulay mixing of updated and previous charge densities.

  Evaluating partitioned Hartree potential by multipole expansion.
  | Analytical far-field extrapolation by fixed multipoles:
  | Hartree multipole sum: apparent total charge =   0.998795E+00
  Summing up the Hartree potential.
  Time summed over all CPUs for potential: real work        0.017 s, elapsed        0.017 s
  | RMS charge density error from multipole expansion :   0.103871E-01

  Integrating Hamiltonian matrix: batch-based integration.
  Time summed over all CPUs for integration: real work        0.028 s, elapsed        0.028 s

  Updating Kohn-Sham eigenvalues, eigenvectors, occupation numbers, and Fermi level.
  Solving generalized eigenproblem
  Updating Kohn-Sham eigenvalues and eigenfunctions.
  Solving real generalised eigenvalue problem by standard LAPACK (fast)

  Obtaining occupation numbers and chemical potential using ELSI.
  | Chemical potential (Fermi level):   -11.77518469eV
  Highest occupied state (VBM) at    -18.12345065 eV
  | Occupation number:      2.00000000

  Lowest unoccupied state (CBM) at    -8.11900142 eV
  | Occupation number:      0.00000000

  Overall HOMO-LUMO gap:     10.00444923 eV.

  Total energy components:
  | Sum of eigenvalues            :         -45.59144072 Ha       -1240.60622347 eV
  | XC energy correction          :          -8.81081551 Ha        -239.75448873 eV
  | XC potential correction       :          11.60514536 Ha         315.79207245 eV
  | Free-atom electrostatic energy:         -35.26428140 Ha        -959.58992030 eV
  | Hartree energy correction     :           1.89025617 Ha          51.43648758 eV
  | Entropy correction            :          -0.00000000 Ha          -0.00000000 eV
  | ---------------------------
  | Total energy                  :         -76.17113611 Ha       -2072.72207247 eV
  | Total energy, T -> 0          :         -76.17113611 Ha       -2072.72207247 eV  <-- do not rely on this value for anything but (periodic) metals
  | Electronic free energy        :         -76.17113611 Ha       -2072.72207247 eV

  Derived energy quantities:
  | Kinetic energy                :          75.82548825 Ha        2063.31651571 eV
  | Electrostatic energy          :        -143.18580885 Ha       -3896.28409945 eV
  | Energy correction for multipole
  | error in Hartree potential    :           0.00679637 Ha           0.18493851 eV
  | Sum of eigenvalues per atom                           :        -310.15155587 eV
  | Total energy (T->0) per atom                          :        -518.18051812 eV  <-- do not rely on this value for anything but (periodic) metals
  | Electronic free energy per atom                       :        -518.18051812 eV

  Self-consistency convergence accuracy:
  | Change of charge density      :  0.7453E-02
  | Change of sum of eigenvalues  : -0.7087E-01 eV
  | Change of total energy        :  0.9218E-03 eV

  End self-consistency iteration #     6       :  max(cpu_time)    wall_clock(cpu1)
  | Time for this iteration                    :        0.058 s           0.058 s
  | Charge density update                      :        0.011 s           0.011 s
  | Density mixing                             :        0.001 s           0.001 s
  | Hartree multipole update                   :        0.001 s           0.001 s
  | Hartree multipole summation                :        0.017 s           0.017 s
  | Integration                                :        0.028 s           0.028 s
  | Solution of K.-S. eqns.                    :        0.000 s           0.000 s
  | Total energy evaluation                    :        0.000 s           0.000 s

  Partial memory accounting:
  | Current value for overall tracked memory usage on task 0  :           0.019 MB
  | Peak value for overall tracked memory usage on task 0     :           0.089 MB after allocating wave
  | Largest tracked array allocation on task 0 so far         :           0.021 MB  when allocating H_times_psi
  Note:  These values currently only include a subset of arrays which are explicitly tracked.
  The "true" memory usage will be greater.
------------------------------------------------------------

------------------------------------------------------------
          Begin self-consistency iteration #    7

  Date     :  20190508, Time     :  170402.998
------------------------------------------------------------
  Evaluating new KS density.
  Integration grid: deviation in total charge (<rho> - N_e) =   3.375078E-14
  Pulay mixing of updated and previous charge densities.

  Evaluating partitioned Hartree potential by multipole expansion.
  | Analytical far-field extrapolation by fixed multipoles:
  | Hartree multipole sum: apparent total charge =   0.999243E+00
  Summing up the Hartree potential.
  Time summed over all CPUs for potential: real work        0.016 s, elapsed        0.016 s
  | RMS charge density error from multipole expansion :   0.103801E-01

  Integrating Hamiltonian matrix: batch-based integration.
  Time summed over all CPUs for integration: real work        0.029 s, elapsed        0.029 s

  Updating Kohn-Sham eigenvalues, eigenvectors, occupation numbers, and Fermi level.
  Solving generalized eigenproblem
  Updating Kohn-Sham eigenvalues and eigenfunctions.
  Solving real generalised eigenvalue problem by standard LAPACK (fast)

  Obtaining occupation numbers and chemical potential using ELSI.
  | Chemical potential (Fermi level):   -11.77567003eV
  Highest occupied state (VBM) at    -18.12478035 eV
  | Occupation number:      2.00000000

  Lowest unoccupied state (CBM) at    -8.11903665 eV
  | Occupation number:      0.00000000

  Overall HOMO-LUMO gap:     10.00574370 eV.

  Total energy components:
  | Sum of eigenvalues            :         -45.59310061 Ha       -1240.65139123 eV
  | XC energy correction          :          -8.81065968 Ha        -239.75024832 eV
  | XC potential correction       :          11.60493820 Ha         315.78643533 eV
  | Free-atom electrostatic energy:         -35.26428140 Ha        -959.58992030 eV
  | Hartree energy correction     :           1.89196850 Ha          51.48308236 eV
  | Entropy correction            :          -0.00000000 Ha          -0.00000000 eV
  | ---------------------------
  | Total energy                  :         -76.17113500 Ha       -2072.72204216 eV
  | Total energy, T -> 0          :         -76.17113500 Ha       -2072.72204216 eV  <-- do not rely on this value for anything but (periodic) metals
  | Electronic free energy        :         -76.17113500 Ha       -2072.72204216 eV

  Derived energy quantities:
  | Kinetic energy                :          75.82209324 Ha        2063.22413267 eV
  | Electrostatic energy          :        -143.18256855 Ha       -3896.19592650 eV
  | Energy correction for multipole
  | error in Hartree potential    :           0.00674423 Ha           0.18351989 eV
  | Sum of eigenvalues per atom                           :        -310.16284781 eV
  | Total energy (T->0) per atom                          :        -518.18051054 eV  <-- do not rely on this value for anything but (periodic) metals
  | Electronic free energy per atom                       :        -518.18051054 eV

  Self-consistency convergence accuracy:
  | Change of charge density      :  0.9649E-03
  | Change of sum of eigenvalues  : -0.4517E-01 eV
  | Change of total energy        :  0.3031E-04 eV

  End self-consistency iteration #     7       :  max(cpu_time)    wall_clock(cpu1)
  | Time for this iteration                    :        0.059 s           0.059 s
  | Charge density update                      :        0.011 s           0.012 s
  | Density mixing                             :        0.001 s           0.000 s
  | Hartree multipole update                   :        0.001 s           0.002 s
  | Hartree multipole summation                :        0.017 s           0.016 s
  | Integration                                :        0.028 s           0.029 s
  | Solution of K.-S. eqns.                    :        0.000 s           0.000 s
  | Total energy evaluation                    :        0.000 s           0.000 s

  Partial memory accounting:
  | Current value for overall tracked memory usage on task 0  :           0.019 MB
  | Peak value for overall tracked memory usage on task 0     :           0.089 MB after allocating wave
  | Largest tracked array allocation on task 0 so far         :           0.021 MB  when allocating H_times_psi
  Note:  These values currently only include a subset of arrays which are explicitly tracked.
  The "true" memory usage will be greater.
------------------------------------------------------------

------------------------------------------------------------
          Begin self-consistency iteration #    8

  Date     :  20190508, Time     :  170403.057
------------------------------------------------------------
  Evaluating new KS density.
  Integration grid: deviation in total charge (<rho> - N_e) =   2.664535E-14
  Pulay mixing of updated and previous charge densities.

  Evaluating partitioned Hartree potential by multipole expansion.
  | Analytical far-field extrapolation by fixed multipoles:
  | Hartree multipole sum: apparent total charge =   0.999483E+00
  Summing up the Hartree potential.
  Time summed over all CPUs for potential: real work        0.017 s, elapsed        0.017 s
  | RMS charge density error from multipole expansion :   0.103836E-01

  Integrating Hamiltonian matrix: batch-based integration.
  Time summed over all CPUs for integration: real work        0.028 s, elapsed        0.028 s

  Updating Kohn-Sham eigenvalues, eigenvectors, occupation numbers, and Fermi level.
  Solving generalized eigenproblem
  Updating Kohn-Sham eigenvalues and eigenfunctions.
  Solving real generalised eigenvalue problem by standard LAPACK (fast)

  Obtaining occupation numbers and chemical potential using ELSI.
  | Chemical potential (Fermi level):   -11.76808268eV
  Highest occupied state (VBM) at    -18.11422790 eV
  | Occupation number:      2.00000000

  Lowest unoccupied state (CBM) at    -8.11352205 eV
  | Occupation number:      0.00000000

  Overall HOMO-LUMO gap:     10.00070585 eV.

  Total energy components:
  | Sum of eigenvalues            :         -45.58919358 Ha       -1240.54507544 eV
  | XC energy correction          :          -8.81125141 Ha        -239.76635012 eV
  | XC potential correction       :          11.60571683 Ha         315.80762312 eV
  | Free-atom electrostatic energy:         -35.26428140 Ha        -959.58992030 eV
  | Hartree energy correction     :           1.88787496 Ha          51.37169152 eV
  | Entropy correction            :          -0.00000000 Ha          -0.00000000 eV
  | ---------------------------
  | Total energy                  :         -76.17113459 Ha       -2072.72203122 eV
  | Total energy, T -> 0          :         -76.17113459 Ha       -2072.72203122 eV  <-- do not rely on this value for anything but (periodic) metals
  | Electronic free energy        :         -76.17113459 Ha       -2072.72203122 eV

  Derived energy quantities:
  | Kinetic energy                :          75.82317006 Ha        2063.25343454 eV
  | Electrostatic energy          :        -143.18305324 Ha       -3896.20911564 eV
  | Energy correction for multipole
  | error in Hartree potential    :           0.00672370 Ha           0.18296112 eV
  | Sum of eigenvalues per atom                           :        -310.13626886 eV
  | Total energy (T->0) per atom                          :        -518.18050781 eV  <-- do not rely on this value for anything but (periodic) metals
  | Electronic free energy per atom                       :        -518.18050781 eV

  Self-consistency convergence accuracy:
  | Change of charge density      :  0.7244E-03
  | Change of sum of eigenvalues  :  0.1063E+00 eV
  | Change of total energy        :  0.1093E-04 eV

  End self-consistency iteration #     8       :  max(cpu_time)    wall_clock(cpu1)
  | Time for this iteration                    :        0.059 s           0.059 s
  | Charge density update                      :        0.011 s           0.011 s
  | Density mixing                             :        0.001 s           0.001 s
  | Hartree multipole update                   :        0.001 s           0.001 s
  | Hartree multipole summation                :        0.016 s           0.017 s
  | Integration                                :        0.029 s           0.028 s
  | Solution of K.-S. eqns.                    :        0.000 s           0.001 s
  | Total energy evaluation                    :        0.000 s           0.000 s

  Partial memory accounting:
  | Current value for overall tracked memory usage on task 0  :           0.020 MB
  | Peak value for overall tracked memory usage on task 0     :           0.089 MB after allocating wave
  | Largest tracked array allocation on task 0 so far         :           0.021 MB  when allocating H_times_psi
  Note:  These values currently only include a subset of arrays which are explicitly tracked.
  The "true" memory usage will be greater.
------------------------------------------------------------

------------------------------------------------------------
          Begin self-consistency iteration #    9

  Date     :  20190508, Time     :  170403.116
------------------------------------------------------------
  Evaluating new KS density.
  Integration grid: deviation in total charge (<rho> - N_e) =  -5.329071E-15
  Pulay mixing of updated and previous charge densities.

  Evaluating partitioned Hartree potential by multipole expansion.
  | Analytical far-field extrapolation by fixed multipoles:
  | Hartree multipole sum: apparent total charge =   0.999549E+00
  Summing up the Hartree potential.
  Time summed over all CPUs for potential: real work        0.018 s, elapsed        0.018 s
  | RMS charge density error from multipole expansion :   0.103846E-01

  Integrating Hamiltonian matrix: batch-based integration.
  Time summed over all CPUs for integration: real work        0.028 s, elapsed        0.029 s

  Updating Kohn-Sham eigenvalues, eigenvectors, occupation numbers, and Fermi level.
  Solving generalized eigenproblem
  Updating Kohn-Sham eigenvalues and eigenfunctions.
  Solving real generalised eigenvalue problem by standard LAPACK (fast)

  Obtaining occupation numbers and chemical potential using ELSI.
  | Chemical potential (Fermi level):   -11.76724911eV
  Highest occupied state (VBM) at    -18.11328773 eV
  | Occupation number:      2.00000000

  Lowest unoccupied state (CBM) at    -8.11296455 eV
  | Occupation number:      0.00000000

  Overall HOMO-LUMO gap:     10.00032318 eV.

  Total energy components:
  | Sum of eigenvalues            :         -45.58888023 Ha       -1240.53654881 eV
  | XC energy correction          :          -8.81131204 Ha        -239.76799999 eV
  | XC potential correction       :          11.60579659 Ha         315.80979346 eV
  | Free-atom electrostatic energy:         -35.26428140 Ha        -959.58992030 eV
  | Hartree energy correction     :           1.88754252 Ha          51.36264528 eV
  | Entropy correction            :          -0.00000000 Ha          -0.00000000 eV
  | ---------------------------
  | Total energy                  :         -76.17113456 Ha       -2072.72203036 eV
  | Total energy, T -> 0          :         -76.17113456 Ha       -2072.72203036 eV  <-- do not rely on this value for anything but (periodic) metals
  | Electronic free energy        :         -76.17113456 Ha       -2072.72203036 eV

  Derived energy quantities:
  | Kinetic energy                :          75.82320029 Ha        2063.25425704 eV
  | Electrostatic energy          :        -143.18302280 Ha       -3896.20828741 eV
  | Energy correction for multipole
  | error in Hartree potential    :           0.00672048 Ha           0.18287364 eV
  | Sum of eigenvalues per atom                           :        -310.13413720 eV
  | Total energy (T->0) per atom                          :        -518.18050759 eV  <-- do not rely on this value for anything but (periodic) metals
  | Electronic free energy per atom                       :        -518.18050759 eV

  Self-consistency convergence accuracy:
  | Change of charge density      :  0.8009E-04
  | Change of sum of eigenvalues  :  0.8527E-02 eV
  | Change of total energy        :  0.8611E-06 eV

  End self-consistency iteration #     9       :  max(cpu_time)    wall_clock(cpu1)
  | Time for this iteration                    :        0.060 s           0.060 s
  | Charge density update                      :        0.011 s           0.011 s
  | Density mixing                             :        0.001 s           0.001 s
  | Hartree multipole update                   :        0.001 s           0.001 s
  | Hartree multipole summation                :        0.017 s           0.018 s
  | Integration                                :        0.029 s           0.029 s
  | Solution of K.-S. eqns.                    :        0.000 s           0.000 s
  | Total energy evaluation                    :        0.000 s           0.000 s

  Partial memory accounting:
  | Current value for overall tracked memory usage on task 0  :           0.020 MB
  | Peak value for overall tracked memory usage on task 0     :           0.089 MB after allocating wave
  | Largest tracked array allocation on task 0 so far         :           0.021 MB  when allocating H_times_psi
  Note:  These values currently only include a subset of arrays which are explicitly tracked.
  The "true" memory usage will be greater.
------------------------------------------------------------

------------------------------------------------------------
          Begin self-consistency iteration #   10

  Date     :  20190508, Time     :  170403.176
------------------------------------------------------------
  Evaluating new KS density.
  Integration grid: deviation in total charge (<rho> - N_e) =  -1.598721E-14
  Pulay mixing of updated and previous charge densities.

  Evaluating partitioned Hartree potential by multipole expansion.
  | Analytical far-field extrapolation by fixed multipoles:
  | Hartree multipole sum: apparent total charge =   0.999553E+00
  Summing up the Hartree potential.
  Time summed over all CPUs for potential: real work        0.017 s, elapsed        0.017 s
  | RMS charge density error from multipole expansion :   0.103847E-01

  Integrating Hamiltonian matrix: batch-based integration.
  Time summed over all CPUs for integration: real work        0.028 s, elapsed        0.028 s

  Updating Kohn-Sham eigenvalues, eigenvectors, occupation numbers, and Fermi level.
  Solving generalized eigenproblem
  Updating Kohn-Sham eigenvalues and eigenfunctions.
  Solving real generalised eigenvalue problem by standard LAPACK (fast)

  Obtaining occupation numbers and chemical potential using ELSI.
  | Chemical potential (Fermi level):   -11.76723588eV
  Highest occupied state (VBM) at    -18.11332813 eV
  | Occupation number:      2.00000000

  Lowest unoccupied state (CBM) at    -8.11294222 eV
  | Occupation number:      0.00000000

  Overall HOMO-LUMO gap:     10.00038591 eV.

  Total energy components:
  | Sum of eigenvalues            :         -45.58890716 Ha       -1240.53728163 eV
  | XC energy correction          :          -8.81131026 Ha        -239.76795142 eV
  | XC potential correction       :          11.60579420 Ha         315.80972829 eV
  | Free-atom electrostatic energy:         -35.26428140 Ha        -959.58992030 eV
  | Hartree energy correction     :           1.88757007 Ha          51.36339484 eV
  | Entropy correction            :          -0.00000000 Ha          -0.00000000 eV
  | ---------------------------
  | Total energy                  :         -76.17113456 Ha       -2072.72203021 eV
  | Total energy, T -> 0          :         -76.17113456 Ha       -2072.72203021 eV  <-- do not rely on this value for anything but (periodic) metals
  | Electronic free energy        :         -76.17113456 Ha       -2072.72203021 eV

  Derived energy quantities:
  | Kinetic energy                :          75.82315870 Ha        2063.25312529 eV
  | Electrostatic energy          :        -143.18298299 Ha       -3896.20720408 eV
  | Energy correction for multipole
  | error in Hartree potential    :           0.00672006 Ha           0.18286210 eV
  | Sum of eigenvalues per atom                           :        -310.13432041 eV
  | Total energy (T->0) per atom                          :        -518.18050755 eV  <-- do not rely on this value for anything but (periodic) metals
  | Electronic free energy per atom                       :        -518.18050755 eV

  Self-consistency convergence accuracy:
  | Change of charge density      :  0.7779E-05
  | Change of sum of eigenvalues  : -0.7328E-03 eV
  | Change of total energy        :  0.1494E-06 eV

  End self-consistency iteration #    10       :  max(cpu_time)    wall_clock(cpu1)
  | Time for this iteration                    :        0.060 s           0.060 s
  | Charge density update                      :        0.011 s           0.011 s
  | Density mixing                             :        0.001 s           0.001 s
  | Hartree multipole update                   :        0.001 s           0.002 s
  | Hartree multipole summation                :        0.017 s           0.017 s
  | Integration                                :        0.029 s           0.028 s
  | Solution of K.-S. eqns.                    :        0.000 s           0.001 s
  | Total energy evaluation                    :        0.000 s           0.000 s

  Partial memory accounting:
  | Current value for overall tracked memory usage on task 0  :           0.020 MB
  | Peak value for overall tracked memory usage on task 0     :           0.089 MB after allocating wave
  | Largest tracked array allocation on task 0 so far         :           0.021 MB  when allocating H_times_psi
  Note:  These values currently only include a subset of arrays which are explicitly tracked.
  The "true" memory usage will be greater.
------------------------------------------------------------

------------------------------------------------------------
          Begin self-consistency iteration #   11

  Date     :  20190508, Time     :  170403.236
------------------------------------------------------------
  Evaluating new KS density.
  Integration grid: deviation in total charge (<rho> - N_e) =   7.105427E-15
  Pulay mixing of updated and previous charge densities.

  Evaluating partitioned Hartree potential by multipole expansion.
  | Analytical far-field extrapolation by fixed multipoles:
  | Hartree multipole sum: apparent total charge =   0.999556E+00
  Summing up the Hartree potential.
  Time summed over all CPUs for potential: real work        0.017 s, elapsed        0.017 s
  | RMS charge density error from multipole expansion :   0.103848E-01

  Integrating Hamiltonian matrix: batch-based integration.
  Time summed over all CPUs for integration: real work        0.028 s, elapsed        0.028 s

  Updating Kohn-Sham eigenvalues, eigenvectors, occupation numbers, and Fermi level.
  Solving generalized eigenproblem
  Updating Kohn-Sham eigenvalues and eigenfunctions.
  Solving real generalised eigenvalue problem by standard LAPACK (fast)

  Obtaining occupation numbers and chemical potential using ELSI.
  | Chemical potential (Fermi level):   -11.76718882eV
  Highest occupied state (VBM) at    -18.11325284 eV
  | Occupation number:      2.00000000

  Lowest unoccupied state (CBM) at    -8.11291688 eV
  | Occupation number:      0.00000000

  Overall HOMO-LUMO gap:     10.00033597 eV.

  Total energy components:
  | Sum of eigenvalues            :         -45.58887538 Ha       -1240.53641699 eV
  | XC energy correction          :          -8.81131523 Ha        -239.76808663 eV
  | XC potential correction       :          11.60580076 Ha         315.80990681 eV
  | Free-atom electrostatic energy:         -35.26428140 Ha        -959.58992030 eV
  | Hartree energy correction     :           1.88753670 Ha          51.36248685 eV
  | Entropy correction            :          -0.00000000 Ha          -0.00000000 eV
  | ---------------------------
[...]
  | Largest tracked array allocation on task 0 so far         :           0.021 MB  when allocating H_times_psi
  Note:  These values currently only include a subset of arrays which are explicitly tracked.
  The "true" memory usage will be greater.
------------------------------------------------------------

------------------------------------------------------------
          Begin self-consistency iteration #   12

  Date     :  20190508, Time     :  170403.295
------------------------------------------------------------
  Evaluating new KS density.
  Integration grid: deviation in total charge (<rho> - N_e) =   4.440892E-14
  Pulay mixing of updated and previous charge densities.

  Evaluating partitioned Hartree potential by multipole expansion.
  | Analytical far-field extrapolation by fixed multipoles:
  | Hartree multipole sum: apparent total charge =   0.999556E+00
  Summing up the Hartree potential.
  Time summed over all CPUs for potential: real work        0.017 s, elapsed        0.017 s
  | RMS charge density error from multipole expansion :   0.103848E-01

  Integrating Hamiltonian matrix: batch-based integration.
  Time summed over all CPUs for integration: real work        0.029 s, elapsed        0.029 s

  Updating Kohn-Sham eigenvalues, eigenvectors, occupation numbers, and Fermi level.
  Solving generalized eigenproblem
  Updating Kohn-Sham eigenvalues and eigenfunctions.
  Solving real generalised eigenvalue problem by standard LAPACK (fast)

  Obtaining occupation numbers and chemical potential using ELSI.
  | Chemical potential (Fermi level):   -11.76718557eV
  Highest occupied state (VBM) at    -18.11324883 eV
  | Occupation number:      2.00000000

  Lowest unoccupied state (CBM) at    -8.11291527 eV
  | Occupation number:      0.00000000

  Overall HOMO-LUMO gap:     10.00033356 eV.

  Total energy components:
  | Sum of eigenvalues            :         -45.58887335 Ha       -1240.53636165 eV
  | XC energy correction          :          -8.81131555 Ha        -239.76809545 eV
  | XC potential correction       :          11.60580118 Ha         315.80991845 eV
  | Free-atom electrostatic energy:         -35.26428140 Ha        -959.58992030 eV
  | Hartree energy correction     :           1.88753456 Ha          51.36242867 eV
  | Entropy correction            :          -0.00000000 Ha          -0.00000000 eV
  | ---------------------------
  | Total energy                  :         -76.17113456 Ha       -2072.72203028 eV
  | Total energy, T -> 0          :         -76.17113456 Ha       -2072.72203028 eV  <-- do not rely on this value for anything but (periodic) metals
  | Electronic free energy        :         -76.17113456 Ha       -2072.72203028 eV

  Derived energy quantities:
  | Kinetic energy                :          75.82318398 Ha        2063.25381334 eV
  | Electrostatic energy          :        -143.18300299 Ha       -3896.20774817 eV
  | Energy correction for multipole
  | error in Hartree potential    :           0.00672010 Ha           0.18286313 eV
  | Sum of eigenvalues per atom                           :        -310.13409041 eV
  | Total energy (T->0) per atom                          :        -518.18050757 eV  <-- do not rely on this value for anything but (periodic) metals
  | Electronic free energy per atom                       :        -518.18050757 eV

  Self-consistency convergence accuracy:
  | Change of charge density      :  0.3437E-06
  | Change of sum of eigenvalues  :  0.5534E-04 eV
  | Change of total energy        : -0.1534E-07 eV

  Electronic self-consistency reached - switching on the force computation.

  End self-consistency iteration #    12       :  max(cpu_time)    wall_clock(cpu1)
  | Time for this iteration                    :        0.059 s           0.059 s
  | Charge density & force component update    :        0.011 s           0.011 s
  | Density mixing                             :        0.001 s           0.001 s
  | Hartree multipole update                   :        0.002 s           0.001 s
  | Hartree multipole summation                :        0.017 s           0.017 s
  | Integration                                :        0.029 s           0.029 s
  | Solution of K.-S. eqns.                    :        0.000 s           0.000 s
  | Total energy evaluation                    :        0.000 s           0.000 s

  Partial memory accounting:
  | Current value for overall tracked memory usage on task 0  :           0.020 MB
  | Peak value for overall tracked memory usage on task 0     :           0.089 MB after allocating wave
  | Largest tracked array allocation on task 0 so far         :           0.021 MB  when allocating H_times_psi
  Note:  These values currently only include a subset of arrays which are explicitly tracked.
  The "true" memory usage will be greater.
------------------------------------------------------------

------------------------------------------------------------
          Begin self-consistency iteration #   13

  Date     :  20190508, Time     :  170403.354
------------------------------------------------------------
  Evaluating new KS density and force components.
  Integration grid: deviation in total charge (<rho> - N_e) =  -8.881784E-15
  Pulay mixing of updated and previous charge densities.

  Evaluating partitioned Hartree potential by multipole expansion.
  | Analytical far-field extrapolation by fixed multipoles:
  | Hartree multipole sum: apparent total charge =   0.999556E+00
  Summing up the Hartree potential.
  Time summed over all CPUs for potential: real work        0.051 s, elapsed        0.051 s
  | RMS charge density error from multipole expansion :   0.103848E-01

  Integrating Hamiltonian matrix: batch-based integration.
  Time summed over all CPUs for integration: real work        0.030 s, elapsed        0.030 s

  Updating Kohn-Sham eigenvalues, eigenvectors, occupation numbers, and Fermi level.
  Solving generalized eigenproblem
  Updating Kohn-Sham eigenvalues and eigenfunctions.
  Solving real generalised eigenvalue problem by standard LAPACK (fast)

  Obtaining occupation numbers and chemical potential using ELSI.
  | Chemical potential (Fermi level):   -11.76718617eV
  Highest occupied state (VBM) at    -18.11324959 eV
  | Occupation number:      2.00000000

  Lowest unoccupied state (CBM) at    -8.11291536 eV
  | Occupation number:      0.00000000

  Overall HOMO-LUMO gap:     10.00033423 eV.

  Total energy components:
  | Sum of eigenvalues            :         -45.58887375 Ha       -1240.53637253 eV
  | XC energy correction          :          -8.81131547 Ha        -239.76809325 eV
  | XC potential correction       :          11.60580108 Ha         315.80991554 eV
  | Free-atom electrostatic energy:         -35.26428140 Ha        -959.58992030 eV
  | Hartree energy correction     :           1.88753499 Ha          51.36244026 eV
  | Entropy correction            :          -0.00000000 Ha          -0.00000000 eV
  | ---------------------------
  | Total energy                  :         -76.17113456 Ha       -2072.72203027 eV
  | Total energy, T -> 0          :         -76.17113456 Ha       -2072.72203027 eV  <-- do not rely on this value for anything but (periodic) metals
  | Electronic free energy        :         -76.17113456 Ha       -2072.72203027 eV

  Derived energy quantities:
  | Kinetic energy                :          75.82318348 Ha        2063.25379971 eV
  | Electrostatic energy          :        -143.18300257 Ha       -3896.20773674 eV
  | Energy correction for multipole
  | error in Hartree potential    :           0.00672009 Ha           0.18286305 eV
  | Sum of eigenvalues per atom                           :        -310.13409313 eV
  | Total energy (T->0) per atom                          :        -518.18050757 eV  <-- do not rely on this value for anything but (periodic) metals
  | Electronic free energy per atom                       :        -518.18050757 eV

  atomic forces [eV/Ang]:
  -----------------------
  atom #    1
   Hellmann-Feynman              :  0.755402E-01  0.359494E-01 -0.143680E-11
   Ionic forces                  :  0.000000E+00  0.000000E+00  0.000000E+00
   Multipole                     : -0.763981E-03  0.122563E-02 -0.305326E-13
   Pulay                         : -0.228187E-02 -0.362737E-02  0.427267E-12
   ----------------------------------------------------------------
   Total forces(   1)            :  0.724943E-01  0.335477E-01 -0.104006E-11
  atom #    2
   Hellmann-Feynman              :  0.262062E+00 -0.148293E+00 -0.762795E-13
   Ionic forces                  :  0.000000E+00  0.000000E+00  0.000000E+00
   Multipole                     :  0.776931E-01 -0.451795E-01  0.287890E-15
   Pulay                         : -0.338520E+00  0.195554E+00  0.122708E-13
   ----------------------------------------------------------------
   Total forces(   2)            :  0.123566E-02  0.208157E-02 -0.637208E-13
  atom #    3
   Hellmann-Feynman              : -0.333462E+00 -0.187321E+00 -0.730337E-13
   Ionic forces                  :  0.000000E+00  0.000000E+00  0.000000E+00
   Multipole                     : -0.779721E-01 -0.453918E-01 -0.334851E-15
   Pulay                         :  0.340115E+00  0.197060E+00  0.108486E-13
   ----------------------------------------------------------------
   Total forces(   3)            : -0.713198E-01 -0.356533E-01 -0.625200E-13
  atom #    4
   Hellmann-Feynman              : -0.227769E-02  0.300717E+00 -0.290846E-12
   Ionic forces                  :  0.000000E+00  0.000000E+00  0.000000E+00
   Multipole                     : -0.495186E-04  0.900927E-01  0.286322E-14
   Pulay                         : -0.102892E-03 -0.391028E+00 -0.248154E-13
   ----------------------------------------------------------------
   Total forces(   4)            : -0.243010E-02 -0.218093E-03 -0.312798E-12


  Self-consistency convergence accuracy:
  | Change of charge density      :  0.1431E-06
  | Change of sum of eigenvalues  : -0.1088E-04 eV
  | Change of total energy        :  0.2865E-08 eV
  | Change of forces              :  0.3661E+00 eV/A

  Writing Kohn-Sham eigenvalues.

  State    Occupation    Eigenvalue [Ha]    Eigenvalue [eV]
      1       2.00000         -19.013804         -517.39194
      2       2.00000          -1.337494          -36.39506
      3       2.00000          -0.888958          -24.18977
      4       2.00000          -0.888531          -24.17817
      5       2.00000          -0.665650          -18.11325
      6       0.00000          -0.298144           -8.11292
      7       0.00000          -0.197402           -5.37158
      8       0.00000          -0.196739           -5.35355
      9       0.00000           0.025450            0.69253
     10       0.00000           0.048229            1.31238
     11       0.00000           0.048666            1.32427
     12       0.00000           0.207654            5.65056
     13       0.00000           0.481402           13.09960

  Highest occupied state (VBM) at    -18.11324959 eV
  | Occupation number:      2.00000000

  Lowest unoccupied state (CBM) at    -8.11291536 eV
  | Occupation number:      0.00000000

  Overall HOMO-LUMO gap:     10.00033423 eV.

  Self-consistency cycle converged.

  End self-consistency iteration #    13       :  max(cpu_time)    wall_clock(cpu1)
  | Time for this iteration                    :        0.124 s           0.124 s
  | Charge density & force component update    :        0.040 s           0.040 s
  | Density mixing                             :        0.001 s           0.001 s
  | Hartree multipole update                   :        0.001 s           0.002 s
  | Hartree multipole summation                :        0.052 s           0.051 s
  | Integration                                :        0.029 s           0.030 s
  | Solution of K.-S. eqns.                    :        0.000 s           0.000 s
  | Total energy evaluation                    :        0.000 s           0.000 s

  Partial memory accounting:
  | Current value for overall tracked memory usage on task 0  :           0.020 MB
  | Peak value for overall tracked memory usage on task 0     :           0.124 MB after allocating h_times_wave
  | Largest tracked array allocation on task 0 so far         :           0.063 MB  when allocating gradient_basis_wave
  Note:  These values currently only include a subset of arrays which are explicitly tracked.
  The "true" memory usage will be greater.
------------------------------------------------------------
  ------------------------------------------------------------
   Computing monopole / dipole moments for complete molecule:
  | Total electronic charge [e]         :          0.999999999953371E+01
  | Total ionic charge [e]              :          0.110000000000000E+02
  | Total charge [e]                    :          0.100000000046629E+01
 * Warning: The system has a total charge of      1.00000000 .
 * The dipole moment depends on the choice of the origin.
  | Total dipole moment [eAng]          :          0.121352102341019E-02         0.292677548138980E-03         0.322171063924374E-14
  | Absolute dipole moment              :          0.124831623455083E-02 eAng              /                   0.599498395064157E-02 Debye  .
  Removing unitary transformations (pure translations, rotations) from forces on atoms.
  Atomic forces before filtering:
  | Net force on center of mass :  -0.199481E-04 -0.242088E-03 -0.147910E-11 eV/A
  | Net torque on center of mass:  -0.246422E-12  0.412058E-15  0.574075E-06 eV
  Atomic forces after filtering:
  | Net force on center of mass :  -0.118473E-16 -0.165513E-17  0.000000E+00 eV/A
  | Net torque on center of mass:   0.000000E+00  0.756341E-28 -0.103259E-16 eV

  Energy and forces in a compact form:
  | Total energy uncorrected      :         -0.207272203027357E+04 eV
  | Total energy corrected        :         -0.207272203027357E+04 eV  <-- do not rely on this value for anything but (periodic) metals
  | Electronic free energy        :         -0.207272203027357E+04 eV
  Total atomic forces (unitary forces cleaned) [eV/Ang]:
  |   1          0.724993206811102E-01          0.336082231269825E-01         -0.670291594077488E-12
  |   2          0.124055493145096E-02          0.214192530265439E-02          0.223177641104009E-12
  |   3         -0.713149543674934E-01         -0.355925771917746E-01          0.223700987060703E-12
  |   4         -0.242492124506772E-02         -0.157571237862359E-03          0.223412965912775E-12

  ------------------------------------ 
  Start decomposition of the XC Energy 
  ------------------------------------ 
  X and C from original XC functional choice 
  Hartree-Fock Energy :          0.000000000 Ha              0.000000000 eV
  X Energy            :         -8.147352874 Ha           -221.700751716 eV
  C Energy            :         -0.663962597 Ha            -18.067341532 eV
  Total XC Energy     :         -8.811315472 Ha           -239.768093247 eV
  ------------------------------------ 
  LDA X and C from self-consistent density 
  X Energy LDA        :         -8.147352874 Ha           -221.700751716 eV
  C Energy LDA        :         -0.663962597 Ha            -18.067341532 eV
  ------------------------------------ 
  End decomposition of the XC Energy 
  ------------------------------------ 

------------------------------------------------------------

------------------------------------------------------------------------------
  Final output of selected total energy values:

  The following output summarizes some interesting total energy values
  at the end of a run (AFTER all relaxation, molecular dynamics, etc.).

  | Total energy of the DFT / Hartree-Fock s.c.f. calculation      :          -2072.722030274 eV
  | Final zero-broadening corrected energy (caution - metals only) :          -2072.722030274 eV
  | For reference only, the value of 1 Hartree used in FHI-aims is :             27.211384500 eV

  Before relying on these values, please be sure to understand exactly which
  total energy value is referred to by a given number. Different objects may
  all carry the same name 'total energy'. Definitions:

  Total energy of the DFT / Hartree-Fock s.c.f. calculation:
  | Note that this energy does not include ANY quantities calculated after the
  | s.c.f. cycle, in particular not ANY RPA, MP2, etc. many-body perturbation terms.

  Final zero-broadening corrected energy:
  | For metallic systems only, a broadening of the occupation numbers at the Fermi
  | level can be extrapolated back to zero broadening by an electron-gas inspired
  | formula. For all systems that are not real metals, this value can be
  | meaningless and should be avoided.

------------------------------------------------------------------------------
  Methods described in the following list of references were used in this FHI-aims run.
  If you publish the results, please make sure to cite these reference if they apply.
  FHI-aims is an academic code, and for our developers (often, Ph.D. students
  and postdocs), scientific credit in the community is essential.
  Thank you for helping us!

  For any use of FHI-aims, please cite:

    Volker Blum, Ralf Gehrke, Felix Hanke, Paula Havu, Ville Havu,
    Xinguo Ren, Karsten Reuter, and Matthias Scheffler
    'Ab initio molecular simulations with numeric atom-centered orbitals'
    Computer Physics Communications 180, 2175-2196 (2009)
    http://dx.doi.org/10.1016/j.cpc.2009.06.022


  For the real-space grid partitioning and parallelization used in this calculation, please cite:

    Ville Havu, Volker Blum, Paula Havu, and Matthias Scheffler,
    'Efficient O(N) integration for all-electron electronic structure calculation'
    'using numerically tabulated basis functions'
    Journal of Computational Physics 228, 8367-8379 (2009).
    http://dx.doi.org/10.1016/j.jcp.2009.08.008

  Of course, there are many other important community references, e.g., those cited in the
  above references. Our list is limited to references that describe implementations in the
  FHI-aims code. The reason is purely practical (length of this list) - please credit others as well.

------------------------------------------------------------
          Leaving FHI-aims.
          Date     :  20190508, Time     :  170403.492

          Computational steps:
          | Number of self-consistency cycles          :           13
          | Number of SCF (re)initializations          :            1

          Detailed time accounting                     :  max(cpu_time)    wall_clock(cpu1)
          | Total time                                 :        0.979 s           0.979 s
          | Preparation time                           :        0.046 s           0.046 s
          | Boundary condition initalization           :        0.000 s           0.000 s
          | Grid partitioning                          :        0.014 s           0.014 s
          | Preloading free-atom quantities on grid    :        0.001 s           0.001 s
          | Free-atom superposition energy             :        0.012 s           0.012 s
          | Total time for integrations                :        0.415 s           0.416 s
          | Total time for solution of K.-S. equations :        0.003 s           0.003 s
          | Total time for density & force components  :        0.178 s           0.176 s
          | Total time for mixing                      :        0.009 s           0.010 s
          | Total time for Hartree multipole update    :        0.018 s           0.017 s
          | Total time for Hartree multipole sum       :        0.252 s           0.254 s
          | Total time for total energy evaluation     :        0.001 s           0.001 s

 This is a stub MPI_ALLREDUCE call.
 You should not be here. Check your
 setting on the use_mpi variable, or
 link against true MPI-libraries.
