------------------------------------------------------------
          Invoking FHI-aims ...
          Version 171221_1
          Compiled on 2019/05/06 at 14:26:40 on host ffph0xx.

          When using FHI-aims, please cite the following reference:

          Volker Blum, Ralf Gehrke, Felix Hanke, Paula Havu,
          Ville Havu, Xinguo Ren, Karsten Reuter, and Matthias Scheffler,
          'Ab Initio Molecular Simulations with Numeric Atom-Centered Orbitals',
          Computer Physics Communications 180, 2175-2196 (2009)

          For any questions about FHI-aims, please visit the aimsclub website
          with its forums and wiki. Contributions to both the forums and the
          wiki are warmly encouraged - they are for you, and everyone is welcome there.

------------------------------------------------------------



  Date     :  20190513, Time     :  134507.571
  Time zero on CPU 1             :   0.193500000000000E-02  s.
  Internal wall clock time zero  :           326987107.571  s.

  FHI-aims created a unique identifier for this run for later identification
  aims_uuid : 309B2130-7C0B-4A99-AB5D-F2B0F5F3B581


  Performing system and environment tests:
  *** Environment variable OMP_NUM_THREADS is not set
  *** For performance reasons you might want to set it to 1
  | Stacksize not measured: no C compiler

  Obtaining array dimensions for all initial allocations:
  
  -----------------------------------------------------------------------
  Parsing control.in (first pass over file, find array dimensions only).
  The contents of control.in will be repeated verbatim below
  unless switched off by setting 'verbatim_writeout .false.' .
  in the first line of control.in .
  -----------------------------------------------------------------------
  
  #--- method ---
  xc pw-lda
  spin none
  relativistic atomic_zora scalar
  #---
  
  #--- k-grid settings ---
  k_grid 16 16 16
  #---
  
  
  
  
  
  
  
  
  
  
  
  #-------------------------------------------------------------------------------
  #--- Species defaults for Si
  #-------------------------------------------------------------------------------
  
  ################################################################################
  #
  #  FHI-aims code project
  #  VB, Fritz-Haber Institut, 2009
  #
  #  Suggested "light" defaults for Si atom (to be pasted into control.in file)
  #  Be sure to double-check any results obtained with these settings for post-processing,
  #  e.g., with the "tight" defaults and larger basis sets.
  #
  ################################################################################
    species        Si
  #     global species definitions
      nucleus             14
      mass                28.0855
  #
      l_hartree           4
  #
      cut_pot             3.5          1.5  1.0
      basis_dep_cutoff    1e-4
  #
      radial_base         42 5.0
      radial_multiplier   1
      angular_grids       specified
        division   0.5866   50
        division   0.9616  110
        division   1.2249  194
        division   1.3795  302
  #      division   1.4810  434
  #      division   1.5529  590
  #      division   1.6284  770
  #      division   1.7077  974
  #      division   2.4068 1202
  #      outer_grid   974
        outer_grid 302
  ################################################################################
  #
  #  Definition of "minimal" basis
  #
  ################################################################################
  #     valence basis states
      valence      3  s   2.
      valence      3  p   2.
  #     ion occupancy
      ion_occ      3  s   1.
      ion_occ      3  p   1.
  ################################################################################
  #
  #  Suggested additional basis functions. For production calculations,
  #  uncomment them one after another (the most important basis functions are
  #  listed first).
  #
  #  Constructed for dimers: 1.75 A, 2.0 A, 2.25 A, 2.75 A, 3.75 A
  #
  ################################################################################
  #  "First tier" - improvements: -571.96 meV to -37.03 meV
       hydro 3 d 4.2
       hydro 2 p 1.4
  #     hydro 4 f 6.2
       ionic 3 s auto
  #  "Second tier" - improvements: -16.76 meV to -3.03 meV
  #     hydro 3 d 9
  #     hydro 5 g 9.4
  #     hydro 4 p 4
  #     hydro 1 s 0.65
  #  "Third tier" - improvements: -3.89 meV to -0.60 meV
  #     ionic 3 d auto
  #     hydro 3 s 2.6
  #     hydro 4 f 8.4
  #     hydro 3 d 3.4
  #     hydro 3 p 7.8
  #  "Fourth tier" - improvements: -0.33 meV to -0.11 meV
  #     hydro 2 p 1.6
  #     hydro 5 g 10.8
  #     hydro 5 f 11.2
  #     hydro 3 d 1
  #     hydro 4 s 4.5
  #  Further basis functions that fell out of the optimization - noise
  #  level... < -0.08 meV
  #     hydro 4 d 6.6
  #     hydro 5 g 16.4
  #     hydro 4 d 9
  
  -----------------------------------------------------------------------
  Completed first pass over input file control.in .
  -----------------------------------------------------------------------
  
  
  -----------------------------------------------------------------------
  Parsing geometry.in (first pass over file, find array dimensions only).
  The contents of geometry.in will be repeated verbatim below
  unless switched off by setting 'verbatim_writeout .false.' .
  in the first line of geometry.in .
  -----------------------------------------------------------------------
  
  lattice_vector   0.000000   2.550000   2.550000
  lattice_vector   2.550000   0.000000   2.550000
  lattice_vector   2.550000   2.550000   0.000000
  atom_frac   0.000000   0.000000   0.000000 Si
  atom_frac   0.250000   0.250000   0.250000 Si
  
  -----------------------------------------------------------------------
  Completed first pass over input file geometry.in .
  -----------------------------------------------------------------------
  

  Basic array size parameters:
  | Number of species                 :        1
  | Number of atoms                   :        2
  | Number of lattice vectors         :        3
  | Max. basis fn. angular momentum   :        2
  | Max. atomic/ionic basis occupied n:        3
  | Max. number of basis fn. types    :        3
  | Max. radial fns per species/type  :        5
  | Max. logarithmic grid size        :     1346
  | Max. radial integration grid size :       42
  | Max. angular integration grid size:      302
  | Max. angular grid division number :        8
  | Radial grid for Hartree potential :     1346
  | Number of spin channels           :        1

------------------------------------------------------------
          Reading file control.in.
------------------------------------------------------------
  XC: Using Perdew-Wang parametrisation of Ceperley-Alder LDA.
  Spin treatment: No spin polarisation.
  Scalar relativistic treatment of kinetic energy: on-site free-atom approximation to ZORA.
  Found k-point grid:        16        16        16

  Reading configuration options for species Si                  .
  | Found nuclear charge :  14.0000
  | Found atomic mass :    28.085500000000000      amu
  | Found l_max for Hartree potential  :   4
  | Found cutoff potl. onset [A], width [A], scale factor :    3.50000    1.50000    1.00000
  | Threshold for basis-dependent cutoff potential is   0.100000E-03
  | Found data for basic radial integration grid :    42 points, outermost radius =    5.000 A
  | Found multiplier for basic radial grid :   1
  | Found angular grid specification: user-specified.
  | Specified grid contains     5 separate shells.
  | Check grid settings after all constraints further below.
  | Found free-atom valence shell :  3 s   2.000
  | Found free-atom valence shell :  3 p   2.000
  | Found free-ion valence shell :  3 s   1.000
  | Found free-ion valence shell :  3 p   1.000
  | Found hydrogenic basis function :  3 d   4.200
  | Found hydrogenic basis function :  2 p   1.400
  | Found ionic basis function :  3 s , default cutoff radius.
  Species Si                  : Missing cutoff potential type.
  Defaulting to exp(1/x)/(1-x)^2 type cutoff potential.
  Species Si: No 'logarithmic' tag. Using default grid for free atom:
  | Default logarithmic grid data [bohr] : 0.1000E-03 0.1000E+03 0.1012E+01
  | Will include ionic basis functions of  2.0-fold positive Si                   ion.
  Species Si: On-site basis accuracy parameter (for Gram-Schmidt orthonormalisation) not specified.
  Using default value basis_acc =  0.1000000E-03.
  Species Si                  : Using default innermost maximum threshold i_radial=  2 for radial functions.
  Species Si                  : Default cutoff onset for free atom density etc. : 0.35000000E+01 AA.
  Species Si                  : Basic radial grid will be enhanced according to radial_multiplier =   1, to contain    42 grid points.

  Finished reading input file 'control.in'. Consistency checks are next.

  MPI_IN_PLACE appears to work with this MPI implementation.
  | Keeping use_mpi_in_place .true. (see manual).
  Target number of points in a grid batch is not set. Defaulting to  100
  Method for grid partitioning is not set. Defaulting to 'maxmin' partitioning.
  Batch size limit is not set. Defaulting to    200
  By default, will store active basis functions for each batch.
  If in need of memory, prune_basis_once .false. can be used to disable this option.
  communication_type for Hartree potential was not specified.
  Defaulting to calc_hartree .
 * Attention: 
 * You may want to set distributed_spline_storage to .true. in order to save memory.
 * This doesn't harm performance and is perfectly ok unless:
 * - you get error messages in postprocessing (about missing atoms in get_rho_multipole_spl)
 * - you need full spline storage in hirshfeld_analysis
  Defaulting to Pulay charge density mixer.
  Pulay mixer: Number of relevant iterations not set.
  Defaulting to    8 iterations.
  Pulay mixer: Number of initial linear mixing iterations not set.
  Defaulting to    0 iterations.
  Work space size for distributed Hartree potential not set.
  Defaulting to   0.200000E+03 MB.
  Mixing parameter for charge density mixing has not been set.
  Using default: charge_mix_param =     0.0500.
  The mixing parameter will be adjusted in iteration number     2 of the first full s.c.f. cycle only.
  Algorithm-dependent basis array size parameters:
  | n_max_pulay                         :        8
 * Notice: The s.c.f. convergence criterion sc_accuracy_rho was not provided.
 * We used to stop in this case, and ask the user to provide reasonable
 * scf convergence criteria. However, this led some users to employ criteria
 * that led to extremely long run times, e.g., for simple relaxation.
 * We now preset a default value for sc_accuracy_rho if it is not set.
 * You may still wish to check if this setting is too tight or too loose for your needs.
 * Based on n_atoms, FHI-aims chose sc_accuracy_rho =  0.100000E-05 .
  Maximum number of self-consistency iterations not provided.
  Presetting  1000 iterations.
  Presetting      1001 iterations before the initial mixing cycle
  is restarted anyway using the sc_init_iter criterion / keyword.
  Presetting a factor      1.000 between actual scf density residual
  and density convergence criterion sc_accuracy_rho below which sc_init_iter
  takes no effect.
 * No s.c.f. convergence criteria (sc_accuracy_*) were provided in control.in.
 * The run will proceed with a reasonable default guess, but please check whether.
 * the s.c.f. cycles seem to take too much or too little time.
  Calculation of forces was not defined in control.in. No forces will be calculated.
  Geometry relaxation not requested: no relaxation will be performed.
  No accuracy limit for integral partition fn. given. Defaulting to  0.1000E-14.
  No threshold value for u(r) in integrations given. Defaulting to  0.1000E-05.
  No occupation type (smearing scheme) given. Defaulting to Gaussian broadening, width =  0.1000E-01 eV.
  The width will be adjusted in iteration number     2 of the first full s.c.f. cycle only.
  S.C.F. convergence parameters will be adjusted in iteration number     2 of the first full s.c.f. cycle only.
  No accuracy for occupation numbers given. Defaulting to  0.1000E-12.
  No threshold value for occupation numbers given. Defaulting to  0.0000E+00.
  No accuracy for fermi level given. Defaulting to  0.1000E-19.
  Maximum # of iterations to find E_F not set. Defaulting to  200.
  Preferred method for the eigenvalue solver ('KS_method') not specified in 'control.in'.
  Defaulting to serial version, 'lapack_fast'.
  Will not use alltoall communication since running on < 1024 CPUs.
  Threshold for basis singularities not set.
  Default threshold for basis singularities:  0.1000E-04
  partition_type (choice of integration weights) for integrals was not specified.
  | Using a version of the partition function of Stratmann and coworkers ('stratmann_smoother').
  | At each grid point, the set of atoms used to build the partition table is smoothly restricted to
  | only those atoms whose free-atom density would be non-zero at that grid point.
  Partitioning for Hartree potential was not defined. Using partition_type for integrals.
  | Adjusted default value of keyword multip_moments_threshold to:       0.10000000E-11
  | This value may affect high angular momentum components of the Hartree potential in periodic systems.
  Angular momentum expansion for Kerker preconditioner not set explicitly.
  | Using default value of   0
  No explicit requirement for turning off preconditioner.
  | By default, it will be turned off when the charge convergence reaches
  | sc_accuracy_rho  =   0.100000E-05
  No special mixing parameter while Kerker preconditioner is on.
  Using default: charge_mix_param =     0.0500.
  No q(lm)/r^(l+1) cutoff set for long-range Hartree potential.
  | Using default value of  0.100000E-09 .
  | Verify using the multipole_threshold keyword.
  Defaulting to new monopole extrapolation.
  Density update method: automatic selection selected.
  Using density matrix based charge density update.
  Using density matrix based charge density update.
  Using packed matrix style: index .
  Defaulting to use time-reversal symmetry for k-point grid.
------------------------------------------------------------


------------------------------------------------------------
          Reading geometry description geometry.in.
------------------------------------------------------------
  Input structure read successfully.
  The structure contains        2 atoms,  and a total of         28.000 electrons.

  Input geometry:
  | Unit cell:
  |        0.00000000        2.55000000        2.55000000
  |        2.55000000        0.00000000        2.55000000
  |        2.55000000        2.55000000        0.00000000
  | Atomic structure:
  |       Atom                x [A]            y [A]            z [A]
  |    1: Species Si            0.00000000        0.00000000        0.00000000
  |    2: Species Si            1.27500000        1.27500000        1.27500000

  Lattice parameters for 3D lattice (in Angstroms) :     3.606245    3.606245    3.606245
  Angle(s) between unit vectors (in degrees)      :    60.000000   60.000000   60.000000

  |

  | The smallest distance between any two atoms is         2.20836478 AA.
  |
  | The first atom of this pair is atom number                      1 .
  | The second atom of this pair is atom number                     2 .
  | Wigner-Seitz cell of the first atom image           0     0     0 .
  | (The Wigner-Seitz cell of the second atom is 0 0 0  by definition.)

  Quantities derived from the lattice vectors:
  | Reciprocal lattice vector 1: -1.231997  1.231997  1.231997
  | Reciprocal lattice vector 2:  1.231997 -1.231997  1.231997
  | Reciprocal lattice vector 3:  1.231997  1.231997 -1.231997
  | Unit cell volume                               :   0.331627E+02  A^3

  Range separation radius for Ewald summation (hartree_convergence_parameter):      3.62591133 bohr.

  Fractional coordinates:
                         L1                L2                L3
       atom_frac         0.00000000        0.00000000        0.00000000  Si
       atom_frac         0.25000000        0.25000000        0.25000000  Si

  Number of empty states per atom not set in control.in - providing a guess from actual geometry.
  | Total number of empty states used during s.c.f. cycle:        6
  If you use a very high smearing, use empty_states (per atom!) in control.in to increase this value.

  Structure-dependent array size parameters: 
  | Maximum number of distinct radial functions  :        8
  | Maximum number of basis functions            :       36
  | Number of Kohn-Sham states (occupied + empty):       20
------------------------------------------------------------

------------------------------------------------------------
          Preparing all fixed parts of the calculation.
------------------------------------------------------------
  Determining machine precision:
     2.2250738585072014E-308
  Setting up grids for atomic and cluster calculations.

  Creating wave function, potential, and density for free atoms.

  Species: Si

  List of occupied orbitals and eigenvalues:
    n    l              occ      energy [Ha]    energy [eV]
    1    0           2.0000       -65.491668     -1782.1190
    2    0           2.0000        -5.087967      -138.4506
    3    0           2.0000        -0.391471       -10.6525
    2    1           6.0000        -3.502246       -95.3010
    3    1           2.0000        -0.143943        -3.9169

  Creating fixed part of basis set: Ionic, confined, hydrogenic.

  Si                   ion:

  List of free ionic orbitals and eigenvalues:
    n    l      energy [Ha]    energy [eV]
    1    0       -66.364436     -1805.8682
    2    0        -5.935799      -161.5213
    3    0        -1.078166       -29.3384
    2    1        -4.351123      -118.4001
    3    1        -0.781733       -21.2720


  List of ionic basis orbitals and eigenvalues:
    n    l      energy [Ha]    energy [eV]    outer radius [A]
    3    0        -1.078146       -29.3378       4.214062


  Si                   hydrogenic:

  List of hydrogenic basis orbitals: 
    n    l      effective z      eigenvalue [eV]  inner max. [A]     outer max. [A]     outer radius [A]   
    3    2         4.200000       -26.6624           1.139231           1.139231           4.534782
    2    1         1.400000        -6.4613           1.472672           1.472672           4.590560


  Adding cutoff potential to free-atom effective potential.
  Creating atomic-like basis functions for current effective potential.

  Species Si                  :

  List of atomic basis orbitals and eigenvalues:
    n    l      energy [Ha]    energy [eV]    outer radius [A]
    1    0       -65.491668     -1782.1190       0.789468
    2    0        -5.087967      -138.4506       2.815114
    3    0        -0.391471       -10.6525       4.534782
    2    1        -3.502246       -95.3010       3.259919
    3    1        -0.143943        -3.9169       4.590560

  Assembling full basis from fixed parts.
  | Species Si :   atomic orbital   1 s accepted.
  | Species Si :   atomic orbital   2 s accepted.
  | Species Si :    ionic orbital   3 s accepted.
  | Species Si :   atomic orbital   3 s accepted.
  | Species Si :   atomic orbital   2 p accepted.
  | Species Si :   atomic orbital   3 p accepted.
  | Species Si :    hydro orbital   2 p accepted.
  | Species Si :    hydro orbital   3 d accepted.

  Basis size parameters after reduction:
  | Total number of radial functions:        8
  | Total number of basis functions :       36

  Per-task memory consumption for arrays in subroutine allocate_ext:
  |           2.757868MB.
  Testing on-site integration grid accuracy.
  |  Species  Function  <phi|h_atom|phi> (log., in eV)  <phi|h_atom|phi> (rad., in eV)
           1        1              -1782.1189727076              -1782.1182429251
           1        2               -138.4506350693               -138.4506310079
           1        3                -10.3030408815                -10.3029120678
           1        4                  5.0238999146                  4.9457540310 ***
           1        5                -95.3009689499                -95.3009689315
           1        6                 -3.9266496564                 -3.9420918374
           1        7                  6.3453628447                  6.1632372158 ***
           1        8                  6.2883050744                  6.2861881409
 * Note: Onsite integrals marked "***" above are less accurate than
 * onsite_accuracy_threshold =    0.03000 eV. Usually, this is harmless.
 * When in doubt, tighten the "radial" and/or "radial_multiplier" flags to check.

  Preparing densities etc. for the partition functions (integrals / Hartree potential).

  Preparations completed.
  max(cpu_time)          :      0.096 s.
  Wall clock time (cpu1) :      0.096 s.
------------------------------------------------------------

------------------------------------------------------------
          Begin self-consistency loop: Initialization.

          Date     :  20190513, Time     :  134507.671
------------------------------------------------------------

  Initializing index lists of integration centers etc. from given atomic structure:
  Mapping all atomic coordinates to central unit cell.

  Initializing the k-points
          Using symmetry for reducing the k-points
  | k-points reduced from:     4096 to     2052
  | Number of k-points                             :      2052
  The eigenvectors in the calculations are COMPLEX.
  | K-points in task   0:      2052
  | Number of basis functions in the Hamiltonian integrals :      1498
  | Number of basis functions in a single unit cell        :        36
  | Number of centers in hartree potential         :       780
  | Number of centers in hartree multipole         :       378
  | Number of centers in electron density summation:       228
  | Number of centers in basis integrals           :       288
  | Number of centers in integrals                 :       101
  | Number of centers in hamiltonian               :       228
  | Consuming       4552 KiB for k_phase.
  | Number of super-cells (origin) [n_cells]                     :        2197
  | Number of super-cells (after PM_index) [n_cells]             :         142
  | Number of super-cells in hamiltonian [n_cells_in_hamiltonian]:         142
  | Size of matrix packed + index [n_hamiltonian_matrix_size] :       50271
  Partitioning the integration grid into batches with maxmin method.
  | Maximal weight for a single point:     1.000
  | Minimal weight for a single point:     0.706
  | Number of batches:      128
  | Maximal batch size:      90
  | Minimal batch size:      85
  | Average batch size:      87.562
  | Standard deviation of batch sizes:       1.493
  Initializing partition tables, free-atom densities, potentials, etc. across the integration grid (initialize_grid_storage).
  | initialize_grid_storage: Actual outermost partition radius vs. multipole_radius_free
  | (-- VB: in principle, multipole_radius_free should be larger, hence this output)
  | Species        1: Confinement radius =              4.999999999999999 AA, multipole_radius_free =              5.000694715736543 AA.
  | Species        1: outer_partition_radius set to              5.000694715736543 AA .
  | Original list of interatomic distances with         288 x        288 entries is created.
  | Net number of integration points:    11208
  | of which are non-zero points    :     9580
  | Numerical average free-atom electrostatic potential    :    -15.86988072 eV
  Renormalizing the initial density to the exact electron count on the 3D integration grid.
  | Initial density: Formal number of electrons (from input files) :      28.0000000000
  | Integrated number of electrons on 3D grid     :      28.0069324253
  | Charge integration error                      :       0.0069324253
  | Normalization factor for density and gradient :       0.9997524747
  Obtaining max. number of non-zero basis functions in each batch (get_n_compute_maxes).
  | Maximal number of non-zero basis functions:      550 in task     0
  Allocating       23.639 MB for KS_eigenvector_complex
  Integrating Hamiltonian matrix: batch-based integration.
  Time summed over all CPUs for integration: real work        0.803 s, elapsed        0.803 s
  Integrating overlap matrix.
  Time summed over all CPUs for integration: real work        0.561 s, elapsed        0.561 s
  Decreasing sparse matrix size:
   Tolerance:   9.9999998245167004E-014
   Hamiltonian matrix
  | Array has    43827 nonzero elements out of    50271 elements
  | Sparsity factor is 0.128
   Overlap matrix
  | Array has    40604 nonzero elements out of    50271 elements
  | Sparsity factor is 0.192
  New size of hamiltonian matrix:       44155

  Updating Kohn-Sham eigenvalues, eigenvectors, occupation numbers, and Fermi level.
  Solving generalized eigenproblem
  Transforming overlap matrix and checking for singularities.
  Overlap matrix is nonsingular at first k-point:
  | Lowest eigenvalue:  0.228247E-02

  Obtaining occupation numbers and chemical potential using ELSI.
  | Chemical potential (Fermi level):    -6.62372899eV
  Writing Kohn-Sham eigenvalues.
  K-point:       1 at    0.000000    0.000000    0.000000 (in units of recip. lattice)

  State    Occupation    Eigenvalue [Ha]    Eigenvalue [eV]
      1       2.00000         -65.527151        -1783.08450
      2       2.00000         -65.527151        -1783.08450
      3       2.00000          -5.131321         -139.63034
      4       2.00000          -5.130586         -139.61034
      5       2.00000          -3.545638          -96.48173
      6       2.00000          -3.545638          -96.48173
      7       2.00000          -3.545638          -96.48173
      8       2.00000          -3.544306          -96.44547
      9       2.00000          -3.544306          -96.44547
     10       2.00000          -3.544306          -96.44547
     11       2.00000          -0.732935          -19.94417
     12       2.00000          -0.249921           -6.80070
     13       2.00000          -0.249921           -6.80070
     14       2.00000          -0.249921           -6.80070
     15       0.00000          -0.140778           -3.83077
     16       0.00000          -0.140778           -3.83077
     17       0.00000          -0.140778           -3.83077
     18       0.00000          -0.037390           -1.01744
     19       0.00000           0.052470            1.42779
     20       0.00000           0.052470            1.42779

  What follows are estimated values for band gap, HOMO, LUMO, etc.
  | They are estimated on a discrete k-point grid and not necessarily exact.
  | For converged numbers, create a DOS and/or band structure plot on a denser k-grid.

  Highest occupied state (VBM) at     -6.80070496 eV (relative to internal zero)
  | Occupation number:      2.00000000
  | K-point:       1 at    0.000000    0.000000    0.000000 (in units of recip. lattice)

  Lowest unoccupied state (CBM) at    -6.20165329 eV (relative to internal zero)
  | Occupation number:      0.00000000
  | K-point:    1367 at    0.437500    0.437500    0.000000 (in units of recip. lattice)

  ESTIMATED overall HOMO-LUMO gap:      0.59905167 eV between HOMO at k-point 1 and LUMO at k-point 1367
  | This appears to be an indirect band gap.
  | Smallest direct gap :      2.96993543 eV for k_point 1 at    0.437500    0.437500    0.000000 (in units of recip. lattice)
  The gap value is above 0.2 eV. Unless you are using a very sparse k-point grid,
  this system is most likely an insulator or a semiconductor.
  Calculating total energy contributions from superposition of free atom densities.

  Total energy components:
  | Sum of eigenvalues            :        -328.78945318 Ha       -8946.81623007 eV
  | XC energy correction          :         -39.77187644 Ha       -1082.24782214 eV
  | XC potential correction       :          52.54427084 Ha        1429.80235714 eV
  | Free-atom electrostatic energy:        -262.71365604 Ha       -7148.80230797 eV
  | Hartree energy correction     :          -0.00000000 Ha          -0.00000000 eV
  | Entropy correction            :          -0.00000000 Ha          -0.00000000 eV
  | ---------------------------
  | Total energy                  :        -578.73071482 Ha      -15748.06400303 eV
  | Total energy, T -> 0          :        -578.73071482 Ha      -15748.06400303 eV  <-- do not rely on this value for anything but (periodic) metals
  | Electronic free energy        :        -578.73071482 Ha      -15748.06400303 eV

  Derived energy quantities:
  | Kinetic energy                :         580.02877350 Ha       15783.38597673 eV
  | Electrostatic energy          :       -1118.98761188 Ha      -30449.20215763 eV
  | Energy correction for multipole
  | error in Hartree potential    :           0.00000000 Ha           0.00000000 eV
  | Sum of eigenvalues per atom                           :       -4473.40811503 eV
  | Total energy (T->0) per atom                          :       -7874.03200152 eV  <-- do not rely on this value for anything but (periodic) metals
  | Electronic free energy per atom                       :       -7874.03200152 eV
  Initialize hartree_potential_storage
  Max. number of atoms included in rho_multipole:            2

  End scf initialization - timings             :  max(cpu_time)    wall_clock(cpu1)
  | Time for scf. initialization               :        4.347 s           4.361 s
  | Boundary condition initialization          :        0.048 s           0.048 s
  | Integration                                :        1.360 s           1.364 s
  | Solution of K.-S. eqns.                    :        2.659 s           2.668 s
  | Grid partitioning                          :        0.032 s           0.032 s
  | Preloading free-atom quantities on grid    :        0.001 s           0.001 s
  | Free-atom superposition energy             :        0.040 s           0.041 s
  | Total energy evaluation                    :        0.001 s           0.000 s

  Partial memory accounting:
  | Current value for overall tracked memory usage on task 0  :          24.522 MB
  | Peak value for overall tracked memory usage on task 0     :          28.253 MB after allocating wave
  | Largest tracked array allocation on task 0 so far         :          23.639 MB  when allocating +KS_eigenvector_complex
  Note:  These values currently only include a subset of arrays which are explicitly tracked.
  The "true" memory usage will be greater.
------------------------------------------------------------

------------------------------------------------------------
          Begin self-consistency iteration #    1

  Date     :  20190513, Time     :  134512.032
------------------------------------------------------------
  Evaluating new KS density using the density matrix
  Evaluating density matrix
  Time summed over all CPUs for getting density from density matrix: real work        1.445 s, elapsed        1.445 s
  Integration grid: deviation in total charge (<rho> - N_e) =  -3.552714E-15
  Pulay mixing of updated and previous charge densities.

  Evaluating partitioned Hartree potential by multipole expansion.
  | Analytical far-field extrapolation by fixed multipoles:
  | Hartree multipole sum: apparent total charge =   0.712087E-02
  Summing up the Hartree potential.
  | Estimated reciprocal-space cutoff momentum G_max:         2.58325284 bohr^-1 .
  | Reciprocal lattice points for long-range Hartree potential:      58
  Time summed over all CPUs for potential: real work        0.500 s, elapsed        0.500 s
  | RMS charge density error from multipole expansion :   0.750066E-03
  | Average real-space part of the electrostatic potential :     -0.00521310 eV

  Integrating Hamiltonian matrix: batch-based integration.
  Time summed over all CPUs for integration: real work        0.963 s, elapsed        0.963 s

  Updating Kohn-Sham eigenvalues, eigenvectors, occupation numbers, and Fermi level.
  Solving generalized eigenproblem

  Obtaining occupation numbers and chemical potential using ELSI.
  | Chemical potential (Fermi level):    -6.60577823eV
  Writing Kohn-Sham eigenvalues.
  K-point:       1 at    0.000000    0.000000    0.000000 (in units of recip. lattice)

  State    Occupation    Eigenvalue [Ha]    Eigenvalue [eV]
      1       2.00000         -65.530926        -1783.18723
      2       2.00000         -65.530926        -1783.18723
      3       2.00000          -5.131759         -139.64227
      4       2.00000          -5.131025         -139.62230
      5       2.00000          -3.546183          -96.49654
      6       2.00000          -3.546183          -96.49654
      7       2.00000          -3.546183          -96.49654
      8       2.00000          -3.544854          -96.46038
      9       2.00000          -3.544854          -96.46038
     10       2.00000          -3.544854          -96.46038
     11       2.00000          -0.732312          -19.92722
     12       2.00000          -0.248970           -6.77482
     13       2.00000          -0.248970           -6.77482
     14       2.00000          -0.248970           -6.77482
     15       0.00000          -0.140333           -3.81866
     16       0.00000          -0.140333           -3.81866
     17       0.00000          -0.140333           -3.81866
     18       0.00000          -0.036584           -0.99551
     19       0.00000           0.053014            1.44259
     20       0.00000           0.053014            1.44259

  What follows are estimated values for band gap, HOMO, LUMO, etc.
  | They are estimated on a discrete k-point grid and not necessarily exact.
  | For converged numbers, create a DOS and/or band structure plot on a denser k-grid.

  Highest occupied state (VBM) at     -6.77482494 eV (relative to internal zero)
  | Occupation number:      2.00000000
  | K-point:       1 at    0.000000    0.000000    0.000000 (in units of recip. lattice)

  Lowest unoccupied state (CBM) at    -6.19465983 eV (relative to internal zero)
  | Occupation number:      0.00000000
  | K-point:    1288 at    0.437500    0.000000    0.437500 (in units of recip. lattice)

  ESTIMATED overall HOMO-LUMO gap:      0.58016511 eV between HOMO at k-point 1 and LUMO at k-point 1288
  | This appears to be an indirect band gap.
  | Smallest direct gap :      2.95616337 eV for k_point 1 at    0.437500    0.000000    0.437500 (in units of recip. lattice)
  The gap value is above 0.2 eV. Unless you are using a very sparse k-point grid,
  this system is most likely an insulator or a semiconductor.

  Total energy components:
  | Sum of eigenvalues            :        -328.80727050 Ha       -8947.30106410 eV
  | XC energy correction          :         -39.77630079 Ha       -1082.36821487 eV
  | XC potential correction       :          52.55011625 Ha        1429.96141878 eV
  | Free-atom electrostatic energy:        -262.71365604 Ha       -7148.80230797 eV
  | Hartree energy correction     :           0.01724991 Ha           0.46939396 eV
  | Entropy correction            :          -0.00000000 Ha          -0.00000000 eV
  | ---------------------------
  | Total energy                  :        -578.72986118 Ha      -15748.04077420 eV
  | Total energy, T -> 0          :        -578.72986118 Ha      -15748.04077420 eV  <-- do not rely on this value for anything but (periodic) metals
  | Electronic free energy        :        -578.72986118 Ha      -15748.04077420 eV

  Derived energy quantities:
  | Kinetic energy                :         579.85405393 Ha       15778.63161527 eV
  | Electrostatic energy          :       -1118.80761431 Ha      -30444.30417461 eV
  | Energy correction for multipole
  | error in Hartree potential    :           0.00102551 Ha           0.02790548 eV
  | Sum of eigenvalues per atom                           :       -4473.65053205 eV
  | Total energy (T->0) per atom                          :       -7874.02038710 eV  <-- do not rely on this value for anything but (periodic) metals
  | Electronic free energy per atom                       :       -7874.02038710 eV

  Self-consistency convergence accuracy:
  | Change of charge density      :  0.1256E+00
  | Change of sum of eigenvalues  : -0.4848E+00 eV
  | Change of total energy        :  0.2323E-01 eV

  End self-consistency iteration #     1       :  max(cpu_time)    wall_clock(cpu1)
  | Time for this iteration                    :        4.456 s           4.469 s
  | Charge density update                      :        1.625 s           1.630 s
  | Density mixing & preconditioning           :        0.055 s           0.055 s
  | Hartree multipole update                   :        0.001 s           0.000 s
  | Hartree multipole summation                :        0.503 s           0.505 s
  | Integration                                :        0.959 s           0.963 s
  | Solution of K.-S. eqns.                    :        1.312 s           1.316 s
  | Total energy evaluation                    :        0.001 s           0.000 s

  Partial memory accounting:
  | Current value for overall tracked memory usage on task 0  :          24.522 MB
  | Peak value for overall tracked memory usage on task 0     :          28.253 MB after allocating wave
  | Largest tracked array allocation on task 0 so far         :          23.639 MB  when allocating +KS_eigenvector_complex
  Note:  These values currently only include a subset of arrays which are explicitly tracked.
  The "true" memory usage will be greater.
------------------------------------------------------------

------------------------------------------------------------
          Begin self-consistency iteration #    2

  Date     :  20190513, Time     :  134516.502
------------------------------------------------------------
  Evaluating new KS density using the density matrix
  Evaluating density matrix
  Time summed over all CPUs for getting density from density matrix: real work        1.444 s, elapsed        1.444 s
  Integration grid: deviation in total charge (<rho> - N_e) =   2.842171E-14
  Pulay mixing of updated and previous charge densities.

  Evaluating partitioned Hartree potential by multipole expansion.
  | Analytical far-field extrapolation by fixed multipoles:
  | Hartree multipole sum: apparent total charge =   0.105765E-01
  Summing up the Hartree potential.
  Time summed over all CPUs for potential: real work        0.544 s, elapsed        0.544 s
  | RMS charge density error from multipole expansion :   0.146740E-01
  | Average real-space part of the electrostatic potential :      0.49233152 eV

  Integrating Hamiltonian matrix: batch-based integration.
  Time summed over all CPUs for integration: real work        0.882 s, elapsed        0.882 s

  Updating Kohn-Sham eigenvalues, eigenvectors, occupation numbers, and Fermi level.
  Solving generalized eigenproblem

  Obtaining occupation numbers and chemical potential using ELSI.
  | Chemical potential (Fermi level):    -6.04805344eV
  What follows are estimated values for band gap, HOMO, LUMO, etc.
  | They are estimated on a discrete k-point grid and not necessarily exact.
  | For converged numbers, create a DOS and/or band structure plot on a denser k-grid.

  Highest occupied state (VBM) at     -6.07047757 eV (relative to internal zero)
  | Occupation number:      1.99848216
  | K-point:       1 at    0.000000    0.000000    0.000000 (in units of recip. lattice)

  Lowest unoccupied state (CBM) at    -6.02424263 eV (relative to internal zero)
  | Occupation number:      0.00075892
  | K-point:     105 at    0.000000    0.562500    0.562500 (in units of recip. lattice)

  ESTIMATED overall HOMO-LUMO gap:      0.04623494 eV between HOMO at k-point 1 and LUMO at k-point 105
  | This appears to be an indirect band gap.
  | Smallest direct gap :      2.58600436 eV for k_point 1 at    0.000000    0.562500    0.562500 (in units of recip. lattice)
  However, the gap value is rather small. Since we use a finite k-point grid,
  this material is most likely metallic (in the sense that there are states
  at or near the Fermi level). A DOS and/or band structure plot is required
  for an unambiguous distinction.

  Checking to see if s.c.f. parameters should be adjusted.
  Adjusted the Pulay mixing parameter (charge_mix_param) for an expected low-gap system. New value:   0.020000 .
  Adjusted the occupation broadening width for an expected low-gap system. New value:      0.05000000 eV.

  Total energy components:
  | Sum of eigenvalues            :        -327.56316993 Ha       -8913.44736499 eV
  | XC energy correction          :         -39.87279942 Ha       -1084.99407613 eV
  | XC potential correction       :          52.67755304 Ha        1433.42915031 eV
  | Free-atom electrostatic energy:        -262.71365604 Ha       -7148.80230797 eV
  | Hartree energy correction     :          -1.24901813 Ha         -33.98751251 eV
  | Entropy correction            :          -0.00000104 Ha          -0.00002826 eV
  | ---------------------------
  | Total energy                  :        -578.72109048 Ha      -15747.80211128 eV
  | Total energy, T -> 0          :        -578.72109152 Ha      -15747.80213954 eV  <-- do not rely on this value for anything but (periodic) metals
  | Electronic free energy        :        -578.72109256 Ha      -15747.80216779 eV

  Derived energy quantities:
  | Kinetic energy                :         580.54116018 Ha       15797.32872763 eV
  | Electrostatic energy          :       -1119.38945123 Ha      -30460.13676278 eV
  | Energy correction for multipole
  | error in Hartree potential    :           0.02002973 Ha           0.54503656 eV
  | Sum of eigenvalues per atom                           :       -4456.72368249 eV
  | Total energy (T->0) per atom                          :       -7873.90106977 eV  <-- do not rely on this value for anything but (periodic) metals
  | Electronic free energy per atom                       :       -7873.90108390 eV

  Self-consistency convergence accuracy:
  | Change of charge density      :  0.1193E+00
  | Change of sum of eigenvalues  :  0.3385E+02 eV
  | Change of total energy        :  0.2387E+00 eV

  End self-consistency iteration #     2       :  max(cpu_time)    wall_clock(cpu1)
  | Time for this iteration                    :        4.432 s           4.434 s
  | Charge density update                      :        1.623 s           1.624 s
  | Density mixing & preconditioning           :        0.049 s           0.049 s
  | Hartree multipole update                   :        0.001 s           0.001 s
  | Hartree multipole summation                :        0.547 s           0.547 s
  | Integration                                :        0.881 s           0.882 s
  | Solution of K.-S. eqns.                    :        1.330 s           1.330 s
  | Total energy evaluation                    :        0.001 s           0.001 s

  Partial memory accounting:
  | Current value for overall tracked memory usage on task 0  :          24.523 MB
  | Peak value for overall tracked memory usage on task 0     :          28.253 MB after allocating wave
  | Largest tracked array allocation on task 0 so far         :          23.639 MB  when allocating +KS_eigenvector_complex
  Note:  These values currently only include a subset of arrays which are explicitly tracked.
  The "true" memory usage will be greater.
------------------------------------------------------------

------------------------------------------------------------
          Begin self-consistency iteration #    3

  Date     :  20190513, Time     :  134520.936
------------------------------------------------------------
  Evaluating new KS density using the density matrix
  Evaluating density matrix
  Time summed over all CPUs for getting density from density matrix: real work        1.530 s, elapsed        1.530 s
  Integration grid: deviation in total charge (<rho> - N_e) =  -9.947598E-14
  Pulay mixing of updated and previous charge densities.

  Evaluating partitioned Hartree potential by multipole expansion.
  | Analytical far-field extrapolation by fixed multipoles:
  | Hartree multipole sum: apparent total charge =   0.104072E-01
  Summing up the Hartree potential.
  Time summed over all CPUs for potential: real work        0.616 s, elapsed        0.616 s
  | RMS charge density error from multipole expansion :   0.141424E-01
  | Average real-space part of the electrostatic potential :      0.47316948 eV

  Integrating Hamiltonian matrix: batch-based integration.
  Time summed over all CPUs for integration: real work        0.807 s, elapsed        0.807 s

  Updating Kohn-Sham eigenvalues, eigenvectors, occupation numbers, and Fermi level.
  Solving generalized eigenproblem

  Obtaining occupation numbers and chemical potential using ELSI.
  | Chemical potential (Fermi level):    -6.07193450eV
  What follows are estimated values for band gap, HOMO, LUMO, etc.
  | They are estimated on a discrete k-point grid and not necessarily exact.
  | For converged numbers, create a DOS and/or band structure plot on a denser k-grid.

  Highest occupied state (VBM) at     -6.09845476 eV (relative to internal zero)
  | Occupation number:      1.54680924
  | K-point:       1 at    0.000000    0.000000    0.000000 (in units of recip. lattice)

  Lowest unoccupied state (CBM) at    -6.03218133 eV (relative to internal zero)
  | Occupation number:      0.26084792
  | K-point:     105 at    0.000000    0.562500    0.562500 (in units of recip. lattice)

  ESTIMATED overall HOMO-LUMO gap:      0.06627342 eV between HOMO at k-point 1 and LUMO at k-point 105
  | This appears to be an indirect band gap.
  | Smallest direct gap :      2.60055444 eV for k_point 1 at    0.000000    0.562500    0.562500 (in units of recip. lattice)
  However, this system has fractional occupation numbers. Since we use a finite k-point grid,
  this material is metallic within the approximate finite broadening function (occupation_type)
  applied to determine the occupation numbers.

  Total energy components:
  | Sum of eigenvalues            :        -327.61408613 Ha       -8914.83286534 eV
  | XC energy correction          :         -39.86825575 Ha       -1084.87043649 eV
  | XC potential correction       :          52.67155167 Ha        1433.26584457 eV
  | Free-atom electrostatic energy:        -262.71365604 Ha       -7148.80230797 eV
  | Hartree energy correction     :          -1.19648744 Ha         -32.55807984 eV
  | Entropy correction            :          -0.00000078 Ha          -0.00002125 eV
  | ---------------------------
  | Total energy                  :        -578.72093370 Ha      -15747.79784507 eV
  | Total energy, T -> 0          :        -578.72093448 Ha      -15747.79786632 eV  <-- do not rely on this value for anything but (periodic) metals
  | Electronic free energy        :        -578.72093526 Ha      -15747.79788757 eV

  Derived energy quantities:
  | Kinetic energy                :         580.50952219 Ha       15796.46781424 eV
  | Electrostatic energy          :       -1119.36220014 Ha      -30459.39522281 eV
  | Energy correction for multipole
  | error in Hartree potential    :           0.01929289 Ha           0.52498626 eV
  | Sum of eigenvalues per atom                           :       -4457.41643267 eV
  | Total energy (T->0) per atom                          :       -7873.89893316 eV  <-- do not rely on this value for anything but (periodic) metals
  | Electronic free energy per atom                       :       -7873.89894378 eV

  Self-consistency convergence accuracy:
  | Change of charge density      :  0.2112E-01
  | Change of sum of eigenvalues  : -0.1386E+01 eV
  | Change of total energy        :  0.4266E-02 eV

  End self-consistency iteration #     3       :  max(cpu_time)    wall_clock(cpu1)
  | Time for this iteration                    :        4.503 s           4.504 s
  | Charge density update                      :        1.718 s           1.718 s
  | Density mixing & preconditioning           :        0.054 s           0.055 s
  | Hartree multipole update                   :        0.001 s           0.001 s
  | Hartree multipole summation                :        0.620 s           0.620 s
  | Integration                                :        0.807 s           0.807 s
  | Solution of K.-S. eqns.                    :        1.302 s           1.302 s
  | Total energy evaluation                    :        0.001 s           0.001 s

  Partial memory accounting:
  | Current value for overall tracked memory usage on task 0  :          24.524 MB
  | Peak value for overall tracked memory usage on task 0     :          28.253 MB after allocating wave
  | Largest tracked array allocation on task 0 so far         :          23.639 MB  when allocating +KS_eigenvector_complex
  Note:  These values currently only include a subset of arrays which are explicitly tracked.
  The "true" memory usage will be greater.
------------------------------------------------------------

------------------------------------------------------------
          Begin self-consistency iteration #    4

  Date     :  20190513, Time     :  134525.440
------------------------------------------------------------
  Evaluating new KS density using the density matrix
  Evaluating density matrix
  Time summed over all CPUs for getting density from density matrix: real work        1.313 s, elapsed        1.313 s
  Integration grid: deviation in total charge (<rho> - N_e) =  -5.684342E-14
  Pulay mixing of updated and previous charge densities.

  Evaluating partitioned Hartree potential by multipole expansion.
  | Analytical far-field extrapolation by fixed multipoles:
  | Hartree multipole sum: apparent total charge =   0.156649E-01
  Summing up the Hartree potential.
  Time summed over all CPUs for potential: real work        0.535 s, elapsed        0.535 s
  | RMS charge density error from multipole expansion :   0.163433E-01
  | Average real-space part of the electrostatic potential :      0.57415046 eV

  Integrating Hamiltonian matrix: batch-based integration.
  Time summed over all CPUs for integration: real work        0.798 s, elapsed        0.798 s

  Updating Kohn-Sham eigenvalues, eigenvectors, occupation numbers, and Fermi level.
  Solving generalized eigenproblem

  Obtaining occupation numbers and chemical potential using ELSI.
  | Chemical potential (Fermi level):    -5.98020847eV
  What follows are estimated values for band gap, HOMO, LUMO, etc.
  | They are estimated on a discrete k-point grid and not necessarily exact.
  | For converged numbers, create a DOS and/or band structure plot on a denser k-grid.

  Highest occupied state (VBM) at     -5.98768508 eV (relative to internal zero)
  | Occupation number:      1.16747983
  | K-point:    1288 at    0.437500    0.000000    0.437500 (in units of recip. lattice)

  Lowest unoccupied state (CBM) at    -5.96392381 eV (relative to internal zero)
  | Occupation number:      0.64508585
  | K-point:       1 at    0.000000    0.000000    0.000000 (in units of recip. lattice)

  ESTIMATED overall HOMO-LUMO gap:      0.02376127 eV between HOMO at k-point 1288 and LUMO at k-point 1
  | This appears to be an indirect band gap.
  | Smallest direct gap :      0.42403470 eV for k_point 105 at    0.000000    0.000000    0.000000 (in units of recip. lattice)
  However, this system has fractional occupation numbers. Since we use a finite k-point grid,
  this material is metallic within the approximate finite broadening function (occupation_type)
  applied to determine the occupation numbers.

  Total energy components:
  | Sum of eigenvalues            :        -327.01523305 Ha       -8898.53724395 eV
  | XC energy correction          :         -39.93398887 Ha       -1086.65912575 eV
  | XC potential correction       :          52.75870126 Ha        1435.63730563 eV
  | Free-atom electrostatic energy:        -262.71365604 Ha       -7148.80230797 eV
  | Hartree energy correction     :          -1.81849849 Ha         -49.48386158 eV
  | Entropy correction            :          -0.00000198 Ha          -0.00005392 eV
  | ---------------------------
  | Total energy                  :        -578.72267520 Ha      -15747.84523362 eV
  | Total energy, T -> 0          :        -578.72267718 Ha      -15747.84528754 eV  <-- do not rely on this value for anything but (periodic) metals
  | Electronic free energy        :        -578.72267916 Ha      -15747.84534146 eV

  Derived energy quantities:
  | Kinetic energy                :         581.37280162 Ha       15819.95884281 eV
  | Electrostatic energy          :       -1120.16148795 Ha      -30481.14495068 eV
  | Energy correction for multipole
  | error in Hartree potential    :           0.02337854 Ha           0.63616236 eV
  | Sum of eigenvalues per atom                           :       -4449.26862197 eV
  | Total energy (T->0) per atom                          :       -7873.92264377 eV  <-- do not rely on this value for anything but (periodic) metals
  | Electronic free energy per atom                       :       -7873.92267073 eV

  Self-consistency convergence accuracy:
  | Change of charge density      :  0.1830E-01
  | Change of sum of eigenvalues  :  0.1630E+02 eV
  | Change of total energy        : -0.4739E-01 eV

  End self-consistency iteration #     4       :  max(cpu_time)    wall_clock(cpu1)
  | Time for this iteration                    :        4.245 s           4.245 s
  | Charge density update                      :        1.489 s           1.489 s
  | Density mixing & preconditioning           :        0.048 s           0.048 s
  | Hartree multipole update                   :        0.001 s           0.001 s
  | Hartree multipole summation                :        0.539 s           0.539 s
  | Integration                                :        0.798 s           0.798 s
  | Solution of K.-S. eqns.                    :        1.369 s           1.370 s
  | Total energy evaluation                    :        0.000 s           0.000 s

  Partial memory accounting:
  | Current value for overall tracked memory usage on task 0  :          24.524 MB
  | Peak value for overall tracked memory usage on task 0     :          28.253 MB after allocating wave
  | Largest tracked array allocation on task 0 so far         :          23.639 MB  when allocating +KS_eigenvector_complex
  Note:  These values currently only include a subset of arrays which are explicitly tracked.
  The "true" memory usage will be greater.
------------------------------------------------------------

------------------------------------------------------------
          Begin self-consistency iteration #    5

  Date     :  20190513, Time     :  134529.685
------------------------------------------------------------
  Evaluating new KS density using the density matrix
  Evaluating density matrix
  Time summed over all CPUs for getting density from density matrix: real work        1.692 s, elapsed        1.692 s
  Integration grid: deviation in total charge (<rho> - N_e) =   0.000000E+00
  Pulay mixing of updated and previous charge densities.

  Evaluating partitioned Hartree potential by multipole expansion.
  | Analytical far-field extrapolation by fixed multipoles:
  | Hartree multipole sum: apparent total charge =   0.133285E-01
  Summing up the Hartree potential.
  Time summed over all CPUs for potential: real work        0.619 s, elapsed        0.619 s
  | RMS charge density error from multipole expansion :   0.163492E-01
  | Average real-space part of the electrostatic potential :      0.55675108 eV

  Integrating Hamiltonian matrix: batch-based integration.
  Time summed over all CPUs for integration: real work        1.026 s, elapsed        1.026 s

  Updating Kohn-Sham eigenvalues, eigenvectors, occupation numbers, and Fermi level.
  Solving generalized eigenproblem

  Obtaining occupation numbers and chemical potential using ELSI.
  | Chemical potential (Fermi level):    -5.99685828eV
  What follows are estimated values for band gap, HOMO, LUMO, etc.
  | They are estimated on a discrete k-point grid and not necessarily exact.
  | For converged numbers, create a DOS and/or band structure plot on a denser k-grid.

  Highest occupied state (VBM) at     -6.04498759 eV (relative to internal zero)
  | Occupation number:      1.82658186
  | K-point:    1988 at    0.875000    0.937500    0.937500 (in units of recip. lattice)

  Lowest unoccupied state (CBM) at    -5.99509168 eV (relative to internal zero)
  | Occupation number:      0.96014863
  | K-point:     105 at    0.000000    0.562500    0.562500 (in units of recip. lattice)

  ESTIMATED overall HOMO-LUMO gap:      0.04989591 eV between HOMO at k-point 1988 and LUMO at k-point 105
  | This appears to be an indirect band gap.
  | Smallest direct gap :      2.69703880 eV for k_point 11 at    0.000000    0.562500    0.562500 (in units of recip. lattice)
  However, this system has fractional occupation numbers. Since we use a finite k-point grid,
  this material is metallic within the approximate finite broadening function (occupation_type)
  applied to determine the occupation numbers.

  Total energy components:
  | Sum of eigenvalues            :        -327.20361689 Ha       -8903.66342906 eV
  | XC energy correction          :         -39.91367602 Ha       -1086.10638495 eV
  | XC potential correction       :          52.73174368 Ha        1434.90375273 eV
  | Free-atom electrostatic energy:        -262.71365604 Ha       -7148.80230797 eV
  | Hartree energy correction     :          -1.62282123 Ha         -44.15921255 eV
  | Entropy correction            :          -0.00000180 Ha          -0.00004898 eV
  | ---------------------------
  | Total energy                  :        -578.72202650 Ha      -15747.82758179 eV
  | Total energy, T -> 0          :        -578.72202830 Ha      -15747.82763078 eV  <-- do not rely on this value for anything but (periodic) metals
  | Electronic free energy        :        -578.72203010 Ha      -15747.82767976 eV

  Derived energy quantities:
  | Kinetic energy                :         581.06910112 Ha       15811.69473151 eV
  | Electrostatic energy          :       -1119.87745160 Ha      -30473.41592836 eV
  | Energy correction for multipole
  | error in Hartree potential    :           0.02302440 Ha           0.62652587 eV
  | Sum of eigenvalues per atom                           :       -4451.83171453 eV
  | Total energy (T->0) per atom                          :       -7873.91381539 eV  <-- do not rely on this value for anything but (periodic) metals
  | Electronic free energy per atom                       :       -7873.91383988 eV

  Self-consistency convergence accuracy:
  | Change of charge density      :  0.6049E-01
  | Change of sum of eigenvalues  : -0.5126E+01 eV
  | Change of total energy        :  0.1765E-01 eV

  End self-consistency iteration #     5       :  max(cpu_time)    wall_clock(cpu1)
  | Time for this iteration                    :        4.915 s           4.919 s
  | Charge density update                      :        1.894 s           1.896 s
  | Density mixing & preconditioning           :        0.049 s           0.049 s
  | Hartree multipole update                   :        0.001 s           0.001 s
  | Hartree multipole summation                :        0.622 s           0.622 s
  | Integration                                :        1.025 s           1.026 s
  | Solution of K.-S. eqns.                    :        1.324 s           1.324 s
  | Total energy evaluation                    :        0.001 s           0.001 s

  Partial memory accounting:
  | Current value for overall tracked memory usage on task 0  :          24.524 MB
  | Peak value for overall tracked memory usage on task 0     :          28.253 MB after allocating wave
  | Largest tracked array allocation on task 0 so far         :          23.639 MB  when allocating +KS_eigenvector_complex
  Note:  These values currently only include a subset of arrays which are explicitly tracked.
  The "true" memory usage will be greater.
------------------------------------------------------------

------------------------------------------------------------
          Begin self-consistency iteration #    6

  Date     :  20190513, Time     :  134534.604
------------------------------------------------------------
  Evaluating new KS density using the density matrix
  Evaluating density matrix
  Time summed over all CPUs for getting density from density matrix: real work        1.322 s, elapsed        1.322 s
  Integration grid: deviation in total charge (<rho> - N_e) =  -1.421085E-14
  Pulay mixing of updated and previous charge densities.

  Evaluating partitioned Hartree potential by multipole expansion.
  | Analytical far-field extrapolation by fixed multipoles:
  | Hartree multipole sum: apparent total charge =   0.848796E-02
  Summing up the Hartree potential.
  Time summed over all CPUs for potential: real work        0.540 s, elapsed        0.540 s
  | RMS charge density error from multipole expansion :   0.154285E-01
  | Average real-space part of the electrostatic potential :      0.47871545 eV

  Integrating Hamiltonian matrix: batch-based integration.
  Time summed over all CPUs for integration: real work        0.790 s, elapsed        0.790 s

  Updating Kohn-Sham eigenvalues, eigenvectors, occupation numbers, and Fermi level.
  Solving generalized eigenproblem

  Obtaining occupation numbers and chemical potential using ELSI.
  | Chemical potential (Fermi level):    -6.07198174eV
  What follows are estimated values for band gap, HOMO, LUMO, etc.
  | They are estimated on a discrete k-point grid and not necessarily exact.
  | For converged numbers, create a DOS and/or band structure plot on a denser k-grid.

  Highest occupied state (VBM) at     -6.10410075 eV (relative to internal zero)
  | Occupation number:      1.63636623
  | K-point:       1 at    0.000000    0.000000    0.000000 (in units of recip. lattice)

  Lowest unoccupied state (CBM) at    -6.02700854 eV (relative to internal zero)
  | Occupation number:      0.20336102
  | K-point:     105 at    0.000000    0.562500    0.562500 (in units of recip. lattice)

  ESTIMATED overall HOMO-LUMO gap:      0.07709221 eV between HOMO at k-point 1 and LUMO at k-point 105
  | This appears to be an indirect band gap.
  | Smallest direct gap :      2.60011565 eV for k_point 1 at    0.000000    0.562500    0.562500 (in units of recip. lattice)
  However, this system has fractional occupation numbers. Since we use a finite k-point grid,
  this material is metallic within the approximate finite broadening function (occupation_type)
  applied to determine the occupation numbers.

  Total energy components:
  | Sum of eigenvalues            :        -327.64568191 Ha       -8915.69263035 eV
  | XC energy correction          :         -39.87154329 Ha       -1084.95989510 eV
  | XC potential correction       :          52.67590763 Ha        1433.38437628 eV
  | Free-atom electrostatic energy:        -262.71365604 Ha       -7148.80230797 eV
  | Hartree energy correction     :          -1.16574335 Ha         -31.72149051 eV
  | Entropy correction            :          -0.00000065 Ha          -0.00001768 eV
  | ---------------------------
  | Total energy                  :        -578.72071697 Ha      -15747.79194766 eV
  | Total energy, T -> 0          :        -578.72071762 Ha      -15747.79196533 eV  <-- do not rely on this value for anything but (periodic) metals
  | Electronic free energy        :        -578.72071827 Ha      -15747.79198301 eV

  Derived energy quantities:
  | Kinetic energy                :         580.53038810 Ha       15797.03560463 eV
  | Electrostatic energy          :       -1119.37956179 Ha      -30459.86765718 eV
  | Energy correction for multipole
  | error in Hartree potential    :           0.02125759 Ha           0.57844843 eV
  | Sum of eigenvalues per atom                           :       -4457.84631518 eV
  | Total energy (T->0) per atom                          :       -7873.89598267 eV  <-- do not rely on this value for anything but (periodic) metals
  | Electronic free energy per atom                       :       -7873.89599150 eV

  Self-consistency convergence accuracy:
  | Change of charge density      :  0.4672E-01
  | Change of sum of eigenvalues  : -0.1203E+02 eV
  | Change of total energy        :  0.3563E-01 eV

  End self-consistency iteration #     6       :  max(cpu_time)    wall_clock(cpu1)
  | Time for this iteration                    :        4.210 s           4.210 s
  | Charge density update                      :        1.506 s           1.506 s
  | Density mixing & preconditioning           :        0.049 s           0.050 s
  | Hartree multipole update                   :        0.001 s           0.000 s
  | Hartree multipole summation                :        0.544 s           0.545 s
  | Integration                                :        0.790 s           0.790 s
  | Solution of K.-S. eqns.                    :        1.318 s           1.318 s
  | Total energy evaluation                    :        0.001 s           0.001 s

  Partial memory accounting:
  | Current value for overall tracked memory usage on task 0  :          24.525 MB
  | Peak value for overall tracked memory usage on task 0     :          28.253 MB after allocating wave
  | Largest tracked array allocation on task 0 so far         :          23.639 MB  when allocating +KS_eigenvector_complex
  Note:  These values currently only include a subset of arrays which are explicitly tracked.
  The "true" memory usage will be greater.
------------------------------------------------------------

------------------------------------------------------------
          Begin self-consistency iteration #    7

  Date     :  20190513, Time     :  134538.814
------------------------------------------------------------
  Evaluating new KS density using the density matrix
  Evaluating density matrix
  Time summed over all CPUs for getting density from density matrix: real work        1.313 s, elapsed        1.313 s
  Integration grid: deviation in total charge (<rho> - N_e) =  -1.421085E-14
  Pulay mixing of updated and previous charge densities.

  Evaluating partitioned Hartree potential by multipole expansion.
  | Analytical far-field extrapolation by fixed multipoles:
  | Hartree multipole sum: apparent total charge =   0.886281E-02
  Summing up the Hartree potential.
  Time summed over all CPUs for potential: real work        0.540 s, elapsed        0.540 s
  | RMS charge density error from multipole expansion :   0.153840E-01
  | Average real-space part of the electrostatic potential :      0.48035954 eV

  Integrating Hamiltonian matrix: batch-based integration.
  Time summed over all CPUs for integration: real work        0.837 s, elapsed        0.837 s

  Updating Kohn-Sham eigenvalues, eigenvectors, occupation numbers, and Fermi level.
  Solving generalized eigenproblem

  Obtaining occupation numbers and chemical potential using ELSI.
  | Chemical potential (Fermi level):    -6.07057278eV
  What follows are estimated values for band gap, HOMO, LUMO, etc.
  | They are estimated on a discrete k-point grid and not necessarily exact.
  | For converged numbers, create a DOS and/or band structure plot on a denser k-grid.

  Highest occupied state (VBM) at     -6.10186365 eV (relative to internal zero)
  | Occupation number:      1.62386461
  | K-point:       1 at    0.000000    0.000000    0.000000 (in units of recip. lattice)

  Lowest unoccupied state (CBM) at    -6.02636510 eV (relative to internal zero)
  | Occupation number:      0.21116003
  | K-point:     105 at    0.000000    0.562500    0.562500 (in units of recip. lattice)

  ESTIMATED overall HOMO-LUMO gap:      0.07549855 eV between HOMO at k-point 1 and LUMO at k-point 105
  | This appears to be an indirect band gap.
  | Smallest direct gap :      2.59946312 eV for k_point 1 at    0.000000    0.562500    0.562500 (in units of recip. lattice)
  However, this system has fractional occupation numbers. Since we use a finite k-point grid,
  this material is metallic within the approximate finite broadening function (occupation_type)
  applied to determine the occupation numbers.

  Total energy components:
  | Sum of eigenvalues            :        -327.61938947 Ha       -8914.97717665 eV
  | XC energy correction          :         -39.87428557 Ha       -1085.03451643 eV
  | XC potential correction       :          52.67954831 Ha        1433.48344447 eV
  | Free-atom electrostatic energy:        -262.71365604 Ha       -7148.80230797 eV
  | Hartree energy correction     :          -1.19297194 Ha         -32.46241812 eV
  | Entropy correction            :          -0.00000067 Ha          -0.00001818 eV
  | ---------------------------
  | Total energy                  :        -578.72075472 Ha      -15747.79297470 eV
  | Total energy, T -> 0          :        -578.72075538 Ha      -15747.79299288 eV  <-- do not rely on this value for anything but (periodic) metals
  | Electronic free energy        :        -578.72075605 Ha      -15747.79301106 eV

  Derived energy quantities:
  | Kinetic energy                :         580.57279700 Ha       15798.18960945 eV
  | Electrostatic energy          :       -1119.41926614 Ha      -30460.94806772 eV
  | Energy correction for multipole
  | error in Hartree potential    :           0.02124789 Ha           0.57818463 eV
  | Sum of eigenvalues per atom                           :       -4457.48858833 eV
  | Total energy (T->0) per atom                          :       -7873.89649644 eV  <-- do not rely on this value for anything but (periodic) metals
  | Electronic free energy per atom                       :       -7873.89650553 eV

  Self-consistency convergence accuracy:
  | Change of charge density      :  0.1739E-01
  | Change of sum of eigenvalues  :  0.7155E+00 eV
  | Change of total energy        : -0.1027E-02 eV

  End self-consistency iteration #     7       :  max(cpu_time)    wall_clock(cpu1)
  | Time for this iteration                    :        4.263 s           4.263 s
  | Charge density update                      :        1.536 s           1.536 s
  | Density mixing & preconditioning           :        0.049 s           0.049 s
  | Hartree multipole update                   :        0.001 s           0.001 s
  | Hartree multipole summation                :        0.543 s           0.544 s
  | Integration                                :        0.837 s           0.837 s
  | Solution of K.-S. eqns.                    :        1.296 s           1.295 s
  | Total energy evaluation                    :        0.000 s           0.001 s

  Partial memory accounting:
  | Current value for overall tracked memory usage on task 0  :          24.525 MB
  | Peak value for overall tracked memory usage on task 0     :          28.253 MB after allocating wave
  | Largest tracked array allocation on task 0 so far         :          23.639 MB  when allocating +KS_eigenvector_complex
  Note:  These values currently only include a subset of arrays which are explicitly tracked.
  The "true" memory usage will be greater.
------------------------------------------------------------

------------------------------------------------------------
          Begin self-consistency iteration #    8

  Date     :  20190513, Time     :  134543.077
------------------------------------------------------------
  Evaluating new KS density using the density matrix
  Evaluating density matrix
  Time summed over all CPUs for getting density from density matrix: real work        1.312 s, elapsed        1.312 s
  Integration grid: deviation in total charge (<rho> - N_e) =  -1.634248E-13
  Pulay mixing of updated and previous charge densities.

  Evaluating partitioned Hartree potential by multipole expansion.
  | Analytical far-field extrapolation by fixed multipoles:
  | Hartree multipole sum: apparent total charge =   0.614612E-02
  Summing up the Hartree potential.
  Time summed over all CPUs for potential: real work        0.537 s, elapsed        0.537 s
  | RMS charge density error from multipole expansion :   0.149315E-01
  | Average real-space part of the electrostatic potential :      0.43907310 eV

  Integrating Hamiltonian matrix: batch-based integration.
  Time summed over all CPUs for integration: real work        0.850 s, elapsed        0.850 s

  Updating Kohn-Sham eigenvalues, eigenvectors, occupation numbers, and Fermi level.
  Solving generalized eigenproblem

  Obtaining occupation numbers and chemical potential using ELSI.
  | Chemical potential (Fermi level):    -6.10841265eV
  What follows are estimated values for band gap, HOMO, LUMO, etc.
  | They are estimated on a discrete k-point grid and not necessarily exact.
  | For converged numbers, create a DOS and/or band structure plot on a denser k-grid.

  Highest occupied state (VBM) at     -6.16316785 eV (relative to internal zero)
  | Occupation number:      1.87854875
  | K-point:       1 at    0.000000    0.000000    0.000000 (in units of recip. lattice)

  Lowest unoccupied state (CBM) at    -6.04280713 eV (relative to internal zero)
  | Occupation number:      0.06350996
  | K-point:     105 at    0.000000    0.562500    0.562500 (in units of recip. lattice)

  ESTIMATED overall HOMO-LUMO gap:      0.12036072 eV between HOMO at k-point 1 and LUMO at k-point 105
  | This appears to be an indirect band gap.
  | Smallest direct gap :      2.62782242 eV for k_point 1 at    0.000000    0.562500    0.562500 (in units of recip. lattice)
  However, this system has fractional occupation numbers. Since we use a finite k-point grid,
  this material is metallic within the approximate finite broadening function (occupation_type)
  applied to determine the occupation numbers.

  Total energy components:
  | Sum of eigenvalues            :        -327.85676094 Ha       -8921.43638300 eV
  | XC energy correction          :         -39.85237544 Ha       -1084.43831144 eV
  | XC potential correction       :          52.65051328 Ha        1432.69336103 eV
  | Free-atom electrostatic energy:        -262.71365604 Ha       -7148.80230797 eV
  | Hartree energy correction     :          -0.94815299 Ha         -25.80055562 eV
  | Entropy correction            :          -0.00000026 Ha          -0.00000706 eV
  | ---------------------------
  | Total energy                  :        -578.72043214 Ha      -15747.78419699 eV
  | Total energy, T -> 0          :        -578.72043240 Ha      -15747.78420405 eV  <-- do not rely on this value for anything but (periodic) metals
  | Electronic free energy        :        -578.72043266 Ha      -15747.78421112 eV

  Derived energy quantities:
  | Kinetic energy                :         580.30332857 Ha       15790.85700021 eV
  | Electrostatic energy          :       -1119.17138526 Ha      -30454.20288577 eV
  | Energy correction for multipole
  | error in Hartree potential    :           0.02038147 Ha           0.55460812 eV
  | Sum of eigenvalues per atom                           :       -4460.71819150 eV
  | Total energy (T->0) per atom                          :       -7873.89210203 eV  <-- do not rely on this value for anything but (periodic) metals
  | Electronic free energy per atom                       :       -7873.89210556 eV

  Self-consistency convergence accuracy:
  | Change of charge density      :  0.1914E-01
  | Change of sum of eigenvalues  : -0.6459E+01 eV
  | Change of total energy        :  0.8778E-02 eV

  End self-consistency iteration #     8       :  max(cpu_time)    wall_clock(cpu1)
  | Time for this iteration                    :        4.506 s           4.508 s
  | Charge density update                      :        1.491 s           1.490 s
  | Density mixing & preconditioning           :        0.048 s           0.049 s
  | Hartree multipole update                   :        0.001 s           0.001 s
  | Hartree multipole summation                :        0.540 s           0.540 s
  | Integration                                :        0.850 s           0.850 s
  | Solution of K.-S. eqns.                    :        1.575 s           1.577 s
  | Total energy evaluation                    :        0.001 s           0.001 s

  Partial memory accounting:
  | Current value for overall tracked memory usage on task 0  :          24.525 MB
  | Peak value for overall tracked memory usage on task 0     :          28.253 MB after allocating wave
  | Largest tracked array allocation on task 0 so far         :          23.639 MB  when allocating +KS_eigenvector_complex
  Note:  These values currently only include a subset of arrays which are explicitly tracked.
  The "true" memory usage will be greater.
------------------------------------------------------------

------------------------------------------------------------
          Begin self-consistency iteration #    9

  Date     :  20190513, Time     :  134547.585
------------------------------------------------------------
  Evaluating new KS density using the density matrix
  Evaluating density matrix
  Time summed over all CPUs for getting density from density matrix: real work        1.325 s, elapsed        1.325 s
  Integration grid: deviation in total charge (<rho> - N_e) =  -6.750156E-14
  Pulay mixing of updated and previous charge densities.

  Evaluating partitioned Hartree potential by multipole expansion.
  | Analytical far-field extrapolation by fixed multipoles:
  | Hartree multipole sum: apparent total charge =   0.617437E-02
  Summing up the Hartree potential.
  Time summed over all CPUs for potential: real work        0.533 s, elapsed        0.533 s
  | RMS charge density error from multipole expansion :   0.149312E-01
  | Average real-space part of the electrostatic potential :      0.43958563 eV

  Integrating Hamiltonian matrix: batch-based integration.
  Time summed over all CPUs for integration: real work        0.772 s, elapsed        0.772 s

  Updating Kohn-Sham eigenvalues, eigenvectors, occupation numbers, and Fermi level.
  Solving generalized eigenproblem

  Obtaining occupation numbers and chemical potential using ELSI.
  | Chemical potential (Fermi level):    -6.10801123eV
  What follows are estimated values for band gap, HOMO, LUMO, etc.
  | They are estimated on a discrete k-point grid and not necessarily exact.
  | For converged numbers, create a DOS and/or band structure plot on a denser k-grid.

  Highest occupied state (VBM) at     -6.16250646 eV (relative to internal zero)
  | Occupation number:      1.87677025
  | K-point:       1 at    0.000000    0.000000    0.000000 (in units of recip. lattice)

  Lowest unoccupied state (CBM) at    -6.04264270 eV (relative to internal zero)
  | Occupation number:      0.06447206
  | K-point:     105 at    0.000000    0.562500    0.562500 (in units of recip. lattice)

  ESTIMATED overall HOMO-LUMO gap:      0.11986376 eV between HOMO at k-point 1 and LUMO at k-point 105
  | This appears to be an indirect band gap.
  | Smallest direct gap :      2.62753670 eV for k_point 1 at    0.000000    0.562500    0.562500 (in units of recip. lattice)
  However, this system has fractional occupation numbers. Since we use a finite k-point grid,
  this material is metallic within the approximate finite broadening function (occupation_type)
  applied to determine the occupation numbers.

  Total energy components:
  | Sum of eigenvalues            :        -327.85311110 Ha       -8921.33706571 eV
[...]
  | Largest tracked array allocation on task 0 so far         :          23.639 MB  when allocating +KS_eigenvector_complex
  Note:  These values currently only include a subset of arrays which are explicitly tracked.
  The "true" memory usage will be greater.
------------------------------------------------------------

------------------------------------------------------------
          Begin self-consistency iteration #   12

  Date     :  20190513, Time     :  134600.169
------------------------------------------------------------
  Evaluating new KS density using the density matrix
  Evaluating density matrix
  Time summed over all CPUs for getting density from density matrix: real work        1.797 s, elapsed        1.797 s
  Integration grid: deviation in total charge (<rho> - N_e) =  -9.237056E-14
  Pulay mixing of updated and previous charge densities.

  Evaluating partitioned Hartree potential by multipole expansion.
  | Analytical far-field extrapolation by fixed multipoles:
  | Hartree multipole sum: apparent total charge =   0.692081E-02
  Summing up the Hartree potential.
  Time summed over all CPUs for potential: real work        0.661 s, elapsed        0.661 s
  | RMS charge density error from multipole expansion :   0.148248E-01
  | Average real-space part of the electrostatic potential :      0.42292379 eV

  Integrating Hamiltonian matrix: batch-based integration.
  Time summed over all CPUs for integration: real work        0.939 s, elapsed        0.939 s

  Updating Kohn-Sham eigenvalues, eigenvectors, occupation numbers, and Fermi level.
  Solving generalized eigenproblem

  Obtaining occupation numbers and chemical potential using ELSI.
  | Chemical potential (Fermi level):    -6.11767064eV
  What follows are estimated values for band gap, HOMO, LUMO, etc.
  | They are estimated on a discrete k-point grid and not necessarily exact.
  | For converged numbers, create a DOS and/or band structure plot on a denser k-grid.

  Highest occupied state (VBM) at     -6.17860974 eV (relative to internal zero)
  | Occupation number:      1.91522317
  | K-point:       1 at    0.000000    0.000000    0.000000 (in units of recip. lattice)

  Lowest unoccupied state (CBM) at    -6.04642015 eV (relative to internal zero)
  | Occupation number:      0.04387657
  | K-point:     105 at    0.000000    0.562500    0.562500 (in units of recip. lattice)

  ESTIMATED overall HOMO-LUMO gap:      0.13218959 eV between HOMO at k-point 1 and LUMO at k-point 105
  | This appears to be an indirect band gap.
  | Smallest direct gap :      2.63525906 eV for k_point 1 at    0.000000    0.562500    0.562500 (in units of recip. lattice)
  However, this system has fractional occupation numbers. Since we use a finite k-point grid,
  this material is metallic within the approximate finite broadening function (occupation_type)
  applied to determine the occupation numbers.

  Total energy components:
  | Sum of eigenvalues            :        -327.92361928 Ha       -8923.25569080 eV
  | XC energy correction          :         -39.84533145 Ha       -1084.24663454 eV
  | XC potential correction       :          52.64118725 Ha        1432.43958669 eV
  | Free-atom electrostatic energy:        -262.71365604 Ha       -7148.80230797 eV
  | Hartree energy correction     :          -0.87897957 Ha         -23.91825101 eV
  | Entropy correction            :          -0.00000019 Ha          -0.00000519 eV
  | ---------------------------
  | Total energy                  :        -578.72039909 Ha      -15747.78329763 eV
  | Total energy, T -> 0          :        -578.72039928 Ha      -15747.78330282 eV  <-- do not rely on this value for anything but (periodic) metals
  | Electronic free energy        :        -578.72039947 Ha      -15747.78330801 eV

  Derived energy quantities:
  | Kinetic energy                :         580.21879119 Ha       15788.55662125 eV
  | Electrostatic energy          :       -1119.09385883 Ha      -30452.09328434 eV
  | Energy correction for multipole
  | error in Hartree potential    :           0.02014794 Ha           0.54825342 eV
  | Sum of eigenvalues per atom                           :       -4461.62784540 eV
  | Total energy (T->0) per atom                          :       -7873.89165141 eV  <-- do not rely on this value for anything but (periodic) metals
  | Electronic free energy per atom                       :       -7873.89165401 eV

  Self-consistency convergence accuracy:
  | Change of charge density      :  0.4850E-04
  | Change of sum of eigenvalues  : -0.1291E-01 eV
  | Change of total energy        :  0.1265E-04 eV

  End self-consistency iteration #    12       :  max(cpu_time)    wall_clock(cpu1)
  | Time for this iteration                    :        4.978 s           4.978 s
  | Charge density update                      :        1.975 s           1.975 s
  | Density mixing & preconditioning           :        0.062 s           0.062 s
  | Hartree multipole update                   :        0.001 s           0.001 s
  | Hartree multipole summation                :        0.666 s           0.666 s
  | Integration                                :        0.939 s           0.939 s
  | Solution of K.-S. eqns.                    :        1.335 s           1.335 s
  | Total energy evaluation                    :        0.000 s           0.000 s

  Partial memory accounting:
  | Current value for overall tracked memory usage on task 0  :          24.525 MB
  | Peak value for overall tracked memory usage on task 0     :          28.253 MB after allocating wave
  | Largest tracked array allocation on task 0 so far         :          23.639 MB  when allocating +KS_eigenvector_complex
  Note:  These values currently only include a subset of arrays which are explicitly tracked.
  The "true" memory usage will be greater.
------------------------------------------------------------

------------------------------------------------------------
          Begin self-consistency iteration #   13

  Date     :  20190513, Time     :  134605.148
------------------------------------------------------------
  Evaluating new KS density using the density matrix
  Evaluating density matrix
  Time summed over all CPUs for getting density from density matrix: real work        1.364 s, elapsed        1.364 s
  Integration grid: deviation in total charge (<rho> - N_e) =  -9.947598E-14
  Pulay mixing of updated and previous charge densities.

  Evaluating partitioned Hartree potential by multipole expansion.
  | Analytical far-field extrapolation by fixed multipoles:
  | Hartree multipole sum: apparent total charge =   0.692082E-02
  Summing up the Hartree potential.
  Time summed over all CPUs for potential: real work        0.537 s, elapsed        0.537 s
  | RMS charge density error from multipole expansion :   0.148249E-01
  | Average real-space part of the electrostatic potential :      0.42292294 eV

  Integrating Hamiltonian matrix: batch-based integration.
  Time summed over all CPUs for integration: real work        0.827 s, elapsed        0.827 s

  Updating Kohn-Sham eigenvalues, eigenvectors, occupation numbers, and Fermi level.
  Solving generalized eigenproblem

  Obtaining occupation numbers and chemical potential using ELSI.
  | Chemical potential (Fermi level):    -6.11767036eV
  What follows are estimated values for band gap, HOMO, LUMO, etc.
  | They are estimated on a discrete k-point grid and not necessarily exact.
  | For converged numbers, create a DOS and/or band structure plot on a denser k-grid.

  Highest occupied state (VBM) at     -6.17860928 eV (relative to internal zero)
  | Occupation number:      1.91522225
  | K-point:       1 at    0.000000    0.000000    0.000000 (in units of recip. lattice)

  Lowest unoccupied state (CBM) at    -6.04642004 eV (relative to internal zero)
  | Occupation number:      0.04387706
  | K-point:     105 at    0.000000    0.562500    0.562500 (in units of recip. lattice)

  ESTIMATED overall HOMO-LUMO gap:      0.13218924 eV between HOMO at k-point 1 and LUMO at k-point 105
  | This appears to be an indirect band gap.
  | Smallest direct gap :      2.63525855 eV for k_point 1 at    0.000000    0.562500    0.562500 (in units of recip. lattice)
  However, this system has fractional occupation numbers. Since we use a finite k-point grid,
  this material is metallic within the approximate finite broadening function (occupation_type)
  applied to determine the occupation numbers.

  Total energy components:
  | Sum of eigenvalues            :        -327.92363345 Ha       -8923.25607638 eV
  | XC energy correction          :         -39.84532979 Ha       -1084.24658954 eV
  | XC potential correction       :          52.64118505 Ha        1432.43952696 eV
  | Free-atom electrostatic energy:        -262.71365604 Ha       -7148.80230797 eV
  | Hartree energy correction     :          -0.87896485 Ha         -23.91785056 eV
  | Entropy correction            :          -0.00000019 Ha          -0.00000519 eV
  | ---------------------------
  | Total energy                  :        -578.72039908 Ha      -15747.78329749 eV
  | Total energy, T -> 0          :        -578.72039928 Ha      -15747.78330268 eV  <-- do not rely on this value for anything but (periodic) metals
  | Electronic free energy        :        -578.72039947 Ha      -15747.78330788 eV

  Derived energy quantities:
  | Kinetic energy                :         580.21876571 Ha       15788.55592798 eV
  | Electrostatic energy          :       -1119.09383501 Ha      -30452.09263593 eV
  | Energy correction for multipole
  | error in Hartree potential    :           0.02014798 Ha           0.54825434 eV
  | Sum of eigenvalues per atom                           :       -4461.62803819 eV
  | Total energy (T->0) per atom                          :       -7873.89165134 eV  <-- do not rely on this value for anything but (periodic) metals
  | Electronic free energy per atom                       :       -7873.89165394 eV

  Self-consistency convergence accuracy:
  | Change of charge density      :  0.9407E-06
  | Change of sum of eigenvalues  : -0.3856E-03 eV
  | Change of total energy        :  0.1377E-06 eV

  Preliminary charge convergence reached. Turning off preconditioner.

  Writing Kohn-Sham eigenvalues.
  K-point:       1 at    0.000000    0.000000    0.000000 (in units of recip. lattice)

  State    Occupation    Eigenvalue [Ha]    Eigenvalue [eV]
      1       2.00000         -65.480508        -1781.81529
      2       2.00000         -65.480508        -1781.81529
      3       2.00000          -5.098263         -138.73080
      4       2.00000          -5.097529         -138.71081
      5       2.00000          -3.511158          -95.54346
      6       2.00000          -3.511158          -95.54346
      7       2.00000          -3.511158          -95.54346
      8       2.00000          -3.509827          -95.50726
      9       2.00000          -3.509827          -95.50726
     10       2.00000          -3.509827          -95.50726
     11       2.00000          -0.718235          -19.54417
     12       1.91522          -0.227060           -6.17861
     13       1.91522          -0.227060           -6.17861
     14       1.91522          -0.227060           -6.17861
     15       0.00000          -0.130216           -3.54335
     16       0.00000          -0.130216           -3.54335
     17       0.00000          -0.130216           -3.54335
     18       0.00000          -0.014668           -0.39914
     19       0.00000           0.063233            1.72067
     20       0.00000           0.063233            1.72067

  What follows are estimated values for band gap, HOMO, LUMO, etc.
  | They are estimated on a discrete k-point grid and not necessarily exact.
  | For converged numbers, create a DOS and/or band structure plot on a denser k-grid.

  Highest occupied state (VBM) at     -6.17860928 eV (relative to internal zero)
  | Occupation number:      1.91522225
  | K-point:       1 at    0.000000    0.000000    0.000000 (in units of recip. lattice)

  Lowest unoccupied state (CBM) at    -6.04642004 eV (relative to internal zero)
  | Occupation number:      0.04387706
  | K-point:     105 at    0.000000    0.562500    0.562500 (in units of recip. lattice)

  ESTIMATED overall HOMO-LUMO gap:      0.13218924 eV between HOMO at k-point 1 and LUMO at k-point 105
  | This appears to be an indirect band gap.
  | Smallest direct gap :      2.63525855 eV for k_point 1 at    0.000000    0.562500    0.562500 (in units of recip. lattice)
  However, this system has fractional occupation numbers. Since we use a finite k-point grid,
  this material is metallic within the approximate finite broadening function (occupation_type)
  applied to determine the occupation numbers.

  Self-consistency cycle converged.

  End self-consistency iteration #    13       :  max(cpu_time)    wall_clock(cpu1)
  | Time for this iteration                    :        4.276 s           4.276 s
  | Charge density update                      :        1.558 s           1.557 s
  | Density mixing                             :        0.052 s           0.052 s
  | Hartree multipole update                   :        0.001 s           0.001 s
  | Hartree multipole summation                :        0.541 s           0.540 s
  | Integration                                :        0.827 s           0.827 s
  | Solution of K.-S. eqns.                    :        1.298 s           1.298 s
  | Total energy evaluation                    :        0.000 s           0.001 s

  Partial memory accounting:
  | Current value for overall tracked memory usage on task 0  :          24.525 MB
  | Peak value for overall tracked memory usage on task 0     :          28.253 MB after allocating wave
  | Largest tracked array allocation on task 0 so far         :          23.639 MB  when allocating +KS_eigenvector_complex
  Note:  These values currently only include a subset of arrays which are explicitly tracked.
  The "true" memory usage will be greater.
------------------------------------------------------------

  Energy and forces in a compact form:
  | Total energy uncorrected      :         -0.157477832974913E+05 eV
  | Total energy corrected        :         -0.157477833026838E+05 eV  <-- do not rely on this value for anything but (periodic) metals
  | Electronic free energy        :         -0.157477833078763E+05 eV

  ------------------------------------ 
  Start decomposition of the XC Energy 
  ------------------------------------ 
  X and C from original XC functional choice 
  Hartree-Fock Energy :          0.000000000 Ha              0.000000000 eV
  X Energy            :        -37.690844706 Ha          -1025.620067434 eV
  C Energy            :         -2.154485087 Ha            -58.626522107 eV
  Total XC Energy     :        -39.845329794 Ha          -1084.246589541 eV
  ------------------------------------ 
  LDA X and C from self-consistent density 
  X Energy LDA        :        -37.690844706 Ha          -1025.620067434 eV
  C Energy LDA        :         -2.154485087 Ha            -58.626522107 eV
  ------------------------------------ 
  End decomposition of the XC Energy 
  ------------------------------------ 

------------------------------------------------------------

------------------------------------------------------------------------------
  Final output of selected total energy values:

  The following output summarizes some interesting total energy values
  at the end of a run (AFTER all relaxation, molecular dynamics, etc.).

  | Total energy of the DFT / Hartree-Fock s.c.f. calculation      :         -15747.783297491 eV
  | Final zero-broadening corrected energy (caution - metals only) :         -15747.783302684 eV
  | For reference only, the value of 1 Hartree used in FHI-aims is :             27.211384500 eV

  Before relying on these values, please be sure to understand exactly which
  total energy value is referred to by a given number. Different objects may
  all carry the same name 'total energy'. Definitions:

  Total energy of the DFT / Hartree-Fock s.c.f. calculation:
  | Note that this energy does not include ANY quantities calculated after the
  | s.c.f. cycle, in particular not ANY RPA, MP2, etc. many-body perturbation terms.

  Final zero-broadening corrected energy:
  | For metallic systems only, a broadening of the occupation numbers at the Fermi
  | level can be extrapolated back to zero broadening by an electron-gas inspired
  | formula. For all systems that are not real metals, this value can be
  | meaningless and should be avoided.

------------------------------------------------------------------------------
  Methods described in the following list of references were used in this FHI-aims run.
  If you publish the results, please make sure to cite these reference if they apply.
  FHI-aims is an academic code, and for our developers (often, Ph.D. students
  and postdocs), scientific credit in the community is essential.
  Thank you for helping us!

  For any use of FHI-aims, please cite:

    Volker Blum, Ralf Gehrke, Felix Hanke, Paula Havu, Ville Havu,
    Xinguo Ren, Karsten Reuter, and Matthias Scheffler
    'Ab initio molecular simulations with numeric atom-centered orbitals'
    Computer Physics Communications 180, 2175-2196 (2009)
    http://dx.doi.org/10.1016/j.cpc.2009.06.022


  For the real-space grid partitioning and parallelization used in this calculation, please cite:

    Ville Havu, Volker Blum, Paula Havu, and Matthias Scheffler,
    'Efficient O(N) integration for all-electron electronic structure calculation'
    'using numerically tabulated basis functions'
    Journal of Computational Physics 228, 8367-8379 (2009).
    http://dx.doi.org/10.1016/j.jcp.2009.08.008

  Of course, there are many other important community references, e.g., those cited in the
  above references. Our list is limited to references that describe implementations in the
  FHI-aims code. The reason is purely practical (length of this list) - please credit others as well.

------------------------------------------------------------
          Leaving FHI-aims.
          Date     :  20190513, Time     :  134609.432

          Computational steps:
          | Number of self-consistency cycles          :           13
          | Number of SCF (re)initializations          :            1

          Detailed time accounting                     :  max(cpu_time)    wall_clock(cpu1)
          | Total time                                 :       61.821 s          61.861 s
          | Preparation time                           :        0.096 s           0.096 s
          | Boundary condition initalization           :        0.048 s           0.048 s
          | Grid partitioning                          :        0.032 s           0.032 s
          | Preloading free-atom quantities on grid    :        0.001 s           0.001 s
          | Free-atom superposition energy             :        0.040 s           0.041 s
          | Total time for integrations                :       12.413 s          12.423 s
          | Total time for solution of K.-S. equations :       20.058 s          20.073 s
          | Total time for density update              :       20.935 s          20.943 s
          | Total time for mixing & preconditioning    :        0.659 s           0.660 s
          | Total time for Hartree multipole update    :        0.011 s           0.010 s
          | Total time for Hartree multipole sum       :        7.300 s           7.302 s
          | Total time for total energy evaluation     :        0.008 s           0.010 s
          | Total time for scaled ZORA corrections     :        0.000 s           0.000 s

 This is a stub MPI_ALLREDUCE call.
 You should not be here. Check your
 setting on the use_mpi variable, or
 link against true MPI-libraries.
