------------------------------------------------------------
          Invoking FHI-aims ...
          Version 171221_1
          Compiled on 2019/05/06 at 14:26:40 on host ffph0xx.

          When using FHI-aims, please cite the following reference:

          Volker Blum, Ralf Gehrke, Felix Hanke, Paula Havu,
          Ville Havu, Xinguo Ren, Karsten Reuter, and Matthias Scheffler,
          'Ab Initio Molecular Simulations with Numeric Atom-Centered Orbitals',
          Computer Physics Communications 180, 2175-2196 (2009)

          For any questions about FHI-aims, please visit the aimsclub website
          with its forums and wiki. Contributions to both the forums and the
          wiki are warmly encouraged - they are for you, and everyone is welcome there.

------------------------------------------------------------



  Date     :  20190508, Time     :  152725.024
  Time zero on CPU 1             :   0.889000000000000E-03  s.
  Internal wall clock time zero  :           326561245.024  s.

  FHI-aims created a unique identifier for this run for later identification
  aims_uuid : E9B8FB0A-8619-4155-ADAA-F99590AAB4C2


  Performing system and environment tests:
  *** Environment variable OMP_NUM_THREADS is not set
  *** For performance reasons you might want to set it to 1
  | Stacksize not measured: no C compiler

  Obtaining array dimensions for all initial allocations:
  
  -----------------------------------------------------------------------
  Parsing control.in (first pass over file, find array dimensions only).
  The contents of control.in will be repeated verbatim below
  unless switched off by setting 'verbatim_writeout .false.' .
  in the first line of control.in .
  -----------------------------------------------------------------------
  
  #--- Specification of method ---
  xc pbe
  charge 0.0
  spin collinear
  default_initial_moment 2.0
  #---
  
  #--- iteration limit ---
  sc_iter_limit 100
  
  # other possible thresholds
  # sc_accuracy_eev ... for sum of Kohn-Sham eigen values
  # sc_accuracy_etot .. total energy
  # sc_accuracy_rho ... electron density
  #---
  
  #--- tasks (what to calculate) ---
  output dipole
  #---
  
  
  ################################################################################
  ############# Species Defaults ####################
  ################################################################################
  
  
  ################################################################################
  #
  #  FHI-aims code project
  # Volker Blum, Fritz Haber Institute Berlin, 2009
  #
  #  Suggested "tight" defaults for O atom (to be pasted into control.in file)
  #
  ################################################################################
    species        O
  #     global species definitions
      nucleus             8
      mass                15.9994
  #
      l_hartree           6
  #
      cut_pot             4.0  2.0  1.0
      basis_dep_cutoff    1e-4
  #
      radial_base         36 7.0
      radial_multiplier   2
       angular_grids specified
        division   0.1817   50
        division   0.3417  110
        division   0.4949  194
        division   0.6251  302
        division   0.8014  434
  #      division   0.8507  590
  #      division   0.8762  770
  #      division   0.9023  974
  #      division   1.2339 1202
  #      outer_grid 974
        outer_grid  434
  ################################################################################
  #
  #  Definition of "minimal" basis
  #
  ################################################################################
  #     valence basis states
      valence      2  s   2.
      valence      2  p   4.
  #     ion occupancy
      ion_occ      2  s   1.
      ion_occ      2  p   3.
  ################################################################################
  #
  #  Suggested additional basis functions. For production calculations,
  #  uncomment them one after another (the most important basis functions are
  #  listed first).
  #
  #  Constructed for dimers: 1.0 A, 1.208 A, 1.5 A, 2.0 A, 3.0 A
  #
  ################################################################################
  #  "First tier" - improvements: -699.05 meV to -159.38 meV
       hydro 2 p 1.8
       hydro 3 d 7.6
       hydro 3 s 6.4
  #  "Second tier" - improvements: -49.91 meV to -5.39 meV
       hydro 4 f 11.6
       hydro 3 p 6.2
       hydro 3 d 5.6
       hydro 5 g 17.6
       hydro 1 s 0.75
  #  "Third tier" - improvements: -2.83 meV to -0.50 meV
  #     ionic 2 p auto
  #     hydro 4 f 10.8
  #     hydro 4 d 4.7
  #     hydro 2 s 6.8
  #  "Fourth tier" - improvements: -0.40 meV to -0.12 meV
  #     hydro 3 p 5
  #     hydro 3 s 3.3
  #     hydro 5 g 15.6
  #     hydro 4 f 17.6
  #     hydro 4 d 14
  # Further basis functions - -0.08 meV and below
  #     hydro 3 s 2.1
  #     hydro 4 d 11.6
  #     hydro 3 p 16
  #     hydro 2 s 17.2
  ################################################################################
  #
  # For methods that use the localized form of the "resolution of identity" for
  # the two-electron Coulomb operator (RI_method LVL), particularly Hartree-Fock and
  # hybrid density functional calculations, the highest accuracy can be obtained by
  # uncommenting the line beginning with "for_aux"  below, thus adding an extra g radial
  # function to the construction of the product basis set for the expansion.
  # See Ref. New J. Phys. 17, 093020 (2015) for more information, particularly Figs. 1 and 6.
  #
  ################################################################################
  #
  # for_aux hydro 5 g 6.0
  
  -----------------------------------------------------------------------
  Completed first pass over input file control.in .
  -----------------------------------------------------------------------
  
  
  -----------------------------------------------------------------------
  Parsing geometry.in (first pass over file, find array dimensions only).
  The contents of geometry.in will be repeated verbatim below
  unless switched off by setting 'verbatim_writeout .false.' .
  in the first line of geometry.in .
  -----------------------------------------------------------------------
  
  # HF with variable bonding distance
  atom 0.0 0.0 0.0 O
  atom 0.0 0.0 1.1 O
  
  -----------------------------------------------------------------------
  Completed first pass over input file geometry.in .
  -----------------------------------------------------------------------
  

  Basic array size parameters:
  | Number of species                 :        1
  | Number of atoms                   :        2
  | Max. basis fn. angular momentum   :        4
  | Max. atomic/ionic basis occupied n:        2
  | Max. number of basis fn. types    :        2
  | Max. radial fns per species/type  :        8
  | Max. logarithmic grid size        :     1301
  | Max. radial integration grid size :       73
  | Max. angular integration grid size:      434
  | Max. angular grid division number :        8
  | Radial grid for Hartree potential :     1301
  | Number of spin channels           :        2

------------------------------------------------------------
          Reading file control.in.
------------------------------------------------------------
  XC: Using PBE gradient-corrected functionals.
  Charge =   0.000000E+00: Neutral system requested explicitly.
  Spin treatment: Spin density functional theory - collinear spins.
  Initial spin moment per atom:   2.0000
  Maximum number of s.-c. iterations  :   100
  Dipole moment will be written out.

  Reading configuration options for species O                   .
  | Found nuclear charge :   8.0000
  | Found atomic mass :    15.999400000000000      amu
  | Found l_max for Hartree potential  :   6
  | Found cutoff potl. onset [A], width [A], scale factor :    4.00000    2.00000    1.00000
  | Threshold for basis-dependent cutoff potential is   0.100000E-03
  | Found data for basic radial integration grid :    36 points, outermost radius =    7.000 A
  | Found multiplier for basic radial grid :   2
  | Found angular grid specification: user-specified.
  | Specified grid contains     6 separate shells.
  | Check grid settings after all constraints further below.
  | Found free-atom valence shell :  2 s   2.000
  | Found free-atom valence shell :  2 p   4.000
  | No ionic wave fns used. Skipping ion_occ.
  | No ionic wave fns used. Skipping ion_occ.
  | Found hydrogenic basis function :  2 p   1.800
  | Found hydrogenic basis function :  3 d   7.600
  | Found hydrogenic basis function :  3 s   6.400
  | Found hydrogenic basis function :  4 f  11.600
  | Found hydrogenic basis function :  3 p   6.200
  | Found hydrogenic basis function :  3 d   5.600
  | Found hydrogenic basis function :  5 g  17.600
  | Found hydrogenic basis function :  1 s   0.750
  Species O                   : Missing cutoff potential type.
  Defaulting to exp(1/x)/(1-x)^2 type cutoff potential.
  Species O : No 'logarithmic' tag. Using default grid for free atom:
  | Default logarithmic grid data [bohr] : 0.1000E-03 0.1000E+03 0.1012E+01
  Species O : On-site basis accuracy parameter (for Gram-Schmidt orthonormalisation) not specified.
  Using default value basis_acc =  0.1000000E-03.
  Species O                   : Using default innermost maximum threshold i_radial=  2 for radial functions.
  Species O                   : Default cutoff onset for free atom density etc. : 0.40000000E+01 AA.
  Species O                   : Basic radial grid will be enhanced according to radial_multiplier =   2, to contain    73 grid points.

  Finished reading input file 'control.in'. Consistency checks are next.

  MPI_IN_PLACE appears to work with this MPI implementation.
  | Keeping use_mpi_in_place .true. (see manual).
  Target number of points in a grid batch is not set. Defaulting to  100
  Method for grid partitioning is not set. Defaulting to 'maxmin' partitioning.
  Batch size limit is not set. Defaulting to    200
  By default, will store active basis functions for each batch.
  If in need of memory, prune_basis_once .false. can be used to disable this option.
  communication_type for Hartree potential was not specified.
  Defaulting to calc_hartree .
 * Attention: 
 * You may want to set distributed_spline_storage to .true. in order to save memory.
 * This doesn't harm performance and is perfectly ok unless:
 * - you get error messages in postprocessing (about missing atoms in get_rho_multipole_spl)
 * - you need full spline storage in hirshfeld_analysis
  Defaulting to Pulay charge density mixer.
  Pulay mixer: Number of relevant iterations not set.
  Defaulting to    8 iterations.
  Pulay mixer: Number of initial linear mixing iterations not set.
  Defaulting to    0 iterations.
  Work space size for distributed Hartree potential not set.
  Defaulting to   0.200000E+03 MB.
  Mixing parameter for charge density mixing has not been set.
  Using default: charge_mix_param =     0.0500.
  The mixing parameter will be adjusted in iteration number     2 of the first full s.c.f. cycle only.
  Mixing parameter for spin density mixing has not been set.
  Using charge_mix_param as default:     0.0500.
  Algorithm-dependent basis array size parameters:
  | n_max_pulay                         :        8
 * Notice: The s.c.f. convergence criterion sc_accuracy_rho was not provided.
 * We used to stop in this case, and ask the user to provide reasonable
 * scf convergence criteria. However, this led some users to employ criteria
 * that led to extremely long run times, e.g., for simple relaxation.
 * We now preset a default value for sc_accuracy_rho if it is not set.
 * You may still wish to check if this setting is too tight or too loose for your needs.
 * Based on n_atoms, FHI-aims chose sc_accuracy_rho =  0.100000E-05 .
  Presetting      1001 iterations before the initial mixing cycle
  is restarted anyway using the sc_init_iter criterion / keyword.
  Presetting a factor      1.000 between actual scf density residual
  and density convergence criterion sc_accuracy_rho below which sc_init_iter
  takes no effect.
 * No s.c.f. convergence criteria (sc_accuracy_*) were provided in control.in.
 * The run will proceed with a reasonable default guess, but please check whether.
 * the s.c.f. cycles seem to take too much or too little time.
  Calculation of forces was not defined in control.in. No forces will be calculated.
  Geometry relaxation not requested: no relaxation will be performed.
  No accuracy limit for integral partition fn. given. Defaulting to  0.1000E-14.
  No threshold value for u(r) in integrations given. Defaulting to  0.1000E-05.
  No occupation type (smearing scheme) given. Defaulting to Gaussian broadening, width =  0.1000E-01 eV.
  The width will be adjusted in iteration number     2 of the first full s.c.f. cycle only.
  S.C.F. convergence parameters will be adjusted in iteration number     2 of the first full s.c.f. cycle only.
  No accuracy for occupation numbers given. Defaulting to  0.1000E-12.
  No threshold value for occupation numbers given. Defaulting to  0.0000E+00.
  No accuracy for fermi level given. Defaulting to  0.1000E-19.
  Maximum # of iterations to find E_F not set. Defaulting to  200.
  Preferred method for the eigenvalue solver ('KS_method') not specified in 'control.in'.
  Defaulting to serial version, 'lapack_fast'.
  Will not use alltoall communication since running on < 1024 CPUs.
  Threshold for basis singularities not set.
  Default threshold for basis singularities:  0.1000E-04
  partition_type (choice of integration weights) for integrals was not specified.
  | Using a version of the partition function of Stratmann and coworkers ('stratmann_smoother').
  | At each grid point, the set of atoms used to build the partition table is smoothly restricted to
  | only those atoms whose free-atom density would be non-zero at that grid point.
  Partitioning for Hartree potential was not defined. Using partition_type for integrals.
  | Adjusted default value of keyword multip_moments_threshold to:       0.10000000E-11
  | This value may affect high angular momentum components of the Hartree potential in periodic systems.
  No q(lm)/r^(l+1) cutoff set for long-range Hartree potential.
  | Using default value of  0.100000E-09 .
  | Verify using the multipole_threshold keyword.
  Defaulting to new monopole extrapolation.
  Density update method: automatic selection selected.
------------------------------------------------------------


------------------------------------------------------------
          Reading geometry description geometry.in.
------------------------------------------------------------
 * Warning! You did not set the 'relativistic' flag in input file 'control.in'.
 * Since you are not attempting to treat any elements beyond Ca(Z=20), FHI-aims
 * will default to 'relativistic none'.
 * You must ensure that this is really what you want!!
 * For example, DO NOT compute total-energy differences between results from
 * different settings of the 'relativistic' flag.
  Input structure read successfully.
  The structure contains        2 atoms,  and a total of         16.000 electrons.

  Input geometry:
  | No unit cell requested.
  | Atomic structure:
  |       Atom                x [A]            y [A]            z [A]
  |    1: Species O             0.00000000        0.00000000        0.00000000
  |    2: Species O             0.00000000        0.00000000        1.10000000
  |

  | The smallest distance between any two atoms is         1.10000000 AA.
  |
  | The first atom of this pair is atom number                      1 .
  | The second atom of this pair is atom number                     2 .

  Initial moments and charges:
  |  Atom   Moment         Charge        Species
  |     1   0.200000E+01   0.000000E+00   O
  |     2   0.200000E+01   0.000000E+00   O

  Number of empty states per atom not set in control.in - providing a guess from actual geometry.
  | Total number of empty states used during s.c.f. cycle:        6
  If you use a very high smearing, use empty_states (per atom!) in control.in to increase this value.

  Structure-dependent array size parameters: 
  | Number of distinct atom types in initial rho :        1
  | Maximum number of distinct radial functions  :       11
  | Maximum number of basis functions            :       78
  | Number of Kohn-Sham states (occupied + empty):       14
------------------------------------------------------------

------------------------------------------------------------
          Preparing all fixed parts of the calculation.
------------------------------------------------------------
  Determining machine precision:
     2.2250738585072014E-308
  Setting up grids for atomic and cluster calculations.

  Creating wave function, potential, and density for free atoms.

  Species: O

  List of occupied orbitals and eigenvalues:
    n    l              occ      energy [Ha]    energy [eV]
    1    0           2.0000       -18.898576      -514.2564
    2    0           2.0000        -0.878795       -23.9132
    2    1           4.0000        -0.332075        -9.0362

  Spin-polarized or charged system:
  Charge density initialized according to selected moments and charges.

  Creating spin-polarized density from free atoms.

  Species: O
  Charge:   0.000000
  Moment:   2.000000

  List of occupied orbitals and eigenvalues:
    n    l      energy [Ha]    energy [eV]    occupation
  Spin-up
    1    0       -18.902870      -514.3733     1.00000000
    2    0        -0.924859       -25.1667     1.00000000
    2    1        -0.375913       -10.2291     3.00000000
  Spin-down
    1    0       -18.857549      -513.1400     1.00000000
    2    0        -0.805583       -21.9210     1.00000000
    2    1        -0.264264        -7.1910     1.00000000

  Creating fixed part of basis set: Ionic, confined, hydrogenic.

  O                    hydrogenic:

  List of hydrogenic basis orbitals: 
    n    l      effective z      eigenvalue [eV]  inner max. [A]     outer max. [A]     outer radius [A]   
    2    1         1.800000       -11.0118           1.178562           1.178562           5.432602
    3    2         7.600000       -87.3182           0.624125           0.624125           3.541477
    3    0         6.400000       -61.9209           0.061167           1.081902           4.306578
    4    3        11.600000      -114.4238           0.731631           0.731631           3.585037
    3    1         6.200000       -58.1113           0.255680           1.030270           4.306578
    3    2         5.600000       -47.4081           0.847233           0.847233           4.413171
    5    4        17.600000      -168.5799           0.749740           0.749740           3.372465
    1    0         0.750000        -7.6499           0.705284           0.705284           5.366593


  Adding cutoff potential to free-atom effective potential.
  Creating atomic-like basis functions for current effective potential.

  Species O                   :

  List of atomic basis orbitals and eigenvalues:
    n    l      energy [Ha]    energy [eV]    outer radius [A]
    1    0       -18.898576      -514.2564       1.415765
    2    0        -0.878795       -23.9132       5.048385
    2    1        -0.332075        -9.0362       5.301386

  Assembling full basis from fixed parts.
  | Species O :   atomic orbital   1 s accepted.
  | Species O :    hydro orbital   3 s accepted.
  | Species O :   atomic orbital   2 s accepted.
  | Species O :    hydro orbital   1 s accepted.
  | Species O :    hydro orbital   3 p accepted.
  | Species O :   atomic orbital   2 p accepted.
  | Species O :    hydro orbital   2 p accepted.
  | Species O :    hydro orbital   3 d accepted.
  | Species O :    hydro orbital   3 d accepted.
  | Species O :    hydro orbital   4 f accepted.
  | Species O :    hydro orbital   5 g accepted.

  Basis size parameters after reduction:
  | Total number of radial functions:       11
  | Total number of basis functions :       78

  Per-task memory consumption for arrays in subroutine allocate_ext:
  |           2.750028MB.
  Testing on-site integration grid accuracy.
  |  Species  Function  <phi|h_atom|phi> (log., in eV)  <phi|h_atom|phi> (rad., in eV)
           1        1               -514.2564144315               -514.2564099626
           1        2                 15.1726678541                 15.1726530877
           1        3                -21.5447785304                -21.5447874973
           1        4                 14.4944558459                 14.4944698284
           1        5                 20.8882174564                 20.8882178906
           1        6                 -2.4850315909                 -2.4850322289
           1        7                 13.8600193195                 13.8599826966
           1        8                 45.8243383616                 45.8243383675
           1        9                 52.1840606465                 52.1840622440
           1       10                 85.4074185510                 85.4074185819
           1       11                142.0983717302                142.0983717339

  Preparing densities etc. for the partition functions (integrals / Hartree potential).

  Preparations completed.
  max(cpu_time)          :      0.116 s.
  Wall clock time (cpu1) :      0.116 s.
------------------------------------------------------------

------------------------------------------------------------
          Begin self-consistency loop: Initialization.

          Date     :  20190508, Time     :  152725.141
------------------------------------------------------------

  Initializing index lists of integration centers etc. from given atomic structure:
  | Number of centers in hartree potential         :         2
  | Number of centers in hartree multipole         :         2
  | Number of centers in electron density summation:         2
  | Number of centers in basis integrals           :         2
  | Number of centers in integrals                 :         2
  | Number of centers in hamiltonian               :         2
  Partitioning the integration grid into batches with maxmin method.
  | Maximal weight for a single point:     1.000
  | Minimal weight for a single point:     0.000
  | Number of batches:      492
  | Maximal batch size:     161
  | Minimal batch size:      76
  | Average batch size:      81.862
  | Standard deviation of batch sizes:      15.691
  Initializing partition tables, free-atom densities, potentials, etc. across the integration grid (initialize_grid_storage).
  | initialize_grid_storage: Actual outermost partition radius vs. multipole_radius_free
  | (-- VB: in principle, multipole_radius_free should be larger, hence this output)
  | Species        1: Confinement radius =              6.000000000000000 AA, multipole_radius_free =              6.064445521808699 AA.
  | Species        1: outer_partition_radius set to              6.064445521808699 AA .
  | Original list of interatomic distances with           2 x          2 entries is created.
  | Net number of integration points:    40276
  | of which are non-zero points    :    37826
  Renormalizing the initial density to the exact electron count on the 3D integration grid.
  | Initial density: Formal number of electrons (from input files) :      16.0000000000
  | Integrated number of electrons on 3D grid     :      15.9999996347
  | Charge integration error                      :      -0.0000003653
  | Normalization factor for density and gradient :       1.0000000228
  Obtaining max. number of non-zero basis functions in each batch (get_n_compute_maxes).
  | Maximal number of non-zero basis functions:       78 in task     0
  Selecting the method for density update.
  Loop over occupied states selected for charge density update.
  Allocating        0.017 MB for KS_eigenvector
  Integrating Hamiltonian matrix: batch-based integration.
  Time summed over all CPUs for integration: real work        0.230 s, elapsed        0.230 s
  Integrating overlap matrix.
  Time summed over all CPUs for integration: real work        0.065 s, elapsed        0.065 s

  Updating Kohn-Sham eigenvalues, eigenvectors, occupation numbers, and Fermi level.
  Solving generalized eigenproblem
  Updating Kohn-Sham eigenvalues and eigenfunctions.
  Transforming overlap matrix and checking for singularities.
  Overlap matrix is nonsingular:
  | Lowest eigenvalue:  0.166944E-03
  Solving real generalised eigenvalue problem by standard LAPACK (fast)
  Updating Kohn-Sham eigenvalues and eigenfunctions.
  Solving real generalised eigenvalue problem by standard LAPACK (fast)

  Obtaining occupation numbers and chemical potential using ELSI.
  | Chemical potential (Fermi level):    -6.44813859eV
  Writing Kohn-Sham eigenvalues.

  Spin-up eigenvalues:

  State    Occupation    Eigenvalue [Ha]    Eigenvalue [eV]
      1       1.00000         -18.981438         -516.51121
      2       1.00000         -18.981158         -516.50359
      3       1.00000          -1.367907          -37.22266
      4       1.00000          -0.801580          -21.81211
      5       1.00000          -0.606842          -16.51300
      6       1.00000          -0.595163          -16.19520
      7       1.00000          -0.595163          -16.19520
      8       1.00000          -0.272527           -7.41583
      9       1.00000          -0.272527           -7.41583
     10       0.00000           0.079536            2.16429
     11       0.00000           0.087714            2.38681
     12       0.00000           0.117212            3.18951
     13       0.00000           0.117212            3.18951
     14       0.00000           0.193666            5.26991

  Spin-down eigenvalues:

  State    Occupation    Eigenvalue [Ha]    Eigenvalue [eV]
      1       1.00000         -18.935635         -515.26484
      2       1.00000         -18.935359         -515.25733
      3       1.00000          -1.230854          -33.49325
      4       1.00000          -0.679399          -18.48740
      5       1.00000          -0.482958          -13.14196
      6       1.00000          -0.475709          -12.94469
      7       1.00000          -0.475709          -12.94469
      8       0.00000          -0.151601           -4.12528
      9       0.00000          -0.151601           -4.12528
     10       0.00000           0.102872            2.79929
     11       0.00000           0.111128            3.02395
     12       0.00000           0.138622            3.77208
     13       0.00000           0.138622            3.77208
     14       0.00000           0.212903            5.79338

  Current spin moment of the entire structure :
  | N = N_up - N_down :    2.00
  | S                 :    1.00
  | J                 :    3.00

  Highest occupied state (VBM) at     -7.41582986 eV
  | Occupation number:      1.00000000
  | Spin channel:        1

  Lowest unoccupied state (CBM) at    -4.12527761 eV
  | Occupation number:      0.00000000
  | Spin channel:        2

  Overall HOMO-LUMO gap:      3.29055225 eV.
  Calculating total energy contributions from superposition of free atom densities.

  Total energy components:
  | Sum of eigenvalues            :         -83.68992659 Ha       -2277.31877132 eV
  | XC energy correction          :         -16.98160487 Ha        -462.09297958 eV
  | XC potential correction       :          21.84910143 Ha         594.54430008 eV
  | Free-atom electrostatic energy:         -71.38136793 Ha       -1942.38584886 eV
  | Hartree energy correction     :          -0.00000000 Ha          -0.00000000 eV
  | Entropy correction            :          -0.00000000 Ha          -0.00000000 eV
  | ---------------------------
  | Total energy                  :        -150.20379796 Ha       -4087.25329967 eV
  | Total energy, T -> 0          :        -150.20379796 Ha       -4087.25329967 eV  <-- do not rely on this value for anything but (periodic) metals
  | Electronic free energy        :        -150.20379796 Ha       -4087.25329967 eV

  Derived energy quantities:
  | Kinetic energy                :         150.12719691 Ha        4085.16887897 eV
  | Electrostatic energy          :        -283.34939000 Ha       -7710.32919906 eV
  | Energy correction for multipole
  | error in Hartree potential    :           0.00000000 Ha           0.00000000 eV
  | Sum of eigenvalues per atom                           :       -1138.65938566 eV
  | Total energy (T->0) per atom                          :       -2043.62664984 eV  <-- do not rely on this value for anything but (periodic) metals
  | Electronic free energy per atom                       :       -2043.62664984 eV
  Initialize hartree_potential_storage
  Max. number of atoms included in rho_multipole:            2

  End scf initialization - timings             :  max(cpu_time)    wall_clock(cpu1)
  | Time for scf. initialization               :        0.394 s           0.394 s
  | Boundary condition initialization          :        0.000 s           0.000 s
  | Integration                                :        0.295 s           0.295 s
  | Solution of K.-S. eqns.                    :        0.005 s           0.005 s
  | Grid partitioning                          :        0.032 s           0.032 s
  | Preloading free-atom quantities on grid    :        0.003 s           0.003 s
  | Free-atom superposition energy             :        0.038 s           0.038 s
  | Total energy evaluation                    :        0.000 s           0.000 s

  Partial memory accounting:
  | Current value for overall tracked memory usage on task 0  :           0.140 MB
  | Peak value for overall tracked memory usage on task 0     :           0.645 MB after allocating wave
  | Largest tracked array allocation on task 0 so far         :           0.201 MB  when allocating H_times_psi
  Note:  These values currently only include a subset of arrays which are explicitly tracked.
  The "true" memory usage will be greater.
------------------------------------------------------------

------------------------------------------------------------
          Begin self-consistency iteration #    1

  Date     :  20190508, Time     :  152725.535
------------------------------------------------------------
  Evaluating new KS density.
  Integration grid: deviation in total charge (<rho> - N_e) =  -8.881784E-14
  | <rho_up-rho_dn> = N_up-N_dn =      2.0000; <|rho_up-rho_dn|> =      2.0277
  Pulay mixing of updated and previous charge densities.

  Evaluating partitioned Hartree potential by multipole expansion.
  | Analytical far-field extrapolation by fixed multipoles:
  | Hartree multipole sum: apparent total charge =  -0.398793E-06
  Summing up the Hartree potential.
  Time summed over all CPUs for potential: real work        0.031 s, elapsed        0.031 s
  | RMS charge density error from multipole expansion :   0.177176E-03

  Integrating Hamiltonian matrix: batch-based integration.
  Time summed over all CPUs for integration: real work        0.259 s, elapsed        0.259 s

  Updating Kohn-Sham eigenvalues, eigenvectors, occupation numbers, and Fermi level.
  Solving generalized eigenproblem
  Updating Kohn-Sham eigenvalues and eigenfunctions.
  Solving real generalised eigenvalue problem by standard LAPACK (fast)
  Updating Kohn-Sham eigenvalues and eigenfunctions.
  Solving real generalised eigenvalue problem by standard LAPACK (fast)

  Obtaining occupation numbers and chemical potential using ELSI.
  | Chemical potential (Fermi level):    -6.40883886eV
  Writing Kohn-Sham eigenvalues.

  Spin-up eigenvalues:

  State    Occupation    Eigenvalue [Ha]    Eigenvalue [eV]
      1       1.00000         -18.954088         -515.76697
      2       1.00000         -18.953807         -515.75933
      3       1.00000          -1.351899          -36.78703
      4       1.00000          -0.786729          -21.40799
      5       1.00000          -0.590585          -16.07064
      6       1.00000          -0.581685          -15.82844
      7       1.00000          -0.581685          -15.82844
      8       1.00000          -0.258295           -7.02856
      9       1.00000          -0.258295           -7.02856
     10       0.00000           0.081544            2.21893
     11       0.00000           0.090199            2.45445
     12       0.00000           0.118900            3.23545
     13       0.00000           0.118900            3.23545
     14       0.00000           0.195320            5.31493

  Spin-down eigenvalues:

  State    Occupation    Eigenvalue [Ha]    Eigenvalue [eV]
      1       1.00000         -18.909165         -514.54456
      2       1.00000         -18.908888         -514.53703
      3       1.00000          -1.219707          -33.18992
      4       1.00000          -0.667773          -18.17104
      5       1.00000          -0.471546          -12.83143
      6       1.00000          -0.465169          -12.65788
      7       1.00000          -0.465169          -12.65788
      8       0.00000          -0.139897           -3.80680
      9       0.00000          -0.139897           -3.80680
     10       0.00000           0.104366            2.83994
     11       0.00000           0.112655            3.06550
     12       0.00000           0.139982            3.80910
     13       0.00000           0.139982            3.80910
     14       0.00000           0.213725            5.81576

  Current spin moment of the entire structure :
  | N = N_up - N_down :    2.00
  | S                 :    1.00
  | J                 :    3.00

  Highest occupied state (VBM) at     -7.02855857 eV
  | Occupation number:      1.00000000
  | Spin channel:        1

  Lowest unoccupied state (CBM) at    -3.80680028 eV
  | Occupation number:      0.00000000
  | Spin channel:        2

  Overall HOMO-LUMO gap:      3.22175829 eV.

  Total energy components:
  | Sum of eigenvalues            :         -83.42448371 Ha       -2270.09570301 eV
  | XC energy correction          :         -16.98586720 Ha        -462.20896351 eV
  | XC potential correction       :          21.85411829 Ha         594.68081566 eV
  | Free-atom electrostatic energy:         -71.38136793 Ha       -1942.38584886 eV
  | Hartree energy correction     :          -0.26535477 Ha          -7.22067056 eV
  | Entropy correction            :          -0.00000000 Ha          -0.00000000 eV
  | ---------------------------
  | Total energy                  :        -150.20295532 Ha       -4087.23037028 eV
  | Total energy, T -> 0          :        -150.20295532 Ha       -4087.23037028 eV  <-- do not rely on this value for anything but (periodic) metals
  | Electronic free energy        :        -150.20295532 Ha       -4087.23037028 eV

  Derived energy quantities:
  | Kinetic energy                :         150.27743568 Ha        4089.25708396 eV
  | Electrostatic energy          :        -283.49452380 Ha       -7714.27849073 eV
  | Energy correction for multipole
  | error in Hartree potential    :          -0.00015110 Ha          -0.00411169 eV
  | Sum of eigenvalues per atom                           :       -1135.04785150 eV
  | Total energy (T->0) per atom                          :       -2043.61518514 eV  <-- do not rely on this value for anything but (periodic) metals
  | Electronic free energy per atom                       :       -2043.61518514 eV

  Self-consistency convergence accuracy:
  | Change of charge/spin density :  0.1832E+00  0.4209E+00
  | Change of sum of eigenvalues  :  0.7223E+01 eV
  | Change of total energy        :  0.2293E-01 eV

  End self-consistency iteration #     1       :  max(cpu_time)    wall_clock(cpu1)
  | Time for this iteration                    :        0.484 s           0.484 s
  | Charge density update                      :        0.183 s           0.183 s
  | Density mixing                             :        0.005 s           0.005 s
  | Hartree multipole update                   :        0.003 s           0.003 s
  | Hartree multipole summation                :        0.031 s           0.031 s
  | Integration                                :        0.259 s           0.259 s
  | Solution of K.-S. eqns.                    :        0.003 s           0.003 s
  | Total energy evaluation                    :        0.000 s           0.000 s

  Partial memory accounting:
  | Current value for overall tracked memory usage on task 0  :           0.140 MB
  | Peak value for overall tracked memory usage on task 0     :           0.693 MB after allocating wave
  | Largest tracked array allocation on task 0 so far         :           0.301 MB  when allocating gradient_basis_wave
  Note:  These values currently only include a subset of arrays which are explicitly tracked.
  The "true" memory usage will be greater.
------------------------------------------------------------

------------------------------------------------------------
          Begin self-consistency iteration #    2

  Date     :  20190508, Time     :  152726.019
------------------------------------------------------------
  Evaluating new KS density.
  Integration grid: deviation in total charge (<rho> - N_e) =  -5.684342E-14
  | <rho_up-rho_dn> = N_up-N_dn =      2.0000; <|rho_up-rho_dn|> =      2.0282
  Pulay mixing of updated and previous charge densities.

  Evaluating partitioned Hartree potential by multipole expansion.
  | Analytical far-field extrapolation by fixed multipoles:
  | Hartree multipole sum: apparent total charge =  -0.508046E-06
  Summing up the Hartree potential.
  Time summed over all CPUs for potential: real work        0.032 s, elapsed        0.032 s
  | RMS charge density error from multipole expansion :   0.153207E-02

  Integrating Hamiltonian matrix: batch-based integration.
  Time summed over all CPUs for integration: real work        0.329 s, elapsed        0.329 s

  Updating Kohn-Sham eigenvalues, eigenvectors, occupation numbers, and Fermi level.
  Solving generalized eigenproblem
  Updating Kohn-Sham eigenvalues and eigenfunctions.
  Solving real generalised eigenvalue problem by standard LAPACK (fast)
  Updating Kohn-Sham eigenvalues and eigenfunctions.
  Solving real generalised eigenvalue problem by standard LAPACK (fast)

  Obtaining occupation numbers and chemical potential using ELSI.
  | Chemical potential (Fermi level):    -4.29567977eV
  Current spin moment of the entire structure :
  | N = N_up - N_down :    2.00
  | S                 :    1.00
  | J                 :    3.00

  Highest occupied state (VBM) at     -5.87182179 eV
  | Occupation number:      1.00000000
  | Spin channel:        1

  Lowest unoccupied state (CBM) at    -3.20656678 eV
  | Occupation number:      0.00000000
  | Spin channel:        2

  Overall HOMO-LUMO gap:      2.66525501 eV.

  Checking to see if s.c.f. parameters should be adjusted.
  The system likely has a gap. Increased the default Pulay mixing parameter (charge_mix_param). Value:   0.200000 .
  Kept the default occupation width. Value:   0.010000 eV.

  Total energy components:
  | Sum of eigenvalues            :         -82.77973375 Ha       -2252.55116380 eV
  | XC energy correction          :         -17.02815563 Ha        -463.35969014 eV
  | XC potential correction       :          21.90385130 Ha         596.03411981 eV
  | Free-atom electrostatic energy:         -71.38136793 Ha       -1942.38584886 eV
  | Hartree energy correction     :          -0.94070554 Ha         -25.59790025 eV
  | Entropy correction            :          -0.00000000 Ha          -0.00000000 eV
  | ---------------------------
  | Total energy                  :        -150.22611155 Ha       -4087.86048323 eV
  | Total energy, T -> 0          :        -150.22611155 Ha       -4087.86048323 eV  <-- do not rely on this value for anything but (periodic) metals
  | Electronic free energy        :        -150.22611155 Ha       -4087.86048323 eV

  Derived energy quantities:
  | Kinetic energy                :         150.69037857 Ha        4100.49383181 eV
  | Electrostatic energy          :        -283.88833449 Ha       -7724.99462490 eV
  | Energy correction for multipole
  | error in Hartree potential    :          -0.00096443 Ha          -0.02624340 eV
  | Sum of eigenvalues per atom                           :       -1126.27558190 eV
  | Total energy (T->0) per atom                          :       -2043.93024162 eV  <-- do not rely on this value for anything but (periodic) metals
  | Electronic free energy per atom                       :       -2043.93024162 eV

  Self-consistency convergence accuracy:
  | Change of charge/spin density :  0.1623E+00  0.4026E+00
  | Change of sum of eigenvalues  :  0.1754E+02 eV
  | Change of total energy        : -0.6301E+00 eV

  End self-consistency iteration #     2       :  max(cpu_time)    wall_clock(cpu1)
  | Time for this iteration                    :        0.554 s           0.554 s
  | Charge density update                      :        0.178 s           0.178 s
  | Density mixing                             :        0.009 s           0.009 s
  | Hartree multipole update                   :        0.002 s           0.002 s
  | Hartree multipole summation                :        0.032 s           0.032 s
  | Integration                                :        0.328 s           0.329 s
  | Solution of K.-S. eqns.                    :        0.004 s           0.004 s
  | Total energy evaluation                    :        0.000 s           0.000 s

  Partial memory accounting:
  | Current value for overall tracked memory usage on task 0  :           0.142 MB
  | Peak value for overall tracked memory usage on task 0     :           0.694 MB after allocating wave
  | Largest tracked array allocation on task 0 so far         :           0.301 MB  when allocating gradient_basis_wave
  Note:  These values currently only include a subset of arrays which are explicitly tracked.
  The "true" memory usage will be greater.
------------------------------------------------------------

------------------------------------------------------------
          Begin self-consistency iteration #    3

  Date     :  20190508, Time     :  152726.574
------------------------------------------------------------
  Evaluating new KS density.
  Integration grid: deviation in total charge (<rho> - N_e) =  -7.460699E-14
  | <rho_up-rho_dn> = N_up-N_dn =      2.0000; <|rho_up-rho_dn|> =      2.0297
  Pulay mixing of updated and previous charge densities.

  Evaluating partitioned Hartree potential by multipole expansion.
  | Analytical far-field extrapolation by fixed multipoles:
  | Hartree multipole sum: apparent total charge =  -0.575238E-06
  Summing up the Hartree potential.
  Time summed over all CPUs for potential: real work        0.035 s, elapsed        0.035 s
  | RMS charge density error from multipole expansion :   0.255883E-02

  Integrating Hamiltonian matrix: batch-based integration.
  Time summed over all CPUs for integration: real work        0.270 s, elapsed        0.270 s

  Updating Kohn-Sham eigenvalues, eigenvectors, occupation numbers, and Fermi level.
  Solving generalized eigenproblem
  Updating Kohn-Sham eigenvalues and eigenfunctions.
  Solving real generalised eigenvalue problem by standard LAPACK (fast)
  Updating Kohn-Sham eigenvalues and eigenfunctions.
  Solving real generalised eigenvalue problem by standard LAPACK (fast)

  Obtaining occupation numbers and chemical potential using ELSI.
  | Chemical potential (Fermi level):    -4.21842432eV
  Current spin moment of the entire structure :
  | N = N_up - N_down :    2.00
  | S                 :    1.00
  | J                 :    3.00

  Highest occupied state (VBM) at     -5.09025521 eV
  | Occupation number:      1.00000000
  | Spin channel:        1

  Lowest unoccupied state (CBM) at    -2.81826297 eV
  | Occupation number:      0.00000000
  | Spin channel:        2

  Overall HOMO-LUMO gap:      2.27199224 eV.

  Total energy components:
  | Sum of eigenvalues            :         -82.34054535 Ha       -2240.60023946 eV
  | XC energy correction          :         -17.06996490 Ha        -464.49737828 eV
  | XC potential correction       :          21.95502646 Ha         597.42666672 eV
  | Free-atom electrostatic energy:         -71.38136793 Ha       -1942.38584886 eV
  | Hartree energy correction     :          -1.40056566 Ha         -38.11133060 eV
  | Entropy correction            :          -0.00000000 Ha          -0.00000000 eV
  | ---------------------------
  | Total energy                  :        -150.23741738 Ha       -4088.16813049 eV
  | Total energy, T -> 0          :        -150.23741738 Ha       -4088.16813049 eV  <-- do not rely on this value for anything but (periodic) metals
  | Electronic free energy        :        -150.23741738 Ha       -4088.16813049 eV

  Derived energy quantities:
  | Kinetic energy                :         150.94260838 Ha        4107.35735410 eV
  | Electrostatic energy          :        -284.11006086 Ha       -7731.02810630 eV
  | Energy correction for multipole
  | error in Hartree potential    :          -0.00164218 Ha          -0.04468590 eV
  | Sum of eigenvalues per atom                           :       -1120.30011973 eV
  | Total energy (T->0) per atom                          :       -2044.08406524 eV  <-- do not rely on this value for anything but (periodic) metals
  | Electronic free energy per atom                       :       -2044.08406524 eV

  Self-consistency convergence accuracy:
  | Change of charge/spin density :  0.4524E-01  0.1860E+00
  | Change of sum of eigenvalues  :  0.1195E+02 eV
  | Change of total energy        : -0.3076E+00 eV

  End self-consistency iteration #     3       :  max(cpu_time)    wall_clock(cpu1)
  | Time for this iteration                    :        0.511 s           0.510 s
  | Charge density update                      :        0.189 s           0.189 s
  | Density mixing                             :        0.010 s           0.010 s
  | Hartree multipole update                   :        0.003 s           0.003 s
  | Hartree multipole summation                :        0.035 s           0.035 s
  | Integration                                :        0.271 s           0.270 s
  | Solution of K.-S. eqns.                    :        0.003 s           0.003 s
  | Total energy evaluation                    :        0.000 s           0.000 s

  Partial memory accounting:
  | Current value for overall tracked memory usage on task 0  :           0.142 MB
  | Peak value for overall tracked memory usage on task 0     :           0.695 MB after allocating wave
  | Largest tracked array allocation on task 0 so far         :           0.301 MB  when allocating gradient_basis_wave
  Note:  These values currently only include a subset of arrays which are explicitly tracked.
  The "true" memory usage will be greater.
------------------------------------------------------------

------------------------------------------------------------
          Begin self-consistency iteration #    4

  Date     :  20190508, Time     :  152727.084
------------------------------------------------------------
  Evaluating new KS density.
  Integration grid: deviation in total charge (<rho> - N_e) =  -1.776357E-14
  | <rho_up-rho_dn> = N_up-N_dn =      2.0000; <|rho_up-rho_dn|> =      2.0368
  Pulay mixing of updated and previous charge densities.

  Evaluating partitioned Hartree potential by multipole expansion.
  | Analytical far-field extrapolation by fixed multipoles:
  | Hartree multipole sum: apparent total charge =  -0.603964E-06
  Summing up the Hartree potential.
  Time summed over all CPUs for potential: real work        0.034 s, elapsed        0.034 s
  | RMS charge density error from multipole expansion :   0.263214E-02

  Integrating Hamiltonian matrix: batch-based integration.
  Time summed over all CPUs for integration: real work        0.260 s, elapsed        0.260 s

  Updating Kohn-Sham eigenvalues, eigenvectors, occupation numbers, and Fermi level.
  Solving generalized eigenproblem
  Updating Kohn-Sham eigenvalues and eigenfunctions.
  Solving real generalised eigenvalue problem by standard LAPACK (fast)
  Updating Kohn-Sham eigenvalues and eigenfunctions.
  Solving real generalised eigenvalue problem by standard LAPACK (fast)

  Obtaining occupation numbers and chemical potential using ELSI.
  | Chemical potential (Fermi level):    -4.24443894eV
  Current spin moment of the entire structure :
  | N = N_up - N_down :    2.00
  | S                 :    1.00
  | J                 :    3.00

  Highest occupied state (VBM) at     -5.30332269 eV
  | Occupation number:      1.00000000
  | Spin channel:        1

  Lowest unoccupied state (CBM) at    -3.02368197 eV
  | Occupation number:      0.00000000
  | Spin channel:        2

  Overall HOMO-LUMO gap:      2.27964073 eV.

  Total energy components:
  | Sum of eigenvalues            :         -82.49797929 Ha       -2244.88423486 eV
  | XC energy correction          :         -17.04239347 Ha        -463.74712153 eV
  | XC potential correction       :          21.91873468 Ha         596.43911715 eV
  | Free-atom electrostatic energy:         -71.38136793 Ha       -1942.38584886 eV
  | Hartree energy correction     :          -1.23259935 Ha         -33.54073474 eV
  | Entropy correction            :          -0.00000000 Ha          -0.00000000 eV
  | ---------------------------
  | Total energy                  :        -150.23560535 Ha       -4088.11882284 eV
  | Total energy, T -> 0          :        -150.23560535 Ha       -4088.11882284 eV  <-- do not rely on this value for anything but (periodic) metals
  | Electronic free energy        :        -150.23560535 Ha       -4088.11882284 eV

  Derived energy quantities:
  | Kinetic energy                :         150.74222785 Ha        4101.90472248 eV
  | Electrostatic energy          :        -283.93543973 Ha       -7726.27642379 eV
  | Energy correction for multipole
  | error in Hartree potential    :          -0.00186027 Ha          -0.05062050 eV
  | Sum of eigenvalues per atom                           :       -1122.44211743 eV
  | Total energy (T->0) per atom                          :       -2044.05941142 eV  <-- do not rely on this value for anything but (periodic) metals
  | Electronic free energy per atom                       :       -2044.05941142 eV

  Self-consistency convergence accuracy:
  | Change of charge/spin density :  0.7969E-01  0.3005E-01
  | Change of sum of eigenvalues  : -0.4284E+01 eV
  | Change of total energy        :  0.4931E-01 eV

  End self-consistency iteration #     4       :  max(cpu_time)    wall_clock(cpu1)
  | Time for this iteration                    :        0.453 s           0.453 s
  | Charge density update                      :        0.148 s           0.149 s
  | Density mixing                             :        0.006 s           0.005 s
  | Hartree multipole update                   :        0.002 s           0.002 s
  | Hartree multipole summation                :        0.034 s           0.034 s
  | Integration                                :        0.260 s           0.260 s
  | Solution of K.-S. eqns.                    :        0.003 s           0.003 s
  | Total energy evaluation                    :        0.000 s           0.000 s

  Partial memory accounting:
  | Current value for overall tracked memory usage on task 0  :           0.142 MB
  | Peak value for overall tracked memory usage on task 0     :           0.695 MB after allocating wave
  | Largest tracked array allocation on task 0 so far         :           0.301 MB  when allocating gradient_basis_wave
  Note:  These values currently only include a subset of arrays which are explicitly tracked.
  The "true" memory usage will be greater.
------------------------------------------------------------

------------------------------------------------------------
          Begin self-consistency iteration #    5

  Date     :  20190508, Time     :  152727.537
------------------------------------------------------------
  Evaluating new KS density.
  Integration grid: deviation in total charge (<rho> - N_e) =   6.039613E-14
  | <rho_up-rho_dn> = N_up-N_dn =      2.0000; <|rho_up-rho_dn|> =      2.0379
  Pulay mixing of updated and previous charge densities.

  Evaluating partitioned Hartree potential by multipole expansion.
  | Analytical far-field extrapolation by fixed multipoles:
  | Hartree multipole sum: apparent total charge =  -0.604425E-06
  Summing up the Hartree potential.
  Time summed over all CPUs for potential: real work        0.030 s, elapsed        0.030 s
  | RMS charge density error from multipole expansion :   0.261842E-02

  Integrating Hamiltonian matrix: batch-based integration.
  Time summed over all CPUs for integration: real work        0.269 s, elapsed        0.269 s

  Updating Kohn-Sham eigenvalues, eigenvectors, occupation numbers, and Fermi level.
  Solving generalized eigenproblem
  Updating Kohn-Sham eigenvalues and eigenfunctions.
  Solving real generalised eigenvalue problem by standard LAPACK (fast)
  Updating Kohn-Sham eigenvalues and eigenfunctions.
  Solving real generalised eigenvalue problem by standard LAPACK (fast)

  Obtaining occupation numbers and chemical potential using ELSI.
  | Chemical potential (Fermi level):    -4.25107797eV
  Current spin moment of the entire structure :
  | N = N_up - N_down :    2.00
  | S                 :    1.00
  | J                 :    3.00

  Highest occupied state (VBM) at     -5.35065436 eV
  | Occupation number:      1.00000000
  | Spin channel:        1

  Lowest unoccupied state (CBM) at    -3.06615005 eV
  | Occupation number:      0.00000000
  | Spin channel:        2

  Overall HOMO-LUMO gap:      2.28450431 eV.

  Total energy components:
  | Sum of eigenvalues            :         -82.53426534 Ha       -2245.87162868 eV
  | XC energy correction          :         -17.03809223 Ha        -463.63007894 eV
  | XC potential correction       :          21.91310157 Ha         596.28583228 eV
  | Free-atom electrostatic energy:         -71.38136793 Ha       -1942.38584886 eV
  | Hartree energy correction     :          -1.19473978 Ha         -32.51052341 eV
  | Entropy correction            :          -0.00000000 Ha          -0.00000000 eV
  | ---------------------------
  | Total energy                  :        -150.23536372 Ha       -4088.11224760 eV
  | Total energy, T -> 0          :        -150.23536372 Ha       -4088.11224760 eV  <-- do not rely on this value for anything but (periodic) metals
  | Electronic free energy        :        -150.23536372 Ha       -4088.11224760 eV

  Derived energy quantities:
  | Kinetic energy                :         150.70993671 Ha        4101.02603566 eV
  | Electrostatic energy          :        -283.90720819 Ha       -7725.50820432 eV
  | Energy correction for multipole
  | error in Hartree potential    :          -0.00186132 Ha          -0.05064915 eV
  | Sum of eigenvalues per atom                           :       -1122.93581434 eV
  | Total energy (T->0) per atom                          :       -2044.05612380 eV  <-- do not rely on this value for anything but (periodic) metals
  | Electronic free energy per atom                       :       -2044.05612380 eV

  Self-consistency convergence accuracy:
  | Change of charge/spin density :  0.4835E-01  0.1357E-01
  | Change of sum of eigenvalues  : -0.9874E+00 eV
  | Change of total energy        :  0.6575E-02 eV

  End self-consistency iteration #     5       :  max(cpu_time)    wall_clock(cpu1)
  | Time for this iteration                    :        0.475 s           0.475 s
  | Charge density update                      :        0.163 s           0.163 s
  | Density mixing                             :        0.007 s           0.007 s
  | Hartree multipole update                   :        0.003 s           0.003 s
  | Hartree multipole summation                :        0.031 s           0.030 s
  | Integration                                :        0.269 s           0.269 s
  | Solution of K.-S. eqns.                    :        0.003 s           0.003 s
  | Total energy evaluation                    :        0.000 s           0.000 s

  Partial memory accounting:
  | Current value for overall tracked memory usage on task 0  :           0.142 MB
  | Peak value for overall tracked memory usage on task 0     :           0.695 MB after allocating wave
  | Largest tracked array allocation on task 0 so far         :           0.301 MB  when allocating gradient_basis_wave
  Note:  These values currently only include a subset of arrays which are explicitly tracked.
  The "true" memory usage will be greater.
------------------------------------------------------------

------------------------------------------------------------
          Begin self-consistency iteration #    6

  Date     :  20190508, Time     :  152728.012
------------------------------------------------------------
  Evaluating new KS density.
  Integration grid: deviation in total charge (<rho> - N_e) =  -2.486900E-14
  | <rho_up-rho_dn> = N_up-N_dn =      2.0000; <|rho_up-rho_dn|> =      2.0379
  Pulay mixing of updated and previous charge densities.

  Evaluating partitioned Hartree potential by multipole expansion.
  | Analytical far-field extrapolation by fixed multipoles:
  | Hartree multipole sum: apparent total charge =  -0.609559E-06
  Summing up the Hartree potential.
  Time summed over all CPUs for potential: real work        0.030 s, elapsed        0.030 s
  | RMS charge density error from multipole expansion :   0.252930E-02

  Integrating Hamiltonian matrix: batch-based integration.
  Time summed over all CPUs for integration: real work        0.267 s, elapsed        0.267 s

  Updating Kohn-Sham eigenvalues, eigenvectors, occupation numbers, and Fermi level.
  Solving generalized eigenproblem
  Updating Kohn-Sham eigenvalues and eigenfunctions.
  Solving real generalised eigenvalue problem by standard LAPACK (fast)
  Updating Kohn-Sham eigenvalues and eigenfunctions.
  Solving real generalised eigenvalue problem by standard LAPACK (fast)

  Obtaining occupation numbers and chemical potential using ELSI.
  | Chemical potential (Fermi level):    -4.29665960eV
  Current spin moment of the entire structure :
  | N = N_up - N_down :    2.00
  | S                 :    1.00
  | J                 :    3.00

  Highest occupied state (VBM) at     -5.67321449 eV
  | Occupation number:      1.00000000
  | Spin channel:        1

  Lowest unoccupied state (CBM) at    -3.35783320 eV
  | Occupation number:      0.00000000
  | Spin channel:        2

  Overall HOMO-LUMO gap:      2.31538129 eV.

  Total energy components:
  | Sum of eigenvalues            :         -82.78288836 Ha       -2252.63700510 eV
  | XC energy correction          :         -17.00885302 Ha        -462.83443949 eV
  | XC potential correction       :          21.87481452 Ha         595.24398866 eV
  | Free-atom electrostatic energy:         -71.38136793 Ha       -1942.38584886 eV
  | Hartree energy correction     :          -0.93603219 Ha         -25.47073191 eV
  | Entropy correction            :          -0.00000000 Ha          -0.00000000 eV
  | ---------------------------
  | Total energy                  :        -150.23432699 Ha       -4088.08403670 eV
  | Total energy, T -> 0          :        -150.23432699 Ha       -4088.08403670 eV  <-- do not rely on this value for anything but (periodic) metals
  | Electronic free energy        :        -150.23432699 Ha       -4088.08403670 eV

  Derived energy quantities:
  | Kinetic energy                :         150.48642191 Ha        4094.94388874 eV
  | Electrostatic energy          :        -283.71189588 Ha       -7720.19348595 eV
  | Energy correction for multipole
  | error in Hartree potential    :          -0.00186952 Ha          -0.05087231 eV
  | Sum of eigenvalues per atom                           :       -1126.31850255 eV
  | Total energy (T->0) per atom                          :       -2044.04201835 eV  <-- do not rely on this value for anything but (periodic) metals
  | Electronic free energy per atom                       :       -2044.04201835 eV

  Self-consistency convergence accuracy:
  | Change of charge/spin density :  0.4396E-01  0.1227E-01
  | Change of sum of eigenvalues  : -0.6765E+01 eV
  | Change of total energy        :  0.2821E-01 eV

  End self-consistency iteration #     6       :  max(cpu_time)    wall_clock(cpu1)
  | Time for this iteration                    :        0.476 s           0.476 s
  | Charge density update                      :        0.165 s           0.165 s
  | Density mixing                             :        0.008 s           0.008 s
  | Hartree multipole update                   :        0.003 s           0.003 s
  | Hartree multipole summation                :        0.030 s           0.030 s
  | Integration                                :        0.267 s           0.267 s
  | Solution of K.-S. eqns.                    :        0.003 s           0.003 s
  | Total energy evaluation                    :        0.000 s           0.000 s

  Partial memory accounting:
  | Current value for overall tracked memory usage on task 0  :           0.143 MB
  | Peak value for overall tracked memory usage on task 0     :           0.696 MB after allocating wave
  | Largest tracked array allocation on task 0 so far         :           0.301 MB  when allocating gradient_basis_wave
  Note:  These values currently only include a subset of arrays which are explicitly tracked.
  The "true" memory usage will be greater.
------------------------------------------------------------

------------------------------------------------------------
          Begin self-consistency iteration #    7

  Date     :  20190508, Time     :  152728.488
------------------------------------------------------------
  Evaluating new KS density.
  Integration grid: deviation in total charge (<rho> - N_e) =  -1.190159E-13
  | <rho_up-rho_dn> = N_up-N_dn =      2.0000; <|rho_up-rho_dn|> =      2.0379
  Pulay mixing of updated and previous charge densities.

  Evaluating partitioned Hartree potential by multipole expansion.
  | Analytical far-field extrapolation by fixed multipoles:
  | Hartree multipole sum: apparent total charge =  -0.615503E-06
  Summing up the Hartree potential.
  Time summed over all CPUs for potential: real work        0.030 s, elapsed        0.030 s
  | RMS charge density error from multipole expansion :   0.251737E-02

  Integrating Hamiltonian matrix: batch-based integration.
  Time summed over all CPUs for integration: real work        0.268 s, elapsed        0.268 s

  Updating Kohn-Sham eigenvalues, eigenvectors, occupation numbers, and Fermi level.
  Solving generalized eigenproblem
  Updating Kohn-Sham eigenvalues and eigenfunctions.
  Solving real generalised eigenvalue problem by standard LAPACK (fast)
  Updating Kohn-Sham eigenvalues and eigenfunctions.
  Solving real generalised eigenvalue problem by standard LAPACK (fast)

  Obtaining occupation numbers and chemical potential using ELSI.
  | Chemical potential (Fermi level):    -4.30920200eV
  Current spin moment of the entire structure :
  | N = N_up - N_down :    2.00
  | S                 :    1.00
  | J                 :    3.00

  Highest occupied state (VBM) at     -5.74539475 eV
  | Occupation number:      1.00000000
  | Spin channel:        1

  Lowest unoccupied state (CBM) at    -3.42641519 eV
  | Occupation number:      0.00000000
  | Spin channel:        2

  Overall HOMO-LUMO gap:      2.31897957 eV.

  Total energy components:
  | Sum of eigenvalues            :         -82.84237723 Ha       -2254.25577960 eV
  | XC energy correction          :         -17.00163482 Ha        -462.63802226 eV
  | XC potential correction       :          21.86539156 Ha         594.98757710 eV
  | Free-atom electrostatic energy:         -71.38136793 Ha       -1942.38584886 eV
  | Hartree energy correction     :          -0.87425069 Ha         -23.78957168 eV
  | Entropy correction            :          -0.00000000 Ha          -0.00000000 eV
  | ---------------------------
  | Total energy                  :        -150.23423910 Ha       -4088.08164530 eV
  | Total energy, T -> 0          :        -150.23423910 Ha       -4088.08164530 eV  <-- do not rely on this value for anything but (periodic) metals
  | Electronic free energy        :        -150.23423910 Ha       -4088.08164530 eV

  Derived energy quantities:
  | Kinetic energy                :         150.42480501 Ha        4093.26720748 eV
  | Electrostatic energy          :        -283.65740929 Ha       -7718.71083052 eV
  | Energy correction for multipole
  | error in Hartree potential    :          -0.00188233 Ha          -0.05122081 eV
  | Sum of eigenvalues per atom                           :       -1127.12788980 eV
  | Total energy (T->0) per atom                          :       -2044.04082265 eV  <-- do not rely on this value for anything but (periodic) metals
  | Electronic free energy per atom                       :       -2044.04082265 eV

  Self-consistency convergence accuracy:
  | Change of charge/spin density :  0.1388E-01  0.3485E-02
  | Change of sum of eigenvalues  : -0.1619E+01 eV
  | Change of total energy        :  0.2391E-02 eV

  End self-consistency iteration #     7       :  max(cpu_time)    wall_clock(cpu1)
  | Time for this iteration                    :        0.477 s           0.477 s
  | Charge density update                      :        0.164 s           0.164 s
  | Density mixing                             :        0.009 s           0.009 s
  | Hartree multipole update                   :        0.002 s           0.003 s
  | Hartree multipole summation                :        0.030 s           0.030 s
  | Integration                                :        0.268 s           0.268 s
  | Solution of K.-S. eqns.                    :        0.003 s           0.003 s
  | Total energy evaluation                    :        0.000 s           0.000 s

  Partial memory accounting:
  | Current value for overall tracked memory usage on task 0  :           0.143 MB
  | Peak value for overall tracked memory usage on task 0     :           0.696 MB after allocating wave
  | Largest tracked array allocation on task 0 so far         :           0.301 MB  when allocating gradient_basis_wave
  Note:  These values currently only include a subset of arrays which are explicitly tracked.
  The "true" memory usage will be greater.
------------------------------------------------------------

------------------------------------------------------------
          Begin self-consistency iteration #    8

  Date     :  20190508, Time     :  152728.965
------------------------------------------------------------
  Evaluating new KS density.
  Integration grid: deviation in total charge (<rho> - N_e) =   7.105427E-15
  | <rho_up-rho_dn> = N_up-N_dn =      2.0000; <|rho_up-rho_dn|> =      2.0378
  Pulay mixing of updated and previous charge densities.

  Evaluating partitioned Hartree potential by multipole expansion.
  | Analytical far-field extrapolation by fixed multipoles:
  | Hartree multipole sum: apparent total charge =  -0.617599E-06
  Summing up the Hartree potential.
  Time summed over all CPUs for potential: real work        0.030 s, elapsed        0.030 s
  | RMS charge density error from multipole expansion :   0.251498E-02

  Integrating Hamiltonian matrix: batch-based integration.
  Time summed over all CPUs for integration: real work        0.310 s, elapsed        0.310 s

  Updating Kohn-Sham eigenvalues, eigenvectors, occupation numbers, and Fermi level.
  Solving generalized eigenproblem
  Updating Kohn-Sham eigenvalues and eigenfunctions.
  Solving real generalised eigenvalue problem by standard LAPACK (fast)
  Updating Kohn-Sham eigenvalues and eigenfunctions.
  Solving real generalised eigenvalue problem by standard LAPACK (fast)

  Obtaining occupation numbers and chemical potential using ELSI.
  | Chemical potential (Fermi level):    -4.31350150eV
  Current spin moment of the entire structure :
  | N = N_up - N_down :    2.00
  | S                 :    1.00
  | J                 :    3.00

  Highest occupied state (VBM) at     -5.76706897 eV
  | Occupation number:      1.00000000
  | Spin channel:        1

  Lowest unoccupied state (CBM) at    -3.44744567 eV
  | Occupation number:      0.00000000
  | Spin channel:        2

  Overall HOMO-LUMO gap:      2.31962329 eV.

  Total energy components:
  | Sum of eigenvalues            :         -82.86054933 Ha       -2254.75026767 eV
  | XC energy correction          :         -16.99941662 Ha        -462.57766180 eV
  | XC potential correction       :          21.86249805 Ha         594.90884066 eV
  | Free-atom electrostatic energy:         -71.38136793 Ha       -1942.38584886 eV
  | Hartree energy correction     :          -0.85539068 Ha         -23.27636479 eV
  | Entropy correction            :          -0.00000000 Ha          -0.00000000 eV
  | ---------------------------
  | Total energy                  :        -150.23422650 Ha       -4088.08130246 eV
  | Total energy, T -> 0          :        -150.23422650 Ha       -4088.08130246 eV  <-- do not rely on this value for anything but (periodic) metals
  | Electronic free energy        :        -150.23422650 Ha       -4088.08130246 eV

  Derived energy quantities:
  | Kinetic energy                :         150.40555242 Ha        4092.74331773 eV
  | Electrostatic energy          :        -283.64036230 Ha       -7718.24695839 eV
  | Energy correction for multipole
  | error in Hartree potential    :          -0.00188659 Ha          -0.05133662 eV
  | Sum of eigenvalues per atom                           :       -1127.37513384 eV
  | Total energy (T->0) per atom                          :       -2044.04065123 eV  <-- do not rely on this value for anything but (periodic) metals
  | Electronic free energy per atom                       :       -2044.04065123 eV

  Self-consistency convergence accuracy:
  | Change of charge/spin density :  0.5787E-02  0.1377E-02
  | Change of sum of eigenvalues  : -0.4945E+00 eV
  | Change of total energy        :  0.3428E-03 eV

  End self-consistency iteration #     8       :  max(cpu_time)    wall_clock(cpu1)
  | Time for this iteration                    :        0.522 s           0.522 s
  | Charge density update                      :        0.165 s           0.165 s
  | Density mixing                             :        0.011 s           0.011 s
  | Hartree multipole update                   :        0.003 s           0.003 s
  | Hartree multipole summation                :        0.030 s           0.030 s
  | Integration                                :        0.310 s           0.310 s
  | Solution of K.-S. eqns.                    :        0.003 s           0.003 s
  | Total energy evaluation                    :        0.000 s           0.000 s

  Partial memory accounting:
  | Current value for overall tracked memory usage on task 0  :           0.143 MB
  | Peak value for overall tracked memory usage on task 0     :           0.696 MB after allocating wave
  | Largest tracked array allocation on task 0 so far         :           0.301 MB  when allocating gradient_basis_wave
  Note:  These values currently only include a subset of arrays which are explicitly tracked.
  The "true" memory usage will be greater.
------------------------------------------------------------

------------------------------------------------------------
          Begin self-consistency iteration #    9

  Date     :  20190508, Time     :  152729.487
------------------------------------------------------------
  Evaluating new KS density.
  Integration grid: deviation in total charge (<rho> - N_e) =  -1.101341E-13
  | <rho_up-rho_dn> = N_up-N_dn =      2.0000; <|rho_up-rho_dn|> =      2.0378
  Pulay mixing of updated and previous charge densities.

  Evaluating partitioned Hartree potential by multipole expansion.
  | Analytical far-field extrapolation by fixed multipoles:
  | Hartree multipole sum: apparent total charge =  -0.618518E-06
  Summing up the Hartree potential.
  Time summed over all CPUs for potential: real work        0.030 s, elapsed        0.030 s
  | RMS charge density error from multipole expansion :   0.251004E-02

  Integrating Hamiltonian matrix: batch-based integration.
  Time summed over all CPUs for integration: real work        0.265 s, elapsed        0.265 s

  Updating Kohn-Sham eigenvalues, eigenvectors, occupation numbers, and Fermi level.
  Solving generalized eigenproblem
  Updating Kohn-Sham eigenvalues and eigenfunctions.
  Solving real generalised eigenvalue problem by standard LAPACK (fast)
  Updating Kohn-Sham eigenvalues and eigenfunctions.
  Solving real generalised eigenvalue problem by standard LAPACK (fast)

  Obtaining occupation numbers and chemical potential using ELSI.
  | Chemical potential (Fermi level):    -4.32091416eV
  Current spin moment of the entire structure :
  | N = N_up - N_down :    2.00
  | S                 :    1.00
  | J                 :    3.00

  Highest occupied state (VBM) at     -5.80392241 eV
  | Occupation number:      1.00000000
  | Spin channel:        1

  Lowest unoccupied state (CBM) at    -3.48240556 eV
  | Occupation number:      0.00000000
  | Spin channel:        2

  Overall HOMO-LUMO gap:      2.32151685 eV.

  Total energy components:
  | Sum of eigenvalues            :         -82.88947670 Ha       -2255.53742139 eV
  | XC energy correction          :         -16.99597456 Ha        -462.48399874 eV
  | XC potential correction       :          21.85799552 Ha         594.78632046 eV
  | Free-atom electrostatic energy:         -71.38136793 Ha       -1942.38584886 eV
  | Hartree energy correction     :          -0.82539669 Ha         -22.46018671 eV
  | Entropy correction            :          -0.00000000 Ha          -0.00000000 eV
  | ---------------------------
  | Total energy                  :        -150.23422036 Ha       -4088.08113523 eV
  | Total energy, T -> 0          :        -150.23422036 Ha       -4088.08113523 eV  <-- do not rely on this value for anything but (periodic) metals
  | Electronic free energy        :        -150.23422036 Ha       -4088.08113523 eV

  Derived energy quantities:
  | Kinetic energy                :         150.37887859 Ha        4092.01748611 eV
  | Electrostatic energy          :        -283.61712439 Ha       -7717.61462260 eV
  | Energy correction for multipole
  | error in Hartree potential    :          -0.00188773 Ha          -0.05136769 eV
  | Sum of eigenvalues per atom                           :       -1127.76871069 eV
  | Total energy (T->0) per atom                          :       -2044.04056761 eV  <-- do not rely on this value for anything but (periodic) metals
  | Electronic free energy per atom                       :       -2044.04056761 eV

  Self-consistency convergence accuracy:
  | Change of charge/spin density :  0.3269E-02  0.7555E-03
  | Change of sum of eigenvalues  : -0.7872E+00 eV
  | Change of total energy        :  0.1672E-03 eV

  End self-consistency iteration #     9       :  max(cpu_time)    wall_clock(cpu1)
  | Time for this iteration                    :        0.473 s           0.473 s
  | Charge density update                      :        0.161 s           0.161 s
  | Density mixing                             :        0.011 s           0.011 s
  | Hartree multipole update                   :        0.002 s           0.002 s
  | Hartree multipole summation                :        0.030 s           0.030 s
  | Integration                                :        0.265 s           0.265 s
  | Solution of K.-S. eqns.                    :        0.003 s           0.003 s
  | Total energy evaluation                    :        0.000 s           0.001 s

  Partial memory accounting:
  | Current value for overall tracked memory usage on task 0  :           0.144 MB
  | Peak value for overall tracked memory usage on task 0     :           0.696 MB after allocating wave
  | Largest tracked array allocation on task 0 so far         :           0.301 MB  when allocating gradient_basis_wave
  Note:  These values currently only include a subset of arrays which are explicitly tracked.
  The "true" memory usage will be greater.
------------------------------------------------------------

------------------------------------------------------------
          Begin self-consistency iteration #   10

  Date     :  20190508, Time     :  152729.960
------------------------------------------------------------
  Evaluating new KS density.
  Integration grid: deviation in total charge (<rho> - N_e) =  -3.552714E-15
  | <rho_up-rho_dn> = N_up-N_dn =      2.0000; <|rho_up-rho_dn|> =      2.0378
  Pulay mixing of updated and previous charge densities.

  Evaluating partitioned Hartree potential by multipole expansion.
  | Analytical far-field extrapolation by fixed multipoles:
  | Hartree multipole sum: apparent total charge =  -0.618552E-06
  Summing up the Hartree potential.
  Time summed over all CPUs for potential: real work        0.027 s, elapsed        0.027 s
  | RMS charge density error from multipole expansion :   0.251027E-02

  Integrating Hamiltonian matrix: batch-based integration.
  Time summed over all CPUs for integration: real work        0.271 s, elapsed        0.271 s

  Updating Kohn-Sham eigenvalues, eigenvectors, occupation numbers, and Fermi level.
  Solving generalized eigenproblem
  Updating Kohn-Sham eigenvalues and eigenfunctions.
  Solving real generalised eigenvalue problem by standard LAPACK (fast)
  Updating Kohn-Sham eigenvalues and eigenfunctions.
  Solving real generalised eigenvalue problem by standard LAPACK (fast)

  Obtaining occupation numbers and chemical potential using ELSI.
  | Chemical potential (Fermi level):    -4.32022347eV
  Current spin moment of the entire structure :
  | N = N_up - N_down :    2.00
  | S                 :    1.00
  | J                 :    3.00

  Highest occupied state (VBM) at     -5.80087769 eV
  | Occupation number:      1.00000000
  | Spin channel:        1

  Lowest unoccupied state (CBM) at    -3.47943188 eV
  | Occupation number:      0.00000000
  | Spin channel:        2

  Overall HOMO-LUMO gap:      2.32144581 eV.

  Total energy components:
  | Sum of eigenvalues            :         -82.88714265 Ha       -2255.47390866 eV
  | XC energy correction          :         -16.99625065 Ha        -462.49151160 eV
  | XC potential correction       :          21.85835731 Ha         594.79616523 eV
  | Free-atom electrostatic energy:         -71.38136793 Ha       -1942.38584886 eV
  | Hartree energy correction     :          -0.82781636 Ha         -22.52602939 eV
  | Entropy correction            :          -0.00000000 Ha          -0.00000000 eV
  | ---------------------------
  | Total energy                  :        -150.23422029 Ha       -4088.08113328 eV
  | Total energy, T -> 0          :        -150.23422029 Ha       -4088.08113328 eV  <-- do not rely on this value for anything but (periodic) metals
  | Electronic free energy        :        -150.23422029 Ha       -4088.08113328 eV

  Derived energy quantities:
  | Kinetic energy                :         150.38081710 Ha        4092.07023547 eV
  | Electrostatic energy          :        -283.61878673 Ha       -7717.65985715 eV
  | Energy correction for multipole
  | error in Hartree potential    :          -0.00188801 Ha          -0.05137526 eV
  | Sum of eigenvalues per atom                           :       -1127.73695433 eV
[...]
  | Change of charge/spin density :  0.4934E-05  0.2301E-05
  | Change of sum of eigenvalues  :  0.1039E-02 eV
  | Change of total energy        :  0.3848E-08 eV

  End self-consistency iteration #    11       :  max(cpu_time)    wall_clock(cpu1)
  | Time for this iteration                    :        0.458 s           0.458 s
  | Charge density update                      :        0.167 s           0.167 s
  | Density mixing                             :        0.011 s           0.010 s
  | Hartree multipole update                   :        0.003 s           0.003 s
  | Hartree multipole summation                :        0.030 s           0.030 s
  | Integration                                :        0.245 s           0.245 s
  | Solution of K.-S. eqns.                    :        0.003 s           0.003 s
  | Total energy evaluation                    :        0.000 s           0.000 s

  Partial memory accounting:
  | Current value for overall tracked memory usage on task 0  :           0.144 MB
  | Peak value for overall tracked memory usage on task 0     :           0.696 MB after allocating wave
  | Largest tracked array allocation on task 0 so far         :           0.301 MB  when allocating gradient_basis_wave
  Note:  These values currently only include a subset of arrays which are explicitly tracked.
  The "true" memory usage will be greater.
------------------------------------------------------------

------------------------------------------------------------
          Begin self-consistency iteration #   12

  Date     :  20190508, Time     :  152730.888
------------------------------------------------------------
  Evaluating new KS density.
  Integration grid: deviation in total charge (<rho> - N_e) =   1.421085E-14
  | <rho_up-rho_dn> = N_up-N_dn =      2.0000; <|rho_up-rho_dn|> =      2.0378
  Pulay mixing of updated and previous charge densities.

  Evaluating partitioned Hartree potential by multipole expansion.
  | Analytical far-field extrapolation by fixed multipoles:
  | Hartree multipole sum: apparent total charge =  -0.618569E-06
  Summing up the Hartree potential.
  Time summed over all CPUs for potential: real work        0.031 s, elapsed        0.031 s
  | RMS charge density error from multipole expansion :   0.251029E-02

  Integrating Hamiltonian matrix: batch-based integration.
  Time summed over all CPUs for integration: real work        0.255 s, elapsed        0.255 s

  Updating Kohn-Sham eigenvalues, eigenvectors, occupation numbers, and Fermi level.
  Solving generalized eigenproblem
  Updating Kohn-Sham eigenvalues and eigenfunctions.
  Solving real generalised eigenvalue problem by standard LAPACK (fast)
  Updating Kohn-Sham eigenvalues and eigenfunctions.
  Solving real generalised eigenvalue problem by standard LAPACK (fast)

  Obtaining occupation numbers and chemical potential using ELSI.
  | Chemical potential (Fermi level):    -4.32019961eV
  Current spin moment of the entire structure :
  | N = N_up - N_down :    2.00
  | S                 :    1.00
  | J                 :    3.00

  Highest occupied state (VBM) at     -5.80078371 eV
  | Occupation number:      1.00000000
  | Spin channel:        1

  Lowest unoccupied state (CBM) at    -3.47934337 eV
  | Occupation number:      0.00000000
  | Spin channel:        2

  Overall HOMO-LUMO gap:      2.32144034 eV.

  Total energy components:
  | Sum of eigenvalues            :         -82.88708145 Ha       -2255.47224349 eV
  | XC energy correction          :         -16.99625796 Ha        -462.49171028 eV
  | XC potential correction       :          21.85836690 Ha         594.79642633 eV
  | Free-atom electrostatic energy:         -71.38136793 Ha       -1942.38584886 eV
  | Hartree energy correction     :          -0.82787985 Ha         -22.52775698 eV
  | Entropy correction            :          -0.00000000 Ha          -0.00000000 eV
  | ---------------------------
  | Total energy                  :        -150.23422029 Ha       -4088.08113328 eV
  | Total energy, T -> 0          :        -150.23422029 Ha       -4088.08113328 eV  <-- do not rely on this value for anything but (periodic) metals
  | Electronic free energy        :        -150.23422029 Ha       -4088.08113328 eV

  Derived energy quantities:
  | Kinetic energy                :         150.38084646 Ha        4092.07103453 eV
  | Electrostatic energy          :        -283.61880879 Ha       -7717.66045753 eV
  | Energy correction for multipole
  | error in Hartree potential    :          -0.00188804 Ha          -0.05137607 eV
  | Sum of eigenvalues per atom                           :       -1127.73612175 eV
  | Total energy (T->0) per atom                          :       -2044.04056664 eV  <-- do not rely on this value for anything but (periodic) metals
  | Electronic free energy per atom                       :       -2044.04056664 eV

  Self-consistency convergence accuracy:
  | Change of charge/spin density :  0.1602E-05  0.1328E-05
  | Change of sum of eigenvalues  :  0.6265E-03 eV
  | Change of total energy        : -0.1310E-08 eV

  End self-consistency iteration #    12       :  max(cpu_time)    wall_clock(cpu1)
  | Time for this iteration                    :        0.467 s           0.468 s
  | Charge density update                      :        0.165 s           0.165 s
  | Density mixing                             :        0.011 s           0.011 s
  | Hartree multipole update                   :        0.003 s           0.003 s
  | Hartree multipole summation                :        0.031 s           0.031 s
  | Integration                                :        0.255 s           0.255 s
  | Solution of K.-S. eqns.                    :        0.003 s           0.002 s
  | Total energy evaluation                    :        0.000 s           0.000 s

  Partial memory accounting:
  | Current value for overall tracked memory usage on task 0  :           0.144 MB
  | Peak value for overall tracked memory usage on task 0     :           0.696 MB after allocating wave
  | Largest tracked array allocation on task 0 so far         :           0.301 MB  when allocating gradient_basis_wave
  Note:  These values currently only include a subset of arrays which are explicitly tracked.
  The "true" memory usage will be greater.
------------------------------------------------------------

------------------------------------------------------------
          Begin self-consistency iteration #   13

  Date     :  20190508, Time     :  152731.356
------------------------------------------------------------
  Evaluating new KS density.
  Integration grid: deviation in total charge (<rho> - N_e) =  -6.039613E-14
  | <rho_up-rho_dn> = N_up-N_dn =      2.0000; <|rho_up-rho_dn|> =      2.0378
  Pulay mixing of updated and previous charge densities.

  Evaluating partitioned Hartree potential by multipole expansion.
  | Analytical far-field extrapolation by fixed multipoles:
  | Hartree multipole sum: apparent total charge =  -0.618569E-06
  Summing up the Hartree potential.
  Time summed over all CPUs for potential: real work        0.027 s, elapsed        0.027 s
  | RMS charge density error from multipole expansion :   0.251029E-02

  Integrating Hamiltonian matrix: batch-based integration.
  Time summed over all CPUs for integration: real work        0.266 s, elapsed        0.266 s

  Updating Kohn-Sham eigenvalues, eigenvectors, occupation numbers, and Fermi level.
  Solving generalized eigenproblem
  Updating Kohn-Sham eigenvalues and eigenfunctions.
  Solving real generalised eigenvalue problem by standard LAPACK (fast)
  Updating Kohn-Sham eigenvalues and eigenfunctions.
  Solving real generalised eigenvalue problem by standard LAPACK (fast)

  Obtaining occupation numbers and chemical potential using ELSI.
  | Chemical potential (Fermi level):    -4.32020007eV
  Current spin moment of the entire structure :
  | N = N_up - N_down :    2.00
  | S                 :    1.00
  | J                 :    3.00

  Highest occupied state (VBM) at     -5.80078435 eV
  | Occupation number:      1.00000000
  | Spin channel:        1

  Lowest unoccupied state (CBM) at    -3.47934434 eV
  | Occupation number:      0.00000000
  | Spin channel:        2

  Overall HOMO-LUMO gap:      2.32144001 eV.

  Total energy components:
  | Sum of eigenvalues            :         -82.88708199 Ha       -2255.47225806 eV
  | XC energy correction          :         -16.99625790 Ha        -462.49170875 eV
  | XC potential correction       :          21.85836683 Ha         594.79642426 eV
  | Free-atom electrostatic energy:         -71.38136793 Ha       -1942.38584886 eV
  | Hartree energy correction     :          -0.82787930 Ha         -22.52774188 eV
  | Entropy correction            :          -0.00000000 Ha          -0.00000000 eV
  | ---------------------------
  | Total energy                  :        -150.23422029 Ha       -4088.08113328 eV
  | Total energy, T -> 0          :        -150.23422029 Ha       -4088.08113328 eV  <-- do not rely on this value for anything but (periodic) metals
  | Electronic free energy        :        -150.23422029 Ha       -4088.08113328 eV

  Derived energy quantities:
  | Kinetic energy                :         150.38084632 Ha        4092.07103058 eV
  | Electrostatic energy          :        -283.61880871 Ha       -7717.66045511 eV
  | Energy correction for multipole
  | error in Hartree potential    :          -0.00188804 Ha          -0.05137605 eV
  | Sum of eigenvalues per atom                           :       -1127.73612903 eV
  | Total energy (T->0) per atom                          :       -2044.04056664 eV  <-- do not rely on this value for anything but (periodic) metals
  | Electronic free energy per atom                       :       -2044.04056664 eV

  Self-consistency convergence accuracy:
  | Change of charge/spin density :  0.1254E-06  0.1243E-06
  | Change of sum of eigenvalues  : -0.1457E-04 eV
  | Change of total energy        : -0.1152E-09 eV

  Writing Kohn-Sham eigenvalues.

  Spin-up eigenvalues:

  State    Occupation    Eigenvalue [Ha]    Eigenvalue [eV]
      1       1.00000         -18.891689         -514.06901
      2       1.00000         -18.891400         -514.06115
      3       1.00000          -1.302266          -35.43647
      4       1.00000          -0.720863          -19.61569
      5       1.00000          -0.539385          -14.67742
      6       1.00000          -0.539385          -14.67742
      7       1.00000          -0.510395          -13.88855
      8       1.00000          -0.213175           -5.80078
      9       1.00000          -0.213175           -5.80078
     10       0.00000           0.093574            2.54629
     11       0.00000           0.102258            2.78258
     12       0.00000           0.126474            3.44154
     13       0.00000           0.126474            3.44154
     14       0.00000           0.208448            5.67216

  Spin-down eigenvalues:

  State    Occupation    Eigenvalue [Ha]    Eigenvalue [eV]
      1       1.00000         -18.865146         -513.34676
      2       1.00000         -18.864861         -513.33898
      3       1.00000          -1.262320          -34.34946
      4       1.00000          -0.655540          -17.83815
      5       1.00000          -0.473908          -12.89571
      6       1.00000          -0.471786          -12.83796
      7       1.00000          -0.471786          -12.83796
      8       0.00000          -0.127864           -3.47934
      9       0.00000          -0.127864           -3.47934
     10       0.00000           0.107604            2.92804
     11       0.00000           0.119162            3.24256
     12       0.00000           0.141504            3.85052
     13       0.00000           0.141504            3.85052
     14       0.00000           0.214401            5.83416

  Current spin moment of the entire structure :
  | N = N_up - N_down :    2.00
  | S                 :    1.00
  | J                 :    3.00

  Highest occupied state (VBM) at     -5.80078435 eV
  | Occupation number:      1.00000000
  | Spin channel:        1

  Lowest unoccupied state (CBM) at    -3.47934434 eV
  | Occupation number:      0.00000000
  | Spin channel:        2

  Overall HOMO-LUMO gap:      2.32144001 eV.

  Self-consistency cycle converged.

  End self-consistency iteration #    13       :  max(cpu_time)    wall_clock(cpu1)
  | Time for this iteration                    :        0.454 s           0.454 s
  | Charge density update                      :        0.146 s           0.146 s
  | Density mixing                             :        0.009 s           0.009 s
  | Hartree multipole update                   :        0.002 s           0.003 s
  | Hartree multipole summation                :        0.027 s           0.027 s
  | Integration                                :        0.266 s           0.266 s
  | Solution of K.-S. eqns.                    :        0.003 s           0.003 s
  | Total energy evaluation                    :        0.000 s           0.000 s

  Partial memory accounting:
  | Current value for overall tracked memory usage on task 0  :           0.144 MB
  | Peak value for overall tracked memory usage on task 0     :           0.696 MB after allocating wave
  | Largest tracked array allocation on task 0 so far         :           0.301 MB  when allocating gradient_basis_wave
  Note:  These values currently only include a subset of arrays which are explicitly tracked.
  The "true" memory usage will be greater.
------------------------------------------------------------
  ------------------------------------------------------------
   Computing monopole / dipole moments for complete molecule:
  | Total electronic charge [e]         :          0.160000000000000E+02
  | Total ionic charge [e]              :          0.160000000000000E+02
  | Total charge [e]                    :          0.248689957516035E-13
  | Total dipole moment [eAng]          :          0.340009131183290E-14         0.493554623234441E-14        -0.188001511247648E-13
  | Absolute dipole moment              :          0.197323571793744E-13 eAng              /                   0.947637796613620E-13 Debye  .

  Energy and forces in a compact form:
  | Total energy uncorrected      :         -0.408808113327776E+04 eV
  | Total energy corrected        :         -0.408808113327776E+04 eV  <-- do not rely on this value for anything but (periodic) metals
  | Electronic free energy        :         -0.408808113327776E+04 eV

  ------------------------------------ 
  Start decomposition of the XC Energy 
  ------------------------------------ 
  X and C from original XC functional choice 
  Hartree-Fock Energy :          0.000000000 Ha              0.000000000 eV
  X Energy            :        -16.460157712 Ha           -447.903680430 eV
  C Energy            :         -0.536100187 Ha            -14.588028317 eV
  Total XC Energy     :        -16.996257899 Ha           -462.491708746 eV
  ------------------------------------ 
  LDA X and C from self-consistent density 
  X Energy LDA        :        -14.964298071 Ha           -407.199268580 eV
  C Energy LDA        :         -1.108973382 Ha            -30.176701100 eV
  ------------------------------------ 
  End decomposition of the XC Energy 
  ------------------------------------ 

------------------------------------------------------------

------------------------------------------------------------------------------
  Final output of selected total energy values:

  The following output summarizes some interesting total energy values
  at the end of a run (AFTER all relaxation, molecular dynamics, etc.).

  | Total energy of the DFT / Hartree-Fock s.c.f. calculation      :          -4088.081133278 eV
  | Final zero-broadening corrected energy (caution - metals only) :          -4088.081133278 eV
  | For reference only, the value of 1 Hartree used in FHI-aims is :             27.211384500 eV

  Before relying on these values, please be sure to understand exactly which
  total energy value is referred to by a given number. Different objects may
  all carry the same name 'total energy'. Definitions:

  Total energy of the DFT / Hartree-Fock s.c.f. calculation:
  | Note that this energy does not include ANY quantities calculated after the
  | s.c.f. cycle, in particular not ANY RPA, MP2, etc. many-body perturbation terms.

  Final zero-broadening corrected energy:
  | For metallic systems only, a broadening of the occupation numbers at the Fermi
  | level can be extrapolated back to zero broadening by an electron-gas inspired
  | formula. For all systems that are not real metals, this value can be
  | meaningless and should be avoided.

------------------------------------------------------------------------------
  Methods described in the following list of references were used in this FHI-aims run.
  If you publish the results, please make sure to cite these reference if they apply.
  FHI-aims is an academic code, and for our developers (often, Ph.D. students
  and postdocs), scientific credit in the community is essential.
  Thank you for helping us!

  For any use of FHI-aims, please cite:

    Volker Blum, Ralf Gehrke, Felix Hanke, Paula Havu, Ville Havu,
    Xinguo Ren, Karsten Reuter, and Matthias Scheffler
    'Ab initio molecular simulations with numeric atom-centered orbitals'
    Computer Physics Communications 180, 2175-2196 (2009)
    http://dx.doi.org/10.1016/j.cpc.2009.06.022


  For the real-space grid partitioning and parallelization used in this calculation, please cite:

    Ville Havu, Volker Blum, Paula Havu, and Matthias Scheffler,
    'Efficient O(N) integration for all-electron electronic structure calculation'
    'using numerically tabulated basis functions'
    Journal of Computational Physics 228, 8367-8379 (2009).
    http://dx.doi.org/10.1016/j.jcp.2009.08.008

  Of course, there are many other important community references, e.g., those cited in the
  above references. Our list is limited to references that describe implementations in the
  FHI-aims code. The reason is purely practical (length of this list) - please credit others as well.

------------------------------------------------------------
          Leaving FHI-aims.
          Date     :  20190508, Time     :  152731.872

          Computational steps:
          | Number of self-consistency cycles          :           13
          | Number of SCF (re)initializations          :            1

          Detailed time accounting                     :  max(cpu_time)    wall_clock(cpu1)
          | Total time                                 :        6.848 s           6.848 s
          | Preparation time                           :        0.116 s           0.116 s
          | Boundary condition initalization           :        0.000 s           0.000 s
          | Grid partitioning                          :        0.032 s           0.032 s
          | Preloading free-atom quantities on grid    :        0.003 s           0.003 s
          | Free-atom superposition energy             :        0.038 s           0.038 s
          | Total time for integrations                :        3.829 s           3.829 s
          | Total time for solution of K.-S. equations :        0.043 s           0.044 s
          | Total time for density update              :        2.151 s           2.152 s
          | Total time for mixing                      :        0.116 s           0.114 s
          | Total time for Hartree multipole update    :        0.032 s           0.036 s
          | Total time for Hartree multipole sum       :        0.399 s           0.397 s
          | Total time for total energy evaluation     :        0.001 s           0.001 s

 This is a stub MPI_ALLREDUCE call.
 You should not be here. Check your
 setting on the use_mpi variable, or
 link against true MPI-libraries.
