------------------------------------------------------------
          Invoking FHI-aims ...
          Version 171221_1
          Compiled on 2019/05/06 at 14:26:40 on host ffph0xx.

          When using FHI-aims, please cite the following reference:

          Volker Blum, Ralf Gehrke, Felix Hanke, Paula Havu,
          Ville Havu, Xinguo Ren, Karsten Reuter, and Matthias Scheffler,
          'Ab Initio Molecular Simulations with Numeric Atom-Centered Orbitals',
          Computer Physics Communications 180, 2175-2196 (2009)

          For any questions about FHI-aims, please visit the aimsclub website
          with its forums and wiki. Contributions to both the forums and the
          wiki are warmly encouraged - they are for you, and everyone is welcome there.

------------------------------------------------------------



  Date     :  20190514, Time     :  123648.729
  Time zero on CPU 1             :   0.656000000000000E-03  s.
  Internal wall clock time zero  :           327069408.729  s.

  FHI-aims created a unique identifier for this run for later identification
  aims_uuid : E7182EB5-B513-4688-A04E-0AEEB405F574


  Performing system and environment tests:
  *** Environment variable OMP_NUM_THREADS is not set
  *** For performance reasons you might want to set it to 1
  | Stacksize not measured: no C compiler

  Obtaining array dimensions for all initial allocations:
  
  -----------------------------------------------------------------------
  Parsing control.in (first pass over file, find array dimensions only).
  The contents of control.in will be repeated verbatim below
  unless switched off by setting 'verbatim_writeout .false.' .
  in the first line of control.in .
  -----------------------------------------------------------------------
  
  #--- method ---
  xc pw-lda
  spin none
  relativistic atomic_zora scalar
  #---
  
  #--- k-grid settings ---
  k_grid 12 12 12
  #---
  
  
  
  
  
  
  
  
  
  
  
  #-------------------------------------------------------------------------------
  #--- Species defaults for Si
  #-------------------------------------------------------------------------------
  
  ################################################################################
  #
  #  FHI-aims code project
  #  VB, Fritz-Haber Institut, 2009
  #
  #  Suggested "light" defaults for Si atom (to be pasted into control.in file)
  #  Be sure to double-check any results obtained with these settings for post-processing,
  #  e.g., with the "tight" defaults and larger basis sets.
  #
  ################################################################################
    species        Si
  #     global species definitions
      nucleus             14
      mass                28.0855
  #
      l_hartree           4
  #
      cut_pot             3.5          1.5  1.0
      basis_dep_cutoff    1e-4
  #
      radial_base         42 5.0
      radial_multiplier   1
      angular_grids       specified
        division   0.5866   50
        division   0.9616  110
        division   1.2249  194
        division   1.3795  302
  #      division   1.4810  434
  #      division   1.5529  590
  #      division   1.6284  770
  #      division   1.7077  974
  #      division   2.4068 1202
  #      outer_grid   974
        outer_grid 302
  ################################################################################
  #
  #  Definition of "minimal" basis
  #
  ################################################################################
  #     valence basis states
      valence      3  s   2.
      valence      3  p   2.
  #     ion occupancy
      ion_occ      3  s   1.
      ion_occ      3  p   1.
  ################################################################################
  #
  #  Suggested additional basis functions. For production calculations,
  #  uncomment them one after another (the most important basis functions are
  #  listed first).
  #
  #  Constructed for dimers: 1.75 A, 2.0 A, 2.25 A, 2.75 A, 3.75 A
  #
  ################################################################################
  #  "First tier" - improvements: -571.96 meV to -37.03 meV
       hydro 3 d 4.2
       hydro 2 p 1.4
  #     hydro 4 f 6.2
       ionic 3 s auto
  #  "Second tier" - improvements: -16.76 meV to -3.03 meV
  #     hydro 3 d 9
  #     hydro 5 g 9.4
  #     hydro 4 p 4
  #     hydro 1 s 0.65
  #  "Third tier" - improvements: -3.89 meV to -0.60 meV
  #     ionic 3 d auto
  #     hydro 3 s 2.6
  #     hydro 4 f 8.4
  #     hydro 3 d 3.4
  #     hydro 3 p 7.8
  #  "Fourth tier" - improvements: -0.33 meV to -0.11 meV
  #     hydro 2 p 1.6
  #     hydro 5 g 10.8
  #     hydro 5 f 11.2
  #     hydro 3 d 1
  #     hydro 4 s 4.5
  #  Further basis functions that fell out of the optimization - noise
  #  level... < -0.08 meV
  #     hydro 4 d 6.6
  #     hydro 5 g 16.4
  #     hydro 4 d 9
  
  -----------------------------------------------------------------------
  Completed first pass over input file control.in .
  -----------------------------------------------------------------------
  
  
  -----------------------------------------------------------------------
  Parsing geometry.in (first pass over file, find array dimensions only).
  The contents of geometry.in will be repeated verbatim below
  unless switched off by setting 'verbatim_writeout .false.' .
  in the first line of geometry.in .
  -----------------------------------------------------------------------
  
  lattice_vector   0.000000   3.050000   3.050000
  lattice_vector   3.050000   0.000000   3.050000
  lattice_vector   3.050000   3.050000   0.000000
  atom_frac   0.000000   0.000000   0.000000 Si
  
  -----------------------------------------------------------------------
  Completed first pass over input file geometry.in .
  -----------------------------------------------------------------------
  

  Basic array size parameters:
  | Number of species                 :        1
  | Number of atoms                   :        1
  | Number of lattice vectors         :        3
  | Max. basis fn. angular momentum   :        2
  | Max. atomic/ionic basis occupied n:        3
  | Max. number of basis fn. types    :        3
  | Max. radial fns per species/type  :        5
  | Max. logarithmic grid size        :     1346
  | Max. radial integration grid size :       42
  | Max. angular integration grid size:      302
  | Max. angular grid division number :        8
  | Radial grid for Hartree potential :     1346
  | Number of spin channels           :        1

------------------------------------------------------------
          Reading file control.in.
------------------------------------------------------------
  XC: Using Perdew-Wang parametrisation of Ceperley-Alder LDA.
  Spin treatment: No spin polarisation.
  Scalar relativistic treatment of kinetic energy: on-site free-atom approximation to ZORA.
  Found k-point grid:        12        12        12

  Reading configuration options for species Si                  .
  | Found nuclear charge :  14.0000
  | Found atomic mass :    28.085500000000000      amu
  | Found l_max for Hartree potential  :   4
  | Found cutoff potl. onset [A], width [A], scale factor :    3.50000    1.50000    1.00000
  | Threshold for basis-dependent cutoff potential is   0.100000E-03
  | Found data for basic radial integration grid :    42 points, outermost radius =    5.000 A
  | Found multiplier for basic radial grid :   1
  | Found angular grid specification: user-specified.
  | Specified grid contains     5 separate shells.
  | Check grid settings after all constraints further below.
  | Found free-atom valence shell :  3 s   2.000
  | Found free-atom valence shell :  3 p   2.000
  | Found free-ion valence shell :  3 s   1.000
  | Found free-ion valence shell :  3 p   1.000
  | Found hydrogenic basis function :  3 d   4.200
  | Found hydrogenic basis function :  2 p   1.400
  | Found ionic basis function :  3 s , default cutoff radius.
  Species Si                  : Missing cutoff potential type.
  Defaulting to exp(1/x)/(1-x)^2 type cutoff potential.
  Species Si: No 'logarithmic' tag. Using default grid for free atom:
  | Default logarithmic grid data [bohr] : 0.1000E-03 0.1000E+03 0.1012E+01
  | Will include ionic basis functions of  2.0-fold positive Si                   ion.
  Species Si: On-site basis accuracy parameter (for Gram-Schmidt orthonormalisation) not specified.
  Using default value basis_acc =  0.1000000E-03.
  Species Si                  : Using default innermost maximum threshold i_radial=  2 for radial functions.
  Species Si                  : Default cutoff onset for free atom density etc. : 0.35000000E+01 AA.
  Species Si                  : Basic radial grid will be enhanced according to radial_multiplier =   1, to contain    42 grid points.

  Finished reading input file 'control.in'. Consistency checks are next.

  MPI_IN_PLACE appears to work with this MPI implementation.
  | Keeping use_mpi_in_place .true. (see manual).
  Target number of points in a grid batch is not set. Defaulting to  100
  Method for grid partitioning is not set. Defaulting to 'maxmin' partitioning.
  Batch size limit is not set. Defaulting to    200
  By default, will store active basis functions for each batch.
  If in need of memory, prune_basis_once .false. can be used to disable this option.
  communication_type for Hartree potential was not specified.
  Defaulting to calc_hartree .
 * Attention: 
 * You may want to set distributed_spline_storage to .true. in order to save memory.
 * This doesn't harm performance and is perfectly ok unless:
 * - you get error messages in postprocessing (about missing atoms in get_rho_multipole_spl)
 * - you need full spline storage in hirshfeld_analysis
  Defaulting to Pulay charge density mixer.
  Pulay mixer: Number of relevant iterations not set.
  Defaulting to    8 iterations.
  Pulay mixer: Number of initial linear mixing iterations not set.
  Defaulting to    0 iterations.
  Work space size for distributed Hartree potential not set.
  Defaulting to   0.200000E+03 MB.
  Mixing parameter for charge density mixing has not been set.
  Using default: charge_mix_param =     0.0500.
  The mixing parameter will be adjusted in iteration number     2 of the first full s.c.f. cycle only.
  Algorithm-dependent basis array size parameters:
  | n_max_pulay                         :        8
 * Notice: The s.c.f. convergence criterion sc_accuracy_rho was not provided.
 * We used to stop in this case, and ask the user to provide reasonable
 * scf convergence criteria. However, this led some users to employ criteria
 * that led to extremely long run times, e.g., for simple relaxation.
 * We now preset a default value for sc_accuracy_rho if it is not set.
 * You may still wish to check if this setting is too tight or too loose for your needs.
 * Based on n_atoms, FHI-aims chose sc_accuracy_rho =  0.100000E-05 .
  Maximum number of self-consistency iterations not provided.
  Presetting  1000 iterations.
  Presetting      1001 iterations before the initial mixing cycle
  is restarted anyway using the sc_init_iter criterion / keyword.
  Presetting a factor      1.000 between actual scf density residual
  and density convergence criterion sc_accuracy_rho below which sc_init_iter
  takes no effect.
 * No s.c.f. convergence criteria (sc_accuracy_*) were provided in control.in.
 * The run will proceed with a reasonable default guess, but please check whether.
 * the s.c.f. cycles seem to take too much or too little time.
  Calculation of forces was not defined in control.in. No forces will be calculated.
  Geometry relaxation not requested: no relaxation will be performed.
  No accuracy limit for integral partition fn. given. Defaulting to  0.1000E-14.
  No threshold value for u(r) in integrations given. Defaulting to  0.1000E-05.
  No occupation type (smearing scheme) given. Defaulting to Gaussian broadening, width =  0.1000E-01 eV.
  The width will be adjusted in iteration number     2 of the first full s.c.f. cycle only.
  S.C.F. convergence parameters will be adjusted in iteration number     2 of the first full s.c.f. cycle only.
  No accuracy for occupation numbers given. Defaulting to  0.1000E-12.
  No threshold value for occupation numbers given. Defaulting to  0.0000E+00.
  No accuracy for fermi level given. Defaulting to  0.1000E-19.
  Maximum # of iterations to find E_F not set. Defaulting to  200.
  Preferred method for the eigenvalue solver ('KS_method') not specified in 'control.in'.
  Defaulting to serial version, 'lapack_fast'.
  Will not use alltoall communication since running on < 1024 CPUs.
  Threshold for basis singularities not set.
  Default threshold for basis singularities:  0.1000E-04
  partition_type (choice of integration weights) for integrals was not specified.
  | Using a version of the partition function of Stratmann and coworkers ('stratmann_smoother').
  | At each grid point, the set of atoms used to build the partition table is smoothly restricted to
  | only those atoms whose free-atom density would be non-zero at that grid point.
  Partitioning for Hartree potential was not defined. Using partition_type for integrals.
  | Adjusted default value of keyword multip_moments_threshold to:       0.10000000E-11
  | This value may affect high angular momentum components of the Hartree potential in periodic systems.
  Angular momentum expansion for Kerker preconditioner not set explicitly.
  | Using default value of   0
  No explicit requirement for turning off preconditioner.
  | By default, it will be turned off when the charge convergence reaches
  | sc_accuracy_rho  =   0.100000E-05
  No special mixing parameter while Kerker preconditioner is on.
  Using default: charge_mix_param =     0.0500.
  No q(lm)/r^(l+1) cutoff set for long-range Hartree potential.
  | Using default value of  0.100000E-09 .
  | Verify using the multipole_threshold keyword.
  Defaulting to new monopole extrapolation.
  Density update method: automatic selection selected.
  Using density matrix based charge density update.
  Using density matrix based charge density update.
  Using packed matrix style: index .
  Defaulting to use time-reversal symmetry for k-point grid.
------------------------------------------------------------


------------------------------------------------------------
          Reading geometry description geometry.in.
------------------------------------------------------------
  Input structure read successfully.
  The structure contains        1 atoms,  and a total of         14.000 electrons.

  Input geometry:
  | Unit cell:
  |        0.00000000        3.05000000        3.05000000
  |        3.05000000        0.00000000        3.05000000
  |        3.05000000        3.05000000        0.00000000
  | Atomic structure:
  |       Atom                x [A]            y [A]            z [A]
  |    1: Species Si            0.00000000        0.00000000        0.00000000

  Lattice parameters for 3D lattice (in Angstroms) :     4.313351    4.313351    4.313351
  Angle(s) between unit vectors (in degrees)      :    60.000000   60.000000   60.000000

  |

  | The smallest distance between any two atoms is         4.31335137 AA.
  |
  | The first atom of this pair is atom number                      1 .
  | The second atom of this pair is atom number                     1 .
  | Wigner-Seitz cell of the first atom image          -1     0     1 .
  | (The Wigner-Seitz cell of the second atom is 0 0 0  by definition.)

  Quantities derived from the lattice vectors:
  | Reciprocal lattice vector 1: -1.030030  1.030030  1.030030
  | Reciprocal lattice vector 2:  1.030030 -1.030030  1.030030
  | Reciprocal lattice vector 3:  1.030030  1.030030 -1.030030
  | Unit cell volume                               :   0.567452E+02  A^3

  Range separation radius for Ewald summation (hartree_convergence_parameter):      5.00000000 bohr.

  Fractional coordinates:
                         L1                L2                L3
       atom_frac         0.00000000        0.00000000        0.00000000  Si

  Number of empty states per atom not set in control.in - providing a guess from actual geometry.
  | Total number of empty states used during s.c.f. cycle:        3
  If you use a very high smearing, use empty_states (per atom!) in control.in to increase this value.

  Structure-dependent array size parameters: 
  | Maximum number of distinct radial functions  :        8
  | Maximum number of basis functions            :       18
  | Number of Kohn-Sham states (occupied + empty):       10
------------------------------------------------------------

------------------------------------------------------------
          Preparing all fixed parts of the calculation.
------------------------------------------------------------
  Determining machine precision:
     2.2250738585072014E-308
  Setting up grids for atomic and cluster calculations.

  Creating wave function, potential, and density for free atoms.

  Species: Si

  List of occupied orbitals and eigenvalues:
    n    l              occ      energy [Ha]    energy [eV]
    1    0           2.0000       -65.491668     -1782.1190
    2    0           2.0000        -5.087967      -138.4506
    3    0           2.0000        -0.391471       -10.6525
    2    1           6.0000        -3.502246       -95.3010
    3    1           2.0000        -0.143943        -3.9169

  Creating fixed part of basis set: Ionic, confined, hydrogenic.

  Si                   ion:

  List of free ionic orbitals and eigenvalues:
    n    l      energy [Ha]    energy [eV]
    1    0       -66.364436     -1805.8682
    2    0        -5.935799      -161.5213
    3    0        -1.078166       -29.3384
    2    1        -4.351123      -118.4001
    3    1        -0.781733       -21.2720


  List of ionic basis orbitals and eigenvalues:
    n    l      energy [Ha]    energy [eV]    outer radius [A]
    3    0        -1.078146       -29.3378       4.214062


  Si                   hydrogenic:

  List of hydrogenic basis orbitals: 
    n    l      effective z      eigenvalue [eV]  inner max. [A]     outer max. [A]     outer radius [A]   
    3    2         4.200000       -26.6624           1.139231           1.139231           4.534782
    2    1         1.400000        -6.4613           1.472672           1.472672           4.590560


  Adding cutoff potential to free-atom effective potential.
  Creating atomic-like basis functions for current effective potential.

  Species Si                  :

  List of atomic basis orbitals and eigenvalues:
    n    l      energy [Ha]    energy [eV]    outer radius [A]
    1    0       -65.491668     -1782.1190       0.789468
    2    0        -5.087967      -138.4506       2.815114
    3    0        -0.391471       -10.6525       4.534782
    2    1        -3.502246       -95.3010       3.259919
    3    1        -0.143943        -3.9169       4.590560

  Assembling full basis from fixed parts.
  | Species Si :   atomic orbital   1 s accepted.
  | Species Si :   atomic orbital   2 s accepted.
  | Species Si :    ionic orbital   3 s accepted.
  | Species Si :   atomic orbital   3 s accepted.
  | Species Si :   atomic orbital   2 p accepted.
  | Species Si :   atomic orbital   3 p accepted.
  | Species Si :    hydro orbital   2 p accepted.
  | Species Si :    hydro orbital   3 d accepted.

  Basis size parameters after reduction:
  | Total number of radial functions:        8
  | Total number of basis functions :       18

  Per-task memory consumption for arrays in subroutine allocate_ext:
  |           2.757468MB.
  Testing on-site integration grid accuracy.
  |  Species  Function  <phi|h_atom|phi> (log., in eV)  <phi|h_atom|phi> (rad., in eV)
           1        1              -1782.1189727076              -1782.1182429251
           1        2               -138.4506350693               -138.4506310079
           1        3                -10.3030408815                -10.3029120678
           1        4                  5.0238999146                  4.9457540310 ***
           1        5                -95.3009689499                -95.3009689315
           1        6                 -3.9266496564                 -3.9420918374
           1        7                  6.3453628447                  6.1632372158 ***
           1        8                  6.2883050744                  6.2861881409
 * Note: Onsite integrals marked "***" above are less accurate than
 * onsite_accuracy_threshold =    0.03000 eV. Usually, this is harmless.
 * When in doubt, tighten the "radial" and/or "radial_multiplier" flags to check.

  Preparing densities etc. for the partition functions (integrals / Hartree potential).

  Preparations completed.
  max(cpu_time)          :      0.099 s.
  Wall clock time (cpu1) :      0.099 s.
------------------------------------------------------------

------------------------------------------------------------
          Begin self-consistency loop: Initialization.

          Date     :  20190514, Time     :  123648.829
------------------------------------------------------------

  Initializing index lists of integration centers etc. from given atomic structure:
  Mapping all atomic coordinates to central unit cell.

  Initializing the k-points
          Using symmetry for reducing the k-points
  | k-points reduced from:     1728 to      868
  | Number of k-points                             :       868
  The eigenvectors in the calculations are COMPLEX.
  | K-points in task   0:       868
  | Number of basis functions in the Hamiltonian integrals :       426
  | Number of basis functions in a single unit cell        :        18
  | Number of centers in hartree potential         :       369
  | Number of centers in hartree multipole         :        87
  | Number of centers in electron density summation:        55
  | Number of centers in basis integrals           :        79
  | Number of centers in integrals                 :        25
  | Number of centers in hamiltonian               :        55
  | Consuming        759 KiB for k_phase.
  | Number of super-cells (origin) [n_cells]                     :        2197
  | Number of super-cells (after PM_index) [n_cells]             :          56
  | Number of super-cells in hamiltonian [n_cells_in_hamiltonian]:          56
  | Size of matrix packed + index [n_hamiltonian_matrix_size] :        7618
  Partitioning the integration grid into batches with maxmin method.
  | Maximal weight for a single point:     1.000
  | Minimal weight for a single point:     0.391
  | Number of batches:       64
  | Maximal batch size:      90
  | Minimal batch size:      85
  | Average batch size:      87.562
  | Standard deviation of batch sizes:       1.499
  Initializing partition tables, free-atom densities, potentials, etc. across the integration grid (initialize_grid_storage).
  | initialize_grid_storage: Actual outermost partition radius vs. multipole_radius_free
  | (-- VB: in principle, multipole_radius_free should be larger, hence this output)
  | Species        1: Confinement radius =              4.999999999999999 AA, multipole_radius_free =              5.000694715736543 AA.
  | Species        1: outer_partition_radius set to              5.000694715736543 AA .
  | Original list of interatomic distances with          79 x         79 entries is created.
  | Net number of integration points:     5604
  | of which are non-zero points    :     5388
  | Numerical average free-atom electrostatic potential    :     -4.63577693 eV
  Renormalizing the initial density to the exact electron count on the 3D integration grid.
  | Initial density: Formal number of electrons (from input files) :      14.0000000000
  | Integrated number of electrons on 3D grid     :      13.9997200680
  | Charge integration error                      :      -0.0002799320
  | Normalization factor for density and gradient :       1.0000199955
  Obtaining max. number of non-zero basis functions in each batch (get_n_compute_maxes).
  | Maximal number of non-zero basis functions:      202 in task     0
  Allocating        2.500 MB for KS_eigenvector_complex
  Integrating Hamiltonian matrix: batch-based integration.
  Time summed over all CPUs for integration: real work        0.064 s, elapsed        0.064 s
  Integrating overlap matrix.
  Time summed over all CPUs for integration: real work        0.044 s, elapsed        0.044 s
  Decreasing sparse matrix size:
   Tolerance:   9.9999998245167004E-014
   Hamiltonian matrix
  | Array has     5513 nonzero elements out of     7618 elements
  | Sparsity factor is 0.276
   Overlap matrix
  | Array has     5165 nonzero elements out of     7618 elements
  | Sparsity factor is 0.322
  New size of hamiltonian matrix:        5652

  Updating Kohn-Sham eigenvalues, eigenvectors, occupation numbers, and Fermi level.
  Solving generalized eigenproblem
  Transforming overlap matrix and checking for singularities.
  Overlap matrix is nonsingular at first k-point:
  | Lowest eigenvalue:  0.811601E-01

  Obtaining occupation numbers and chemical potential using ELSI.
  | Chemical potential (Fermi level):    -4.43954377eV
  Writing Kohn-Sham eigenvalues.
  K-point:       1 at    0.000000    0.000000    0.000000 (in units of recip. lattice)

  State    Occupation    Eigenvalue [Ha]    Eigenvalue [eV]
      1       2.00000         -65.491703        -1782.11992
      2       2.00000          -5.087980         -138.45098
      3       2.00000          -3.502260          -95.30133
      4       2.00000          -3.502260          -95.30133
      5       2.00000          -3.502260          -95.30133
      6       2.00000          -0.430054          -11.70238
      7       0.00000          -0.087527           -2.38173
      8       0.00000          -0.087527           -2.38173
      9       0.00000          -0.087527           -2.38173
     10       0.00000           0.061350            1.66941

  What follows are estimated values for band gap, HOMO, LUMO, etc.
  | They are estimated on a discrete k-point grid and not necessarily exact.
  | For converged numbers, create a DOS and/or band structure plot on a denser k-grid.

  Highest occupied state (VBM) at     -4.45224348 eV (relative to internal zero)
  | Occupation number:      1.92750719
  | K-point:     312 at    0.250000    0.166667    0.333333 (in units of recip. lattice)

  Lowest unoccupied state (CBM) at    -4.42949307 eV (relative to internal zero)
  | Occupation number:      0.15520541
  | K-point:     410 at    0.333333    0.083333    0.250000 (in units of recip. lattice)

  ESTIMATED overall HOMO-LUMO gap:      0.02275041 eV between HOMO at k-point 312 and LUMO at k-point 410
  | This appears to be an indirect band gap.
  | Smallest direct gap :      0.81270956 eV for k_point 810 at    0.333333    0.083333    0.250000 (in units of recip. lattice)
  However, this system has fractional occupation numbers. Since we use a finite k-point grid,
  this material is metallic within the approximate finite broadening function (occupation_type)
  applied to determine the occupation numbers.
  Calculating total energy contributions from superposition of free atom densities.

  Total energy components:
  | Sum of eigenvalues            :        -163.34334725 Ha       -4444.79862743 eV
  | XC energy correction          :         -19.63966609 Ha        -534.42250556 eV
  | XC potential correction       :          25.94912991 Ha         706.11175132 eV
  | Free-atom electrostatic energy:        -132.20358132 Ha       -3597.44248351 eV
  | Hartree energy correction     :          -0.00000000 Ha          -0.00000000 eV
  | Entropy correction            :          -0.00000139 Ha          -0.00003786 eV
  | ---------------------------
  | Total energy                  :        -289.23746475 Ha       -7870.55186518 eV
  | Total energy, T -> 0          :        -289.23746614 Ha       -7870.55190303 eV  <-- do not rely on this value for anything but (periodic) metals
  | Electronic free energy        :        -289.23746753 Ha       -7870.55194089 eV

  Derived energy quantities:
  | Kinetic energy                :         289.54722140 Ha        7878.98077235 eV
  | Electrostatic energy          :        -559.14502005 Ha      -15215.11013196 eV
  | Energy correction for multipole
  | error in Hartree potential    :           0.00000000 Ha           0.00000000 eV
  | Sum of eigenvalues per atom                           :       -4444.79862743 eV
  | Total energy (T->0) per atom                          :       -7870.55190303 eV  <-- do not rely on this value for anything but (periodic) metals
  | Electronic free energy per atom                       :       -7870.55194089 eV
  Initialize hartree_potential_storage
  Max. number of atoms included in rho_multipole:            1

  End scf initialization - timings             :  max(cpu_time)    wall_clock(cpu1)
  | Time for scf. initialization               :        0.393 s           0.393 s
  | Boundary condition initialization          :        0.030 s           0.031 s
  | Integration                                :        0.107 s           0.108 s
  | Solution of K.-S. eqns.                    :        0.220 s           0.220 s
  | Grid partitioning                          :        0.007 s           0.007 s
  | Preloading free-atom quantities on grid    :        0.001 s           0.001 s
  | Free-atom superposition energy             :        0.008 s           0.008 s
  | Total energy evaluation                    :        0.000 s           0.000 s

  Partial memory accounting:
  | Current value for overall tracked memory usage on task 0  :           2.613 MB
  | Peak value for overall tracked memory usage on task 0     :           3.415 MB after allocating wave
  | Largest tracked array allocation on task 0 so far         :           2.500 MB  when allocating +KS_eigenvector_complex
  Note:  These values currently only include a subset of arrays which are explicitly tracked.
  The "true" memory usage will be greater.
------------------------------------------------------------

------------------------------------------------------------
          Begin self-consistency iteration #    1

  Date     :  20190514, Time     :  123649.222
------------------------------------------------------------
  Evaluating new KS density using the density matrix
  Evaluating density matrix
  Time summed over all CPUs for getting density from density matrix: real work        0.099 s, elapsed        0.099 s
  Integration grid: deviation in total charge (<rho> - N_e) =  -2.113865E-13
  Pulay mixing of updated and previous charge densities.

  Evaluating partitioned Hartree potential by multipole expansion.
  | Analytical far-field extrapolation by fixed multipoles:
  | Hartree multipole sum: apparent total charge =  -0.447155E-03
  Summing up the Hartree potential.
  | Estimated reciprocal-space cutoff momentum G_max:         1.84432723 bohr^-1 .
  | Reciprocal lattice points for long-range Hartree potential:      50
  Time summed over all CPUs for potential: real work        0.094 s, elapsed        0.094 s
  | RMS charge density error from multipole expansion :   0.969534E-04
  | Average real-space part of the electrostatic potential :     -0.01157356 eV

  Integrating Hamiltonian matrix: batch-based integration.
  Time summed over all CPUs for integration: real work        0.063 s, elapsed        0.063 s

  Updating Kohn-Sham eigenvalues, eigenvectors, occupation numbers, and Fermi level.
  Solving generalized eigenproblem

  Obtaining occupation numbers and chemical potential using ELSI.
  | Chemical potential (Fermi level):    -4.45228218eV
  Writing Kohn-Sham eigenvalues.
  K-point:       1 at    0.000000    0.000000    0.000000 (in units of recip. lattice)

  State    Occupation    Eigenvalue [Ha]    Eigenvalue [eV]
      1       2.00000         -65.493766        -1782.17606
      2       2.00000          -5.089687         -138.49742
      3       2.00000          -3.504003          -95.34877
      4       2.00000          -3.504003          -95.34877
      5       2.00000          -3.504003          -95.34877
      6       2.00000          -0.430619          -11.71773
      7       0.00000          -0.088116           -2.39775
      8       0.00000          -0.088116           -2.39775
      9       0.00000          -0.088116           -2.39775
     10       0.00000           0.060806            1.65462

  What follows are estimated values for band gap, HOMO, LUMO, etc.
  | They are estimated on a discrete k-point grid and not necessarily exact.
  | For converged numbers, create a DOS and/or band structure plot on a denser k-grid.

  Highest occupied state (VBM) at     -4.46502746 eV (relative to internal zero)
  | Occupation number:      1.92852606
  | K-point:     289 at    0.166667    0.916667    0.833333 (in units of recip. lattice)

  Lowest unoccupied state (CBM) at    -4.44249140 eV (relative to internal zero)
  | Occupation number:      0.16616691
  | K-point:     754 at    0.666667    0.750000    0.916667 (in units of recip. lattice)

  ESTIMATED overall HOMO-LUMO gap:      0.02253606 eV between HOMO at k-point 289 and LUMO at k-point 754
  | This appears to be an indirect band gap.
  | Smallest direct gap :      0.81178910 eV for k_point 469 at    0.666667    0.750000    0.916667 (in units of recip. lattice)
  However, this system has fractional occupation numbers. Since we use a finite k-point grid,
  this material is metallic within the approximate finite broadening function (occupation_type)
  applied to determine the occupation numbers.

  Total energy components:
  | Sum of eigenvalues            :        -163.36346226 Ha       -4445.34598469 eV
  | XC energy correction          :         -19.63751539 Ha        -534.36398203 eV
  | XC potential correction       :          25.94629553 Ha         706.03462392 eV
  | Free-atom electrostatic energy:        -132.20358132 Ha       -3597.44248351 eV
  | Hartree energy correction     :           0.02092134 Ha           0.56929860 eV
  | Entropy correction            :          -0.00000137 Ha          -0.00003725 eV
  | ---------------------------
  | Total energy                  :        -289.23734210 Ha       -7870.54852771 eV
  | Total energy, T -> 0          :        -289.23734347 Ha       -7870.54856496 eV  <-- do not rely on this value for anything but (periodic) metals
  | Electronic free energy        :        -289.23734484 Ha       -7870.54860221 eV

  Derived energy quantities:
  | Kinetic energy                :         289.53927420 Ha        7878.76451815 eV
  | Electrostatic energy          :        -559.13910091 Ha      -15214.94906383 eV
  | Energy correction for multipole
  | error in Hartree potential    :           0.00000826 Ha           0.00022479 eV
  | Sum of eigenvalues per atom                           :       -4445.34598469 eV
  | Total energy (T->0) per atom                          :       -7870.54856496 eV  <-- do not rely on this value for anything but (periodic) metals
  | Electronic free energy per atom                       :       -7870.54860221 eV

  Self-consistency convergence accuracy:
  | Change of charge density      :  0.3229E-01
  | Change of sum of eigenvalues  : -0.5474E+00 eV
  | Change of total energy        :  0.3337E-02 eV

  End self-consistency iteration #     1       :  max(cpu_time)    wall_clock(cpu1)
  | Time for this iteration                    :        0.377 s           0.377 s
  | Charge density update                      :        0.108 s           0.108 s
  | Density mixing & preconditioning           :        0.013 s           0.013 s
  | Hartree multipole update                   :        0.000 s           0.000 s
  | Hartree multipole summation                :        0.096 s           0.096 s
  | Integration                                :        0.063 s           0.063 s
  | Solution of K.-S. eqns.                    :        0.097 s           0.096 s
  | Total energy evaluation                    :        0.000 s           0.000 s

  Partial memory accounting:
  | Current value for overall tracked memory usage on task 0  :           2.613 MB
  | Peak value for overall tracked memory usage on task 0     :           3.415 MB after allocating wave
  | Largest tracked array allocation on task 0 so far         :           2.500 MB  when allocating +KS_eigenvector_complex
  Note:  These values currently only include a subset of arrays which are explicitly tracked.
  The "true" memory usage will be greater.
------------------------------------------------------------

------------------------------------------------------------
          Begin self-consistency iteration #    2

  Date     :  20190514, Time     :  123649.599
------------------------------------------------------------
  Evaluating new KS density using the density matrix
  Evaluating density matrix
  Time summed over all CPUs for getting density from density matrix: real work        0.098 s, elapsed        0.098 s
  Integration grid: deviation in total charge (<rho> - N_e) =  -2.060574E-13
  Pulay mixing of updated and previous charge densities.

  Evaluating partitioned Hartree potential by multipole expansion.
  | Analytical far-field extrapolation by fixed multipoles:
  | Hartree multipole sum: apparent total charge =  -0.367838E-02
  Summing up the Hartree potential.
  Time summed over all CPUs for potential: real work        0.120 s, elapsed        0.120 s
  | RMS charge density error from multipole expansion :   0.195660E-02
  | Average real-space part of the electrostatic potential :     -0.26296202 eV

  Integrating Hamiltonian matrix: batch-based integration.
  Time summed over all CPUs for integration: real work        0.064 s, elapsed        0.064 s

  Updating Kohn-Sham eigenvalues, eigenvectors, occupation numbers, and Fermi level.
  Solving generalized eigenproblem

  Obtaining occupation numbers and chemical potential using ELSI.
  | Chemical potential (Fermi level):    -4.70915520eV
  What follows are estimated values for band gap, HOMO, LUMO, etc.
  | They are estimated on a discrete k-point grid and not necessarily exact.
  | For converged numbers, create a DOS and/or band structure plot on a denser k-grid.

  Highest occupied state (VBM) at     -4.72022924 eV (relative to internal zero)
  | Occupation number:      1.88267608
  | K-point:     427 at    0.333333    0.250000    0.166667 (in units of recip. lattice)

  Lowest unoccupied state (CBM) at    -4.70208911 eV (relative to internal zero)
  | Occupation number:      0.31765129
  | K-point:     163 at    0.083333    0.750000    0.833333 (in units of recip. lattice)

  ESTIMATED overall HOMO-LUMO gap:      0.01814013 eV between HOMO at k-point 427 and LUMO at k-point 163
  | This appears to be an indirect band gap.
  | Smallest direct gap :      0.79020923 eV for k_point 590 at    0.083333    0.750000    0.833333 (in units of recip. lattice)
  However, this system has fractional occupation numbers. Since we use a finite k-point grid,
  this material is metallic within the approximate finite broadening function (occupation_type)
  applied to determine the occupation numbers.

  Checking to see if s.c.f. parameters should be adjusted.
  Adjusted the Pulay mixing parameter (charge_mix_param) for an expected low-gap system. New value:   0.020000 .
  Adjusted the occupation broadening width for an expected low-gap system. New value:      0.05000000 eV.

  Total energy components:
  | Sum of eigenvalues            :        -163.82070344 Ha       -4457.78815047 eV
  | XC energy correction          :         -19.59736638 Ha        -533.27147173 eV
  | XC potential correction       :          25.89337904 Ha         704.59469318 eV
  | Free-atom electrostatic energy:        -132.20358132 Ha       -3597.44248351 eV
  | Hartree energy correction     :           0.49242981 Ha          13.39969691 eV
  | Entropy correction            :          -0.00003133 Ha          -0.00085246 eV
  | ---------------------------
  | Total energy                  :        -289.23584229 Ha       -7870.50771561 eV
  | Total energy, T -> 0          :        -289.23587361 Ha       -7870.50856807 eV  <-- do not rely on this value for anything but (periodic) metals
  | Electronic free energy        :        -289.23590494 Ha       -7870.50942053 eV

  Derived energy quantities:
  | Kinetic energy                :         289.22665719 Ha        7870.25777641 eV
  | Electrostatic energy          :        -558.86513310 Ha      -15207.49402030 eV
  | Energy correction for multipole
  | error in Hartree potential    :           0.00019227 Ha           0.00523194 eV
  | Sum of eigenvalues per atom                           :       -4457.78815047 eV
  | Total energy (T->0) per atom                          :       -7870.50856807 eV  <-- do not rely on this value for anything but (periodic) metals
  | Electronic free energy per atom                       :       -7870.50942053 eV

  Self-consistency convergence accuracy:
  | Change of charge density      :  0.3078E-01
  | Change of sum of eigenvalues  : -0.1244E+02 eV
  | Change of total energy        :  0.4081E-01 eV

  End self-consistency iteration #     2       :  max(cpu_time)    wall_clock(cpu1)
  | Time for this iteration                    :        0.403 s           0.403 s
  | Charge density update                      :        0.107 s           0.107 s
  | Density mixing & preconditioning           :        0.012 s           0.012 s
  | Hartree multipole update                   :        0.000 s           0.001 s
  | Hartree multipole summation                :        0.123 s           0.122 s
  | Integration                                :        0.065 s           0.064 s
  | Solution of K.-S. eqns.                    :        0.096 s           0.096 s
  | Total energy evaluation                    :        0.000 s           0.000 s

  Partial memory accounting:
  | Current value for overall tracked memory usage on task 0  :           2.614 MB
  | Peak value for overall tracked memory usage on task 0     :           3.415 MB after allocating wave
  | Largest tracked array allocation on task 0 so far         :           2.500 MB  when allocating +KS_eigenvector_complex
  Note:  These values currently only include a subset of arrays which are explicitly tracked.
  The "true" memory usage will be greater.
------------------------------------------------------------

------------------------------------------------------------
          Begin self-consistency iteration #    3

  Date     :  20190514, Time     :  123650.002
------------------------------------------------------------
  Evaluating new KS density using the density matrix
  Evaluating density matrix
  Time summed over all CPUs for getting density from density matrix: real work        0.097 s, elapsed        0.097 s
  Integration grid: deviation in total charge (<rho> - N_e) =  -3.748113E-13
  Pulay mixing of updated and previous charge densities.

  Evaluating partitioned Hartree potential by multipole expansion.
  | Analytical far-field extrapolation by fixed multipoles:
  | Hartree multipole sum: apparent total charge =  -0.469808E-02
  Summing up the Hartree potential.
  Time summed over all CPUs for potential: real work        0.122 s, elapsed        0.122 s
  | RMS charge density error from multipole expansion :   0.264761E-02
  | Average real-space part of the electrostatic potential :     -0.34500084 eV

  Integrating Hamiltonian matrix: batch-based integration.
  Time summed over all CPUs for integration: real work        0.064 s, elapsed        0.064 s

  Updating Kohn-Sham eigenvalues, eigenvectors, occupation numbers, and Fermi level.
  Solving generalized eigenproblem

  Obtaining occupation numbers and chemical potential using ELSI.
  | Chemical potential (Fermi level):    -4.79317150eV
  What follows are estimated values for band gap, HOMO, LUMO, etc.
  | They are estimated on a discrete k-point grid and not necessarily exact.
  | For converged numbers, create a DOS and/or band structure plot on a denser k-grid.

  Highest occupied state (VBM) at     -4.80786319 eV (relative to internal zero)
  | Occupation number:      1.32225616
  | K-point:     100 at    0.083333    0.166667    0.833333 (in units of recip. lattice)

  Lowest unoccupied state (CBM) at    -4.79122439 eV (relative to internal zero)
  | Occupation number:      0.95608060
  | K-point:     839 at    0.916667    0.166667    0.250000 (in units of recip. lattice)

  ESTIMATED overall HOMO-LUMO gap:      0.01663880 eV between HOMO at k-point 100 and LUMO at k-point 839
  | This appears to be an indirect band gap.
  | Smallest direct gap :      0.78146182 eV for k_point 647 at    0.916667    0.166667    0.250000 (in units of recip. lattice)
  However, this system has fractional occupation numbers. Since we use a finite k-point grid,
  this material is metallic within the approximate finite broadening function (occupation_type)
  applied to determine the occupation numbers.

  Total energy components:
  | Sum of eigenvalues            :        -164.00348661 Ha       -4462.76193344 eV
  | XC energy correction          :         -19.58098139 Ha        -532.82561338 eV
  | XC potential correction       :          25.87174756 Ha         704.00607052 eV
  | Free-atom electrostatic energy:        -132.20358132 Ha       -3597.44248351 eV
  | Hartree energy correction     :           0.68042001 Ha          18.51517062 eV
  | Entropy correction            :          -0.00003130 Ha          -0.00085161 eV
  | ---------------------------
  | Total energy                  :        -289.23588174 Ha       -7870.50878918 eV
  | Total energy, T -> 0          :        -289.23591303 Ha       -7870.50964079 eV  <-- do not rely on this value for anything but (periodic) metals
  | Electronic free energy        :        -289.23594433 Ha       -7870.51049241 eV

  Derived energy quantities:
  | Kinetic energy                :         289.05975716 Ha        7865.71619561 eV
  | Electrostatic energy          :        -558.71465751 Ha      -15203.39937141 eV
  | Energy correction for multipole
  | error in Hartree potential    :           0.00026173 Ha           0.00712202 eV
  | Sum of eigenvalues per atom                           :       -4462.76193344 eV
  | Total energy (T->0) per atom                          :       -7870.50964079 eV  <-- do not rely on this value for anything but (periodic) metals
  | Electronic free energy per atom                       :       -7870.51049241 eV

  Self-consistency convergence accuracy:
  | Change of charge density      :  0.8279E-02
  | Change of sum of eigenvalues  : -0.4974E+01 eV
  | Change of total energy        : -0.1074E-02 eV

  End self-consistency iteration #     3       :  max(cpu_time)    wall_clock(cpu1)
  | Time for this iteration                    :        0.406 s           0.406 s
  | Charge density update                      :        0.107 s           0.107 s
  | Density mixing & preconditioning           :        0.012 s           0.012 s
  | Hartree multipole update                   :        0.000 s           0.001 s
  | Hartree multipole summation                :        0.124 s           0.123 s
  | Integration                                :        0.064 s           0.064 s
  | Solution of K.-S. eqns.                    :        0.098 s           0.099 s
  | Total energy evaluation                    :        0.000 s           0.000 s

  Partial memory accounting:
  | Current value for overall tracked memory usage on task 0  :           2.615 MB
  | Peak value for overall tracked memory usage on task 0     :           3.415 MB after allocating wave
  | Largest tracked array allocation on task 0 so far         :           2.500 MB  when allocating +KS_eigenvector_complex
  Note:  These values currently only include a subset of arrays which are explicitly tracked.
  The "true" memory usage will be greater.
------------------------------------------------------------

------------------------------------------------------------
          Begin self-consistency iteration #    4

  Date     :  20190514, Time     :  123650.408
------------------------------------------------------------
  Evaluating new KS density using the density matrix
  Evaluating density matrix
  Time summed over all CPUs for getting density from density matrix: real work        0.099 s, elapsed        0.099 s
  Integration grid: deviation in total charge (<rho> - N_e) =  -3.570477E-13
  Pulay mixing of updated and previous charge densities.

  Evaluating partitioned Hartree potential by multipole expansion.
  | Analytical far-field extrapolation by fixed multipoles:
  | Hartree multipole sum: apparent total charge =  -0.457575E-02
  Summing up the Hartree potential.
  Time summed over all CPUs for potential: real work        0.123 s, elapsed        0.123 s
  | RMS charge density error from multipole expansion :   0.227190E-02
  | Average real-space part of the electrostatic potential :     -0.33169022 eV

  Integrating Hamiltonian matrix: batch-based integration.
  Time summed over all CPUs for integration: real work        0.064 s, elapsed        0.064 s

  Updating Kohn-Sham eigenvalues, eigenvectors, occupation numbers, and Fermi level.
  Solving generalized eigenproblem

  Obtaining occupation numbers and chemical potential using ELSI.
  | Chemical potential (Fermi level):    -4.75970523eV
  What follows are estimated values for band gap, HOMO, LUMO, etc.
  | They are estimated on a discrete k-point grid and not necessarily exact.
  | For converged numbers, create a DOS and/or band structure plot on a denser k-grid.

  Highest occupied state (VBM) at     -4.77397558 eV (relative to internal zero)
  | Occupation number:      1.31351271
  | K-point:     427 at    0.333333    0.250000    0.166667 (in units of recip. lattice)

  Lowest unoccupied state (CBM) at    -4.75660798 eV (relative to internal zero)
  | Occupation number:      0.93019190
  | K-point:     839 at    0.916667    0.166667    0.250000 (in units of recip. lattice)

  ESTIMATED overall HOMO-LUMO gap:      0.01736760 eV between HOMO at k-point 427 and LUMO at k-point 839
  | This appears to be an indirect band gap.
  | Smallest direct gap :      0.78678841 eV for k_point 677 at    0.916667    0.166667    0.250000 (in units of recip. lattice)
  However, this system has fractional occupation numbers. Since we use a finite k-point grid,
  this material is metallic within the approximate finite broadening function (occupation_type)
  applied to determine the occupation numbers.

  Total energy components:
  | Sum of eigenvalues            :        -163.85916151 Ha       -4458.83464769 eV
  | XC energy correction          :         -19.59603299 Ha        -533.23518824 eV
  | XC potential correction       :          25.89170322 Ha         704.54909170 eV
  | Free-atom electrostatic energy:        -132.20358132 Ha       -3597.44248351 eV
  | Hartree energy correction     :           0.53128147 Ha          14.45690424 eV
  | Entropy correction            :          -0.00003129 Ha          -0.00085152 eV
  | ---------------------------
  | Total energy                  :        -289.23579113 Ha       -7870.50632351 eV
  | Total energy, T -> 0          :        -289.23582242 Ha       -7870.50717502 eV  <-- do not rely on this value for anything but (periodic) metals
  | Electronic free energy        :        -289.23585371 Ha       -7870.50802654 eV

  Derived energy quantities:
  | Kinetic energy                :         289.30379645 Ha        7872.35684250 eV
  | Electrostatic energy          :        -558.94355459 Ha      -15209.62797776 eV
  | Energy correction for multipole
  | error in Hartree potential    :           0.00025270 Ha           0.00687629 eV
  | Sum of eigenvalues per atom                           :       -4458.83464769 eV
  | Total energy (T->0) per atom                          :       -7870.50717502 eV  <-- do not rely on this value for anything but (periodic) metals
  | Electronic free energy per atom                       :       -7870.50802654 eV

  Self-consistency convergence accuracy:
  | Change of charge density      :  0.1893E-01
  | Change of sum of eigenvalues  :  0.3927E+01 eV
  | Change of total energy        :  0.2466E-02 eV

  End self-consistency iteration #     4       :  max(cpu_time)    wall_clock(cpu1)
  | Time for this iteration                    :        0.408 s           0.408 s
  | Charge density update                      :        0.108 s           0.108 s
  | Density mixing & preconditioning           :        0.012 s           0.012 s
  | Hartree multipole update                   :        0.000 s           0.001 s
  | Hartree multipole summation                :        0.125 s           0.124 s
  | Integration                                :        0.064 s           0.064 s
  | Solution of K.-S. eqns.                    :        0.098 s           0.099 s
  | Total energy evaluation                    :        0.000 s           0.000 s

  Partial memory accounting:
  | Current value for overall tracked memory usage on task 0  :           2.615 MB
  | Peak value for overall tracked memory usage on task 0     :           3.415 MB after allocating wave
  | Largest tracked array allocation on task 0 so far         :           2.500 MB  when allocating +KS_eigenvector_complex
  Note:  These values currently only include a subset of arrays which are explicitly tracked.
  The "true" memory usage will be greater.
------------------------------------------------------------

------------------------------------------------------------
          Begin self-consistency iteration #    5

  Date     :  20190514, Time     :  123650.816
------------------------------------------------------------
  Evaluating new KS density using the density matrix
  Evaluating density matrix
  Time summed over all CPUs for getting density from density matrix: real work        0.098 s, elapsed        0.098 s
  Integration grid: deviation in total charge (<rho> - N_e) =  -2.629008E-13
  Pulay mixing of updated and previous charge densities.

  Evaluating partitioned Hartree potential by multipole expansion.
  | Analytical far-field extrapolation by fixed multipoles:
  | Hartree multipole sum: apparent total charge =  -0.455634E-02
  Summing up the Hartree potential.
  Time summed over all CPUs for potential: real work        0.124 s, elapsed        0.124 s
  | RMS charge density error from multipole expansion :   0.226820E-02
  | Average real-space part of the electrostatic potential :     -0.33120602 eV

  Integrating Hamiltonian matrix: batch-based integration.
  Time summed over all CPUs for integration: real work        0.064 s, elapsed        0.064 s

  Updating Kohn-Sham eigenvalues, eigenvectors, occupation numbers, and Fermi level.
  Solving generalized eigenproblem

  Obtaining occupation numbers and chemical potential using ELSI.
  | Chemical potential (Fermi level):    -4.75918120eV
  What follows are estimated values for band gap, HOMO, LUMO, etc.
  | They are estimated on a discrete k-point grid and not necessarily exact.
  | For converged numbers, create a DOS and/or band structure plot on a denser k-grid.

  Highest occupied state (VBM) at     -4.77344597 eV (relative to internal zero)
  | Occupation number:      1.31339658
  | K-point:     427 at    0.333333    0.250000    0.166667 (in units of recip. lattice)

  Lowest unoccupied state (CBM) at    -4.75606983 eV (relative to internal zero)
  | Occupation number:      0.92987458
  | K-point:     839 at    0.916667    0.166667    0.250000 (in units of recip. lattice)

  ESTIMATED overall HOMO-LUMO gap:      0.01737614 eV between HOMO at k-point 427 and LUMO at k-point 839
  | This appears to be an indirect band gap.
  | Smallest direct gap :      0.78683705 eV for k_point 677 at    0.916667    0.166667    0.250000 (in units of recip. lattice)
  However, this system has fractional occupation numbers. Since we use a finite k-point grid,
  this material is metallic within the approximate finite broadening function (occupation_type)
  applied to determine the occupation numbers.

  Total energy components:
  | Sum of eigenvalues            :        -163.85826816 Ha       -4458.81033840 eV
  | XC energy correction          :         -19.59610228 Ha        -533.23707389 eV
  | XC potential correction       :          25.89179452 Ha         704.55157611 eV
  | Free-atom electrostatic energy:        -132.20358132 Ha       -3597.44248351 eV
  | Hartree energy correction     :           0.53036624 Ha          14.43199981 eV
  | Entropy correction            :          -0.00003129 Ha          -0.00085153 eV
  | ---------------------------
  | Total energy                  :        -289.23579099 Ha       -7870.50631987 eV
  | Total energy, T -> 0          :        -289.23582229 Ha       -7870.50717140 eV  <-- do not rely on this value for anything but (periodic) metals
  | Electronic free energy        :        -289.23585358 Ha       -7870.50802293 eV

  Derived energy quantities:
  | Kinetic energy                :         289.30425850 Ha        7872.36941552 eV
  | Electrostatic energy          :        -558.94394721 Ha      -15209.63866151 eV
  | Energy correction for multipole
  | error in Hartree potential    :           0.00025224 Ha           0.00686371 eV
  | Sum of eigenvalues per atom                           :       -4458.81033840 eV
  | Total energy (T->0) per atom                          :       -7870.50717140 eV  <-- do not rely on this value for anything but (periodic) metals
  | Electronic free energy per atom                       :       -7870.50802293 eV

  Self-consistency convergence accuracy:
  | Change of charge density      :  0.1798E-02
  | Change of sum of eigenvalues  :  0.2431E-01 eV
  | Change of total energy        :  0.3634E-05 eV

  End self-consistency iteration #     5       :  max(cpu_time)    wall_clock(cpu1)
  | Time for this iteration                    :        0.410 s           0.410 s
  | Charge density update                      :        0.108 s           0.108 s
  | Density mixing & preconditioning           :        0.012 s           0.012 s
  | Hartree multipole update                   :        0.000 s           0.001 s
  | Hartree multipole summation                :        0.127 s           0.126 s
  | Integration                                :        0.065 s           0.065 s
  | Solution of K.-S. eqns.                    :        0.098 s           0.098 s
  | Total energy evaluation                    :        0.000 s           0.000 s

  Partial memory accounting:
  | Current value for overall tracked memory usage on task 0  :           2.615 MB
  | Peak value for overall tracked memory usage on task 0     :           3.415 MB after allocating wave
  | Largest tracked array allocation on task 0 so far         :           2.500 MB  when allocating +KS_eigenvector_complex
  Note:  These values currently only include a subset of arrays which are explicitly tracked.
  The "true" memory usage will be greater.
------------------------------------------------------------

------------------------------------------------------------
          Begin self-consistency iteration #    6

  Date     :  20190514, Time     :  123651.227
------------------------------------------------------------
  Evaluating new KS density using the density matrix
  Evaluating density matrix
  Time summed over all CPUs for getting density from density matrix: real work        0.098 s, elapsed        0.098 s
  Integration grid: deviation in total charge (<rho> - N_e) =  -2.984279E-13
  Pulay mixing of updated and previous charge densities.

  Evaluating partitioned Hartree potential by multipole expansion.
  | Analytical far-field extrapolation by fixed multipoles:
  | Hartree multipole sum: apparent total charge =  -0.534031E-03
  Summing up the Hartree potential.
  Time summed over all CPUs for potential: real work        0.125 s, elapsed        0.125 s
  | RMS charge density error from multipole expansion :   0.224764E-02
  | Average real-space part of the electrostatic potential :     -0.34496110 eV

  Integrating Hamiltonian matrix: batch-based integration.
  Time summed over all CPUs for integration: real work        0.070 s, elapsed        0.070 s

  Updating Kohn-Sham eigenvalues, eigenvectors, occupation numbers, and Fermi level.
  Solving generalized eigenproblem

  Obtaining occupation numbers and chemical potential using ELSI.
  | Chemical potential (Fermi level):    -4.75055643eV
  What follows are estimated values for band gap, HOMO, LUMO, etc.
  | They are estimated on a discrete k-point grid and not necessarily exact.
  | For converged numbers, create a DOS and/or band structure plot on a denser k-grid.

  Highest occupied state (VBM) at     -4.76473247 eV (relative to internal zero)
  | Occupation number:      1.31154967
  | K-point:     281 at    0.166667    0.833333    0.916667 (in units of recip. lattice)

  Lowest unoccupied state (CBM) at    -4.74726268 eV (relative to internal zero)
  | Occupation number:      0.92577526
  | K-point:     754 at    0.666667    0.750000    0.916667 (in units of recip. lattice)

  ESTIMATED overall HOMO-LUMO gap:      0.01746980 eV between HOMO at k-point 281 and LUMO at k-point 754
  | This appears to be an indirect band gap.
  | Smallest direct gap :      0.78792278 eV for k_point 352 at    0.666667    0.750000    0.916667 (in units of recip. lattice)
  However, this system has fractional occupation numbers. Since we use a finite k-point grid,
  this material is metallic within the approximate finite broadening function (occupation_type)
  applied to determine the occupation numbers.

  Total energy components:
  | Sum of eigenvalues            :        -163.83840965 Ha       -4458.26996073 eV
  | XC energy correction          :         -19.59660870 Ha        -533.25085410 eV
  | XC potential correction       :          25.89248342 Ha         704.57032192 eV
  | Free-atom electrostatic energy:        -132.20358132 Ha       -3597.44248351 eV
  | Hartree energy correction     :           0.51032826 Ha          13.88673843 eV
  | Entropy correction            :          -0.00003130 Ha          -0.00085160 eV
  | ---------------------------
  | Total energy                  :        -289.23578798 Ha       -7870.50623798 eV
  | Total energy, T -> 0          :        -289.23581928 Ha       -7870.50708958 eV  <-- do not rely on this value for anything but (periodic) metals
  | Electronic free energy        :        -289.23585058 Ha       -7870.50794118 eV

  Derived energy quantities:
  | Kinetic energy                :         289.31732885 Ha        7872.72507792 eV
  | Electrostatic energy          :        -558.95650814 Ha      -15209.98046180 eV
  | Energy correction for multipole
  | error in Hartree potential    :           0.00025431 Ha           0.00692022 eV
  | Sum of eigenvalues per atom                           :       -4458.26996073 eV
  | Total energy (T->0) per atom                          :       -7870.50708958 eV  <-- do not rely on this value for anything but (periodic) metals
  | Electronic free energy per atom                       :       -7870.50794118 eV

  Self-consistency convergence accuracy:
  | Change of charge density      :  0.1752E-02
  | Change of sum of eigenvalues  :  0.5404E+00 eV
  | Change of total energy        :  0.8189E-04 eV

  End self-consistency iteration #     6       :  max(cpu_time)    wall_clock(cpu1)
  | Time for this iteration                    :        0.421 s           0.421 s
  | Charge density update                      :        0.107 s           0.107 s
  | Density mixing & preconditioning           :        0.012 s           0.012 s
  | Hartree multipole update                   :        0.000 s           0.001 s
  | Hartree multipole summation                :        0.127 s           0.126 s
  | Integration                                :        0.070 s           0.070 s
  | Solution of K.-S. eqns.                    :        0.105 s           0.105 s
  | Total energy evaluation                    :        0.000 s           0.000 s

  Partial memory accounting:
  | Current value for overall tracked memory usage on task 0  :           2.615 MB
  | Peak value for overall tracked memory usage on task 0     :           3.415 MB after allocating wave
  | Largest tracked array allocation on task 0 so far         :           2.500 MB  when allocating +KS_eigenvector_complex
  Note:  These values currently only include a subset of arrays which are explicitly tracked.
  The "true" memory usage will be greater.
------------------------------------------------------------

------------------------------------------------------------
          Begin self-consistency iteration #    7

  Date     :  20190514, Time     :  123651.648
------------------------------------------------------------
  Evaluating new KS density using the density matrix
  Evaluating density matrix
  Time summed over all CPUs for getting density from density matrix: real work        0.097 s, elapsed        0.097 s
  Integration grid: deviation in total charge (<rho> - N_e) =  -2.522427E-13
  Pulay mixing of updated and previous charge densities.

  Evaluating partitioned Hartree potential by multipole expansion.
  | Analytical far-field extrapolation by fixed multipoles:
  | Hartree multipole sum: apparent total charge =  -0.882158E-03
  Summing up the Hartree potential.
  Time summed over all CPUs for potential: real work        0.123 s, elapsed        0.123 s
  | RMS charge density error from multipole expansion :   0.226740E-02
  | Average real-space part of the electrostatic potential :     -0.34659774 eV

  Integrating Hamiltonian matrix: batch-based integration.
  Time summed over all CPUs for integration: real work        0.063 s, elapsed        0.063 s

  Updating Kohn-Sham eigenvalues, eigenvectors, occupation numbers, and Fermi level.
  Solving generalized eigenproblem

  Obtaining occupation numbers and chemical potential using ELSI.
  | Chemical potential (Fermi level):    -4.75379845eV
  What follows are estimated values for band gap, HOMO, LUMO, etc.
  | They are estimated on a discrete k-point grid and not necessarily exact.
  | For converged numbers, create a DOS and/or band structure plot on a denser k-grid.

  Highest occupied state (VBM) at     -4.76800917 eV (relative to internal zero)
  | Occupation number:      1.31227169
  | K-point:     281 at    0.166667    0.833333    0.916667 (in units of recip. lattice)

  Lowest unoccupied state (CBM) at    -4.75058961 eV (relative to internal zero)
  | Occupation number:      0.92768349
  | K-point:     218 at    0.166667    0.250000    0.916667 (in units of recip. lattice)

  ESTIMATED overall HOMO-LUMO gap:      0.01741956 eV between HOMO at k-point 281 and LUMO at k-point 218
  | This appears to be an indirect band gap.
  | Smallest direct gap :      0.78760174 eV for k_point 385 at    0.166667    0.250000    0.916667 (in units of recip. lattice)
  However, this system has fractional occupation numbers. Since we use a finite k-point grid,
  this material is metallic within the approximate finite broadening function (occupation_type)
  applied to determine the occupation numbers.

  Total energy components:
  | Sum of eigenvalues            :        -163.84435255 Ha       -4458.43167528 eV
  | XC energy correction          :         -19.59620825 Ha        -533.23995738 eV
  | XC potential correction       :          25.89195435 Ha         704.55592520 eV
  | Free-atom electrostatic energy:        -132.20358132 Ha       -3597.44248351 eV
  | Hartree energy correction     :           0.51639972 Ha          14.05195136 eV
  | Entropy correction            :          -0.00003129 Ha          -0.00085154 eV
  | ---------------------------
  | Total energy                  :        -289.23578804 Ha       -7870.50623960 eV
  | Total energy, T -> 0          :        -289.23581934 Ha       -7870.50709114 eV  <-- do not rely on this value for anything but (periodic) metals
  | Electronic free energy        :        -289.23585063 Ha       -7870.50794267 eV

  Derived energy quantities:
  | Kinetic energy                :         289.31392349 Ha        7872.63241329 eV
  | Electrostatic energy          :        -558.95350329 Ha      -15209.89869552 eV
  | Energy correction for multipole
  | error in Hartree potential    :           0.00025655 Ha           0.00698097 eV
  | Sum of eigenvalues per atom                           :       -4458.43167528 eV
  | Total energy (T->0) per atom                          :       -7870.50709114 eV  <-- do not rely on this value for anything but (periodic) metals
  | Electronic free energy per atom                       :       -7870.50794267 eV

  Self-consistency convergence accuracy:
  | Change of charge density      :  0.3832E-03
  | Change of sum of eigenvalues  : -0.1617E+00 eV
  | Change of total energy        : -0.1618E-05 eV

  End self-consistency iteration #     7       :  max(cpu_time)    wall_clock(cpu1)
  | Time for this iteration                    :        0.405 s           0.405 s
  | Charge density update                      :        0.107 s           0.108 s
  | Density mixing & preconditioning           :        0.011 s           0.011 s
  | Hartree multipole update                   :        0.000 s           0.000 s
  | Hartree multipole summation                :        0.125 s           0.125 s
  | Integration                                :        0.064 s           0.063 s
  | Solution of K.-S. eqns.                    :        0.097 s           0.097 s
  | Total energy evaluation                    :        0.000 s           0.001 s

  Partial memory accounting:
  | Current value for overall tracked memory usage on task 0  :           2.616 MB
  | Peak value for overall tracked memory usage on task 0     :           3.415 MB after allocating wave
  | Largest tracked array allocation on task 0 so far         :           2.500 MB  when allocating +KS_eigenvector_complex
  Note:  These values currently only include a subset of arrays which are explicitly tracked.
  The "true" memory usage will be greater.
------------------------------------------------------------

------------------------------------------------------------
          Begin self-consistency iteration #    8

  Date     :  20190514, Time     :  123652.053
------------------------------------------------------------
  Evaluating new KS density using the density matrix
  Evaluating density matrix
  Time summed over all CPUs for getting density from density matrix: real work        0.099 s, elapsed        0.099 s
  Integration grid: deviation in total charge (<rho> - N_e) =  -2.415845E-13
  Pulay mixing of updated and previous charge densities.

  Evaluating partitioned Hartree potential by multipole expansion.
  | Analytical far-field extrapolation by fixed multipoles:
  | Hartree multipole sum: apparent total charge =  -0.311542E-03
  Summing up the Hartree potential.
  Time summed over all CPUs for potential: real work        0.123 s, elapsed        0.123 s
  | RMS charge density error from multipole expansion :   0.223221E-02
  | Average real-space part of the electrostatic potential :     -0.34286129 eV

  Integrating Hamiltonian matrix: batch-based integration.
  Time summed over all CPUs for integration: real work        0.065 s, elapsed        0.065 s

  Updating Kohn-Sham eigenvalues, eigenvectors, occupation numbers, and Fermi level.
  Solving generalized eigenproblem

  Obtaining occupation numbers and chemical potential using ELSI.
  | Chemical potential (Fermi level):    -4.74753760eV
  What follows are estimated values for band gap, HOMO, LUMO, etc.
  | They are estimated on a discrete k-point grid and not necessarily exact.
  | For converged numbers, create a DOS and/or band structure plot on a denser k-grid.

  Highest occupied state (VBM) at     -4.76167847 eV (relative to internal zero)
  | Occupation number:      1.31081717
  | K-point:     427 at    0.333333    0.250000    0.166667 (in units of recip. lattice)

  Lowest unoccupied state (CBM) at    -4.74415530 eV (relative to internal zero)
  | Occupation number:      0.92378599
  | K-point:     163 at    0.083333    0.750000    0.833333 (in units of recip. lattice)

  ESTIMATED overall HOMO-LUMO gap:      0.01752317 eV between HOMO at k-point 427 and LUMO at k-point 163
  | This appears to be an indirect band gap.
  | Smallest direct gap :      0.78821679 eV for k_point 531 at    0.083333    0.750000    0.833333 (in units of recip. lattice)
  However, this system has fractional occupation numbers. Since we use a finite k-point grid,
  this material is metallic within the approximate finite broadening function (occupation_type)
  applied to determine the occupation numbers.

  Total energy components:
  | Sum of eigenvalues            :        -163.83230491 Ha       -4458.10384250 eV
  | XC energy correction          :         -19.59704531 Ha        -533.26273489 eV
  | XC potential correction       :          25.89305995 Ha         704.58601031 eV
  | Free-atom electrostatic energy:        -132.20358132 Ha       -3597.44248351 eV
  | Hartree energy correction     :           0.50408353 Ha          13.71681076 eV
  | Entropy correction            :          -0.00003130 Ha          -0.00085168 eV
  | ---------------------------
  | Total energy                  :        -289.23578805 Ha       -7870.50623983 eV
  | Total energy, T -> 0          :        -289.23581935 Ha       -7870.50709151 eV  <-- do not rely on this value for anything but (periodic) metals
  | Electronic free energy        :        -289.23585065 Ha       -7870.50794319 eV

  Derived energy quantities:
  | Kinetic energy                :         289.32111539 Ha        7872.82811488 eV
  | Electrostatic energy          :        -558.95985814 Ha      -15210.07161982 eV
  | Energy correction for multipole
  | error in Hartree potential    :           0.00025285 Ha           0.00688038 eV
  | Sum of eigenvalues per atom                           :       -4458.10384250 eV
  | Total energy (T->0) per atom                          :       -7870.50709151 eV  <-- do not rely on this value for anything but (periodic) metals
  | Electronic free energy per atom                       :       -7870.50794319 eV

  Self-consistency convergence accuracy:
  | Change of charge density      :  0.7466E-03
  | Change of sum of eigenvalues  :  0.3278E+00 eV
  | Change of total energy        : -0.2322E-06 eV

  End self-consistency iteration #     8       :  max(cpu_time)    wall_clock(cpu1)
  | Time for this iteration                    :        0.409 s           0.408 s
  | Charge density update                      :        0.108 s           0.108 s
  | Density mixing & preconditioning           :        0.012 s           0.012 s
  | Hartree multipole update                   :        0.000 s           0.000 s
  | Hartree multipole summation                :        0.125 s           0.125 s
  | Integration                                :        0.065 s           0.065 s
  | Solution of K.-S. eqns.                    :        0.098 s           0.098 s
  | Total energy evaluation                    :        0.000 s           0.000 s

  Partial memory accounting:
  | Current value for overall tracked memory usage on task 0  :           2.616 MB
  | Peak value for overall tracked memory usage on task 0     :           3.415 MB after allocating wave
  | Largest tracked array allocation on task 0 so far         :           2.500 MB  when allocating +KS_eigenvector_complex
  Note:  These values currently only include a subset of arrays which are explicitly tracked.
  The "true" memory usage will be greater.
------------------------------------------------------------

------------------------------------------------------------
          Begin self-consistency iteration #    9

  Date     :  20190514, Time     :  123652.461
------------------------------------------------------------
  Evaluating new KS density using the density matrix
  Evaluating density matrix
  Time summed over all CPUs for getting density from density matrix: real work        0.097 s, elapsed        0.097 s
  Integration grid: deviation in total charge (<rho> - N_e) =  -4.263256E-13
  Pulay mixing of updated and previous charge densities.

  Evaluating partitioned Hartree potential by multipole expansion.
  | Analytical far-field extrapolation by fixed multipoles:
  | Hartree multipole sum: apparent total charge =  -0.321642E-03
  Summing up the Hartree potential.
  Time summed over all CPUs for potential: real work        0.122 s, elapsed        0.122 s
  | RMS charge density error from multipole expansion :   0.223169E-02
  | Average real-space part of the electrostatic potential :     -0.34273629 eV

  Integrating Hamiltonian matrix: batch-based integration.
  Time summed over all CPUs for integration: real work        0.064 s, elapsed        0.064 s

  Updating Kohn-Sham eigenvalues, eigenvectors, occupation numbers, and Fermi level.
  Solving generalized eigenproblem

  Obtaining occupation numbers and chemical potential using ELSI.
  | Chemical potential (Fermi level):    -4.74748335eV
  What follows are estimated values for band gap, HOMO, LUMO, etc.
  | They are estimated on a discrete k-point grid and not necessarily exact.
  | For converged numbers, create a DOS and/or band structure plot on a denser k-grid.

  Highest occupied state (VBM) at     -4.76162366 eV (relative to internal zero)
  | Occupation number:      1.31080543
  | K-point:     100 at    0.083333    0.166667    0.833333 (in units of recip. lattice)

  Lowest unoccupied state (CBM) at    -4.74409952 eV (relative to internal zero)
  | Occupation number:      0.92375162
  | K-point:     163 at    0.083333    0.750000    0.833333 (in units of recip. lattice)

  ESTIMATED overall HOMO-LUMO gap:      0.01752414 eV between HOMO at k-point 100 and LUMO at k-point 163
  | This appears to be an indirect band gap.
  | Smallest direct gap :      0.78822056 eV for k_point 531 at    0.083333    0.750000    0.833333 (in units of recip. lattice)
  However, this system has fractional occupation numbers. Since we use a finite k-point grid,
  this material is metallic within the approximate finite broadening function (occupation_type)
  applied to determine the occupation numbers.

  Total energy components:
  | Sum of eigenvalues            :        -163.83225472 Ha       -4458.10247661 eV
  | XC energy correction          :         -19.59705166 Ha        -533.26290778 eV
  | XC potential correction       :          25.89306822 Ha         704.58623520 eV
  | Free-atom electrostatic energy:        -132.20358132 Ha       -3597.44248351 eV
  | Hartree energy correction     :           0.50403139 Ha          13.71539199 eV
  | Entropy correction            :          -0.00003130 Ha          -0.00085168 eV
  | ---------------------------
  | Total energy                  :        -289.23578808 Ha       -7870.50624070 eV
  | Total energy, T -> 0          :        -289.23581938 Ha       -7870.50709238 eV  <-- do not rely on this value for anything but (periodic) metals
  | Electronic free energy        :        -289.23585068 Ha       -7870.50794406 eV

  Derived energy quantities:
  | Kinetic energy                :         289.32108458 Ha        7872.82727644 eV
  | Electrostatic energy          :        -558.95982100 Ha      -15210.07060936 eV
  | Energy correction for multipole
  | error in Hartree potential    :           0.00025276 Ha           0.00687799 eV
  | Sum of eigenvalues per atom                           :       -4458.10247661 eV
[...]
  | Hartree multipole update                   :        0.000 s           0.001 s
  | Hartree multipole summation                :        0.124 s           0.124 s
  | Integration                                :        0.064 s           0.064 s
  | Solution of K.-S. eqns.                    :        0.097 s           0.097 s
  | Total energy evaluation                    :        0.000 s           0.000 s

  Partial memory accounting:
  | Current value for overall tracked memory usage on task 0  :           2.616 MB
  | Peak value for overall tracked memory usage on task 0     :           3.415 MB after allocating wave
  | Largest tracked array allocation on task 0 so far         :           2.500 MB  when allocating +KS_eigenvector_complex
  Note:  These values currently only include a subset of arrays which are explicitly tracked.
  The "true" memory usage will be greater.
------------------------------------------------------------

------------------------------------------------------------
          Begin self-consistency iteration #   11

  Date     :  20190514, Time     :  123653.272
------------------------------------------------------------
  Evaluating new KS density using the density matrix
  Evaluating density matrix
  Time summed over all CPUs for getting density from density matrix: real work        0.097 s, elapsed        0.097 s
  Integration grid: deviation in total charge (<rho> - N_e) =  -3.534950E-13
  Pulay mixing of updated and previous charge densities.

  Evaluating partitioned Hartree potential by multipole expansion.
  | Analytical far-field extrapolation by fixed multipoles:
  | Hartree multipole sum: apparent total charge =  -0.331686E-03
  Summing up the Hartree potential.
  Time summed over all CPUs for potential: real work        0.122 s, elapsed        0.122 s
  | RMS charge density error from multipole expansion :   0.223264E-02
  | Average real-space part of the electrostatic potential :     -0.34285134 eV

  Integrating Hamiltonian matrix: batch-based integration.
  Time summed over all CPUs for integration: real work        0.065 s, elapsed        0.065 s

  Updating Kohn-Sham eigenvalues, eigenvectors, occupation numbers, and Fermi level.
  Solving generalized eigenproblem

  Obtaining occupation numbers and chemical potential using ELSI.
  | Chemical potential (Fermi level):    -4.74761950eV
  What follows are estimated values for band gap, HOMO, LUMO, etc.
  | They are estimated on a discrete k-point grid and not necessarily exact.
  | For converged numbers, create a DOS and/or band structure plot on a denser k-grid.

  Highest occupied state (VBM) at     -4.76176120 eV (relative to internal zero)
  | Occupation number:      1.31083437
  | K-point:     166 at    0.083333    0.833333    0.166667 (in units of recip. lattice)

  Lowest unoccupied state (CBM) at    -4.74423911 eV (relative to internal zero)
  | Occupation number:      0.92382888
  | K-point:     113 at    0.083333    0.333333    0.250000 (in units of recip. lattice)

  ESTIMATED overall HOMO-LUMO gap:      0.01752209 eV between HOMO at k-point 166 and LUMO at k-point 113
  | This appears to be an indirect band gap.
  | Smallest direct gap :      0.78820947 eV for k_point 716 at    0.083333    0.333333    0.250000 (in units of recip. lattice)
  However, this system has fractional occupation numbers. Since we use a finite k-point grid,
  this material is metallic within the approximate finite broadening function (occupation_type)
  applied to determine the occupation numbers.

  Total energy components:
  | Sum of eigenvalues            :        -163.83246252 Ha       -4458.10813134 eV
  | XC energy correction          :         -19.59703689 Ha        -533.26250589 eV
  | XC potential correction       :          25.89304876 Ha         704.58570581 eV
  | Free-atom electrostatic energy:        -132.20358132 Ha       -3597.44248351 eV
  | Hartree energy correction     :           0.50424392 Ha          13.72117523 eV
  | Entropy correction            :          -0.00003130 Ha          -0.00085168 eV
  | ---------------------------
  | Total energy                  :        -289.23578805 Ha       -7870.50623969 eV
  | Total energy, T -> 0          :        -289.23581934 Ha       -7870.50709136 eV  <-- do not rely on this value for anything but (periodic) metals
  | Electronic free energy        :        -289.23585064 Ha       -7870.50794304 eV

  Derived energy quantities:
  | Kinetic energy                :         289.32099207 Ha        7872.82475907 eV
  | Electrostatic energy          :        -558.95974322 Ha      -15210.06849287 eV
  | Energy correction for multipole
  | error in Hartree potential    :           0.00025291 Ha           0.00688191 eV
  | Sum of eigenvalues per atom                           :       -4458.10813134 eV
  | Total energy (T->0) per atom                          :       -7870.50709136 eV  <-- do not rely on this value for anything but (periodic) metals
  | Electronic free energy per atom                       :       -7870.50794304 eV

  Self-consistency convergence accuracy:
  | Change of charge density      :  0.1152E-05
  | Change of sum of eigenvalues  : -0.3661E-03 eV
  | Change of total energy        :  0.3979E-07 eV

  End self-consistency iteration #    11       :  max(cpu_time)    wall_clock(cpu1)
  | Time for this iteration                    :        0.406 s           0.406 s
  | Charge density update                      :        0.106 s           0.106 s
  | Density mixing & preconditioning           :        0.012 s           0.013 s
  | Hartree multipole update                   :        0.000 s           0.000 s
  | Hartree multipole summation                :        0.124 s           0.124 s
  | Integration                                :        0.065 s           0.065 s
  | Solution of K.-S. eqns.                    :        0.098 s           0.097 s
  | Total energy evaluation                    :        0.000 s           0.001 s

  Partial memory accounting:
  | Current value for overall tracked memory usage on task 0  :           2.616 MB
  | Peak value for overall tracked memory usage on task 0     :           3.415 MB after allocating wave
  | Largest tracked array allocation on task 0 so far         :           2.500 MB  when allocating +KS_eigenvector_complex
  Note:  These values currently only include a subset of arrays which are explicitly tracked.
  The "true" memory usage will be greater.
------------------------------------------------------------

------------------------------------------------------------
          Begin self-consistency iteration #   12

  Date     :  20190514, Time     :  123653.678
------------------------------------------------------------
  Evaluating new KS density using the density matrix
  Evaluating density matrix
  Time summed over all CPUs for getting density from density matrix: real work        0.097 s, elapsed        0.097 s
  Integration grid: deviation in total charge (<rho> - N_e) =  -3.606004E-13
  Pulay mixing of updated and previous charge densities.

  Evaluating partitioned Hartree potential by multipole expansion.
  | Analytical far-field extrapolation by fixed multipoles:
  | Hartree multipole sum: apparent total charge =  -0.331071E-03
  Summing up the Hartree potential.
  Time summed over all CPUs for potential: real work        0.126 s, elapsed        0.126 s
  | RMS charge density error from multipole expansion :   0.223263E-02
  | Average real-space part of the electrostatic potential :     -0.34285573 eV

  Integrating Hamiltonian matrix: batch-based integration.
  Time summed over all CPUs for integration: real work        0.065 s, elapsed        0.065 s

  Updating Kohn-Sham eigenvalues, eigenvectors, occupation numbers, and Fermi level.
  Solving generalized eigenproblem

  Obtaining occupation numbers and chemical potential using ELSI.
  | Chemical potential (Fermi level):    -4.74762117eV
  What follows are estimated values for band gap, HOMO, LUMO, etc.
  | They are estimated on a discrete k-point grid and not necessarily exact.
  | For converged numbers, create a DOS and/or band structure plot on a denser k-grid.

  Highest occupied state (VBM) at     -4.76176288 eV (relative to internal zero)
  | Occupation number:      1.31083464
  | K-point:     176 at    0.083333    0.916667    0.250000 (in units of recip. lattice)

  Lowest unoccupied state (CBM) at    -4.74424085 eV (relative to internal zero)
  | Occupation number:      0.92383039
  | K-point:     839 at    0.916667    0.166667    0.250000 (in units of recip. lattice)

  ESTIMATED overall HOMO-LUMO gap:      0.01752203 eV between HOMO at k-point 176 and LUMO at k-point 839
  | This appears to be an indirect band gap.
  | Smallest direct gap :      0.78820925 eV for k_point 647 at    0.916667    0.166667    0.250000 (in units of recip. lattice)
  However, this system has fractional occupation numbers. Since we use a finite k-point grid,
  this material is metallic within the approximate finite broadening function (occupation_type)
  applied to determine the occupation numbers.

  Total energy components:
  | Sum of eigenvalues            :        -163.83246744 Ha       -4458.10826503 eV
  | XC energy correction          :         -19.59703620 Ha        -533.26248704 eV
  | XC potential correction       :          25.89304785 Ha         704.58568097 eV
  | Free-atom electrostatic energy:        -132.20358132 Ha       -3597.44248351 eV
  | Hartree energy correction     :           0.50424906 Ha          13.72131493 eV
  | Entropy correction            :          -0.00003130 Ha          -0.00085168 eV
  | ---------------------------
  | Total energy                  :        -289.23578805 Ha       -7870.50623967 eV
  | Total energy, T -> 0          :        -289.23581934 Ha       -7870.50709135 eV  <-- do not rely on this value for anything but (periodic) metals
  | Electronic free energy        :        -289.23585064 Ha       -7870.50794302 eV

  Derived energy quantities:
  | Kinetic energy                :         289.32098616 Ha        7872.82459829 eV
  | Electrostatic energy          :        -558.95973801 Ha      -15210.06835092 eV
  | Energy correction for multipole
  | error in Hartree potential    :           0.00025291 Ha           0.00688195 eV
  | Sum of eigenvalues per atom                           :       -4458.10826503 eV
  | Total energy (T->0) per atom                          :       -7870.50709135 eV  <-- do not rely on this value for anything but (periodic) metals
  | Electronic free energy per atom                       :       -7870.50794302 eV

  Self-consistency convergence accuracy:
  | Change of charge density      :  0.3639E-06
  | Change of sum of eigenvalues  : -0.1337E-03 eV
  | Change of total energy        :  0.1780E-07 eV

  Preliminary charge convergence reached. Turning off preconditioner.

  Writing Kohn-Sham eigenvalues.
  K-point:       1 at    0.000000    0.000000    0.000000 (in units of recip. lattice)

  State    Occupation    Eigenvalue [Ha]    Eigenvalue [eV]
      1       2.00000         -65.541770        -1783.48230
      2       2.00000          -5.129643         -139.58470
      3       2.00000          -3.544551          -96.45214
      4       2.00000          -3.544551          -96.45214
      5       2.00000          -3.544551          -96.45214
      6       2.00000          -0.444012          -12.08217
      7       0.00000          -0.102031           -2.77642
      8       0.00000          -0.102031           -2.77642
      9       0.00000          -0.102031           -2.77642
     10       0.00000           0.048454            1.31849

  What follows are estimated values for band gap, HOMO, LUMO, etc.
  | They are estimated on a discrete k-point grid and not necessarily exact.
  | For converged numbers, create a DOS and/or band structure plot on a denser k-grid.

  Highest occupied state (VBM) at     -4.76176288 eV (relative to internal zero)
  | Occupation number:      1.31083464
  | K-point:     176 at    0.083333    0.916667    0.250000 (in units of recip. lattice)

  Lowest unoccupied state (CBM) at    -4.74424085 eV (relative to internal zero)
  | Occupation number:      0.92383039
  | K-point:     839 at    0.916667    0.166667    0.250000 (in units of recip. lattice)

  ESTIMATED overall HOMO-LUMO gap:      0.01752203 eV between HOMO at k-point 176 and LUMO at k-point 839
  | This appears to be an indirect band gap.
  | Smallest direct gap :      0.78820925 eV for k_point 647 at    0.916667    0.166667    0.250000 (in units of recip. lattice)
  However, this system has fractional occupation numbers. Since we use a finite k-point grid,
  this material is metallic within the approximate finite broadening function (occupation_type)
  applied to determine the occupation numbers.

  Self-consistency cycle converged.

  End self-consistency iteration #    12       :  max(cpu_time)    wall_clock(cpu1)
  | Time for this iteration                    :        0.412 s           0.412 s
  | Charge density update                      :        0.106 s           0.106 s
  | Density mixing                             :        0.014 s           0.014 s
  | Hartree multipole update                   :        0.000 s           0.000 s
  | Hartree multipole summation                :        0.127 s           0.128 s
  | Integration                                :        0.065 s           0.065 s
  | Solution of K.-S. eqns.                    :        0.099 s           0.099 s
  | Total energy evaluation                    :        0.000 s           0.000 s

  Partial memory accounting:
  | Current value for overall tracked memory usage on task 0  :           2.616 MB
  | Peak value for overall tracked memory usage on task 0     :           3.415 MB after allocating wave
  | Largest tracked array allocation on task 0 so far         :           2.500 MB  when allocating +KS_eigenvector_complex
  Note:  These values currently only include a subset of arrays which are explicitly tracked.
  The "true" memory usage will be greater.
------------------------------------------------------------

  Energy and forces in a compact form:
  | Total energy uncorrected      :         -0.787050623966748E+04 eV
  | Total energy corrected        :         -0.787050709134578E+04 eV  <-- do not rely on this value for anything but (periodic) metals
  | Electronic free energy        :         -0.787050794302407E+04 eV

  ------------------------------------ 
  Start decomposition of the XC Energy 
  ------------------------------------ 
  X and C from original XC functional choice 
  Hartree-Fock Energy :          0.000000000 Ha              0.000000000 eV
  X Energy            :        -18.545513250 Ha           -504.649091791 eV
  C Energy            :         -1.051522948 Ha            -28.613395246 eV
  Total XC Energy     :        -19.597036198 Ha           -533.262487037 eV
  ------------------------------------ 
  LDA X and C from self-consistent density 
  X Energy LDA        :        -18.545513250 Ha           -504.649091791 eV
  C Energy LDA        :         -1.051522948 Ha            -28.613395246 eV
  ------------------------------------ 
  End decomposition of the XC Energy 
  ------------------------------------ 

------------------------------------------------------------

------------------------------------------------------------------------------
  Final output of selected total energy values:

  The following output summarizes some interesting total energy values
  at the end of a run (AFTER all relaxation, molecular dynamics, etc.).

  | Total energy of the DFT / Hartree-Fock s.c.f. calculation      :          -7870.506239667 eV
  | Final zero-broadening corrected energy (caution - metals only) :          -7870.507091346 eV
  | For reference only, the value of 1 Hartree used in FHI-aims is :             27.211384500 eV

  Before relying on these values, please be sure to understand exactly which
  total energy value is referred to by a given number. Different objects may
  all carry the same name 'total energy'. Definitions:

  Total energy of the DFT / Hartree-Fock s.c.f. calculation:
  | Note that this energy does not include ANY quantities calculated after the
  | s.c.f. cycle, in particular not ANY RPA, MP2, etc. many-body perturbation terms.

  Final zero-broadening corrected energy:
  | For metallic systems only, a broadening of the occupation numbers at the Fermi
  | level can be extrapolated back to zero broadening by an electron-gas inspired
  | formula. For all systems that are not real metals, this value can be
  | meaningless and should be avoided.

------------------------------------------------------------------------------
  Methods described in the following list of references were used in this FHI-aims run.
  If you publish the results, please make sure to cite these reference if they apply.
  FHI-aims is an academic code, and for our developers (often, Ph.D. students
  and postdocs), scientific credit in the community is essential.
  Thank you for helping us!

  For any use of FHI-aims, please cite:

    Volker Blum, Ralf Gehrke, Felix Hanke, Paula Havu, Ville Havu,
    Xinguo Ren, Karsten Reuter, and Matthias Scheffler
    'Ab initio molecular simulations with numeric atom-centered orbitals'
    Computer Physics Communications 180, 2175-2196 (2009)
    http://dx.doi.org/10.1016/j.cpc.2009.06.022


  For the real-space grid partitioning and parallelization used in this calculation, please cite:

    Ville Havu, Volker Blum, Paula Havu, and Matthias Scheffler,
    'Efficient O(N) integration for all-electron electronic structure calculation'
    'using numerically tabulated basis functions'
    Journal of Computational Physics 228, 8367-8379 (2009).
    http://dx.doi.org/10.1016/j.jcp.2009.08.008

  Of course, there are many other important community references, e.g., those cited in the
  above references. Our list is limited to references that describe implementations in the
  FHI-aims code. The reason is purely practical (length of this list) - please credit others as well.

------------------------------------------------------------
          Leaving FHI-aims.
          Date     :  20190514, Time     :  123654.095

          Computational steps:
          | Number of self-consistency cycles          :           12
          | Number of SCF (re)initializations          :            1

          Detailed time accounting                     :  max(cpu_time)    wall_clock(cpu1)
          | Total time                                 :        5.365 s           5.366 s
          | Preparation time                           :        0.099 s           0.099 s
          | Boundary condition initalization           :        0.030 s           0.031 s
          | Grid partitioning                          :        0.007 s           0.007 s
          | Preloading free-atom quantities on grid    :        0.001 s           0.001 s
          | Free-atom superposition energy             :        0.008 s           0.008 s
          | Total time for integrations                :        0.884 s           0.884 s
          | Total time for solution of K.-S. equations :        1.400 s           1.400 s
          | Total time for density update              :        1.286 s           1.287 s
          | Total time for mixing & preconditioning    :        0.147 s           0.146 s
          | Total time for Hartree multipole update    :        0.004 s           0.007 s
          | Total time for Hartree multipole sum       :        1.469 s           1.466 s
          | Total time for total energy evaluation     :        0.002 s           0.002 s
          | Total time for scaled ZORA corrections     :        0.000 s           0.000 s

 This is a stub MPI_ALLREDUCE call.
 You should not be here. Check your
 setting on the use_mpi variable, or
 link against true MPI-libraries.
