------------------------------------------------------------
          Invoking FHI-aims ...
          Version 171221_1
          Compiled on 2019/05/06 at 14:26:40 on host ffph0xx.

          When using FHI-aims, please cite the following reference:

          Volker Blum, Ralf Gehrke, Felix Hanke, Paula Havu,
          Ville Havu, Xinguo Ren, Karsten Reuter, and Matthias Scheffler,
          'Ab Initio Molecular Simulations with Numeric Atom-Centered Orbitals',
          Computer Physics Communications 180, 2175-2196 (2009)

          For any questions about FHI-aims, please visit the aimsclub website
          with its forums and wiki. Contributions to both the forums and the
          wiki are warmly encouraged - they are for you, and everyone is welcome there.

------------------------------------------------------------



  Date     :  20190514, Time     :  124319.692
  Time zero on CPU 1             :   0.617000000000000E-03  s.
  Internal wall clock time zero  :           327069799.692  s.

  FHI-aims created a unique identifier for this run for later identification
  aims_uuid : 07552488-57BE-4828-A175-B6C69402057F


  Performing system and environment tests:
  *** Environment variable OMP_NUM_THREADS is not set
  *** For performance reasons you might want to set it to 1
  | Stacksize not measured: no C compiler

  Obtaining array dimensions for all initial allocations:
  
  -----------------------------------------------------------------------
  Parsing control.in (first pass over file, find array dimensions only).
  The contents of control.in will be repeated verbatim below
  unless switched off by setting 'verbatim_writeout .false.' .
  in the first line of control.in .
  -----------------------------------------------------------------------
  
  #--- method ---
  xc pw-lda
  spin none
  relativistic atomic_zora scalar
  #---
  
  #--- k-grid settings ---
  k_grid 12 12 12
  #---
  
  
  
  
  
  
  
  
  
  
  
  #-------------------------------------------------------------------------------
  #--- Species defaults for Si
  #-------------------------------------------------------------------------------
  
  ################################################################################
  #
  #  FHI-aims code project
  #  VB, Fritz-Haber Institut, 2009
  #
  #  Suggested "light" defaults for Si atom (to be pasted into control.in file)
  #  Be sure to double-check any results obtained with these settings for post-processing,
  #  e.g., with the "tight" defaults and larger basis sets.
  #
  ################################################################################
    species        Si
  #     global species definitions
      nucleus             14
      mass                28.0855
  #
      l_hartree           4
  #
      cut_pot             3.5          1.5  1.0
      basis_dep_cutoff    1e-4
  #
      radial_base         42 5.0
      radial_multiplier   1
      angular_grids       specified
        division   0.5866   50
        division   0.9616  110
        division   1.2249  194
        division   1.3795  302
  #      division   1.4810  434
  #      division   1.5529  590
  #      division   1.6284  770
  #      division   1.7077  974
  #      division   2.4068 1202
  #      outer_grid   974
        outer_grid 302
  ################################################################################
  #
  #  Definition of "minimal" basis
  #
  ################################################################################
  #     valence basis states
      valence      3  s   2.
      valence      3  p   2.
  #     ion occupancy
      ion_occ      3  s   1.
      ion_occ      3  p   1.
  ################################################################################
  #
  #  Suggested additional basis functions. For production calculations,
  #  uncomment them one after another (the most important basis functions are
  #  listed first).
  #
  #  Constructed for dimers: 1.75 A, 2.0 A, 2.25 A, 2.75 A, 3.75 A
  #
  ################################################################################
  #  "First tier" - improvements: -571.96 meV to -37.03 meV
       hydro 3 d 4.2
       hydro 2 p 1.4
  #     hydro 4 f 6.2
       ionic 3 s auto
  #  "Second tier" - improvements: -16.76 meV to -3.03 meV
  #     hydro 3 d 9
  #     hydro 5 g 9.4
  #     hydro 4 p 4
  #     hydro 1 s 0.65
  #  "Third tier" - improvements: -3.89 meV to -0.60 meV
  #     ionic 3 d auto
  #     hydro 3 s 2.6
  #     hydro 4 f 8.4
  #     hydro 3 d 3.4
  #     hydro 3 p 7.8
  #  "Fourth tier" - improvements: -0.33 meV to -0.11 meV
  #     hydro 2 p 1.6
  #     hydro 5 g 10.8
  #     hydro 5 f 11.2
  #     hydro 3 d 1
  #     hydro 4 s 4.5
  #  Further basis functions that fell out of the optimization - noise
  #  level... < -0.08 meV
  #     hydro 4 d 6.6
  #     hydro 5 g 16.4
  #     hydro 4 d 9
  
  -----------------------------------------------------------------------
  Completed first pass over input file control.in .
  -----------------------------------------------------------------------
  
  
  -----------------------------------------------------------------------
  Parsing geometry.in (first pass over file, find array dimensions only).
  The contents of geometry.in will be repeated verbatim below
  unless switched off by setting 'verbatim_writeout .false.' .
  in the first line of geometry.in .
  -----------------------------------------------------------------------
  
  lattice_vector   0.000000   3.350000   3.350000
  lattice_vector   3.350000   0.000000   3.350000
  lattice_vector   3.350000   3.350000   0.000000
  atom_frac   0.000000   0.000000   0.000000 Si
  atom_frac   0.250000   0.250000   0.250000 Si
  
  -----------------------------------------------------------------------
  Completed first pass over input file geometry.in .
  -----------------------------------------------------------------------
  

  Basic array size parameters:
  | Number of species                 :        1
  | Number of atoms                   :        2
  | Number of lattice vectors         :        3
  | Max. basis fn. angular momentum   :        2
  | Max. atomic/ionic basis occupied n:        3
  | Max. number of basis fn. types    :        3
  | Max. radial fns per species/type  :        5
  | Max. logarithmic grid size        :     1346
  | Max. radial integration grid size :       42
  | Max. angular integration grid size:      302
  | Max. angular grid division number :        8
  | Radial grid for Hartree potential :     1346
  | Number of spin channels           :        1

------------------------------------------------------------
          Reading file control.in.
------------------------------------------------------------
  XC: Using Perdew-Wang parametrisation of Ceperley-Alder LDA.
  Spin treatment: No spin polarisation.
  Scalar relativistic treatment of kinetic energy: on-site free-atom approximation to ZORA.
  Found k-point grid:        12        12        12

  Reading configuration options for species Si                  .
  | Found nuclear charge :  14.0000
  | Found atomic mass :    28.085500000000000      amu
  | Found l_max for Hartree potential  :   4
  | Found cutoff potl. onset [A], width [A], scale factor :    3.50000    1.50000    1.00000
  | Threshold for basis-dependent cutoff potential is   0.100000E-03
  | Found data for basic radial integration grid :    42 points, outermost radius =    5.000 A
  | Found multiplier for basic radial grid :   1
  | Found angular grid specification: user-specified.
  | Specified grid contains     5 separate shells.
  | Check grid settings after all constraints further below.
  | Found free-atom valence shell :  3 s   2.000
  | Found free-atom valence shell :  3 p   2.000
  | Found free-ion valence shell :  3 s   1.000
  | Found free-ion valence shell :  3 p   1.000
  | Found hydrogenic basis function :  3 d   4.200
  | Found hydrogenic basis function :  2 p   1.400
  | Found ionic basis function :  3 s , default cutoff radius.
  Species Si                  : Missing cutoff potential type.
  Defaulting to exp(1/x)/(1-x)^2 type cutoff potential.
  Species Si: No 'logarithmic' tag. Using default grid for free atom:
  | Default logarithmic grid data [bohr] : 0.1000E-03 0.1000E+03 0.1012E+01
  | Will include ionic basis functions of  2.0-fold positive Si                   ion.
  Species Si: On-site basis accuracy parameter (for Gram-Schmidt orthonormalisation) not specified.
  Using default value basis_acc =  0.1000000E-03.
  Species Si                  : Using default innermost maximum threshold i_radial=  2 for radial functions.
  Species Si                  : Default cutoff onset for free atom density etc. : 0.35000000E+01 AA.
  Species Si                  : Basic radial grid will be enhanced according to radial_multiplier =   1, to contain    42 grid points.

  Finished reading input file 'control.in'. Consistency checks are next.

  MPI_IN_PLACE appears to work with this MPI implementation.
  | Keeping use_mpi_in_place .true. (see manual).
  Target number of points in a grid batch is not set. Defaulting to  100
  Method for grid partitioning is not set. Defaulting to 'maxmin' partitioning.
  Batch size limit is not set. Defaulting to    200
  By default, will store active basis functions for each batch.
  If in need of memory, prune_basis_once .false. can be used to disable this option.
  communication_type for Hartree potential was not specified.
  Defaulting to calc_hartree .
 * Attention: 
 * You may want to set distributed_spline_storage to .true. in order to save memory.
 * This doesn't harm performance and is perfectly ok unless:
 * - you get error messages in postprocessing (about missing atoms in get_rho_multipole_spl)
 * - you need full spline storage in hirshfeld_analysis
  Defaulting to Pulay charge density mixer.
  Pulay mixer: Number of relevant iterations not set.
  Defaulting to    8 iterations.
  Pulay mixer: Number of initial linear mixing iterations not set.
  Defaulting to    0 iterations.
  Work space size for distributed Hartree potential not set.
  Defaulting to   0.200000E+03 MB.
  Mixing parameter for charge density mixing has not been set.
  Using default: charge_mix_param =     0.0500.
  The mixing parameter will be adjusted in iteration number     2 of the first full s.c.f. cycle only.
  Algorithm-dependent basis array size parameters:
  | n_max_pulay                         :        8
 * Notice: The s.c.f. convergence criterion sc_accuracy_rho was not provided.
 * We used to stop in this case, and ask the user to provide reasonable
 * scf convergence criteria. However, this led some users to employ criteria
 * that led to extremely long run times, e.g., for simple relaxation.
 * We now preset a default value for sc_accuracy_rho if it is not set.
 * You may still wish to check if this setting is too tight or too loose for your needs.
 * Based on n_atoms, FHI-aims chose sc_accuracy_rho =  0.100000E-05 .
  Maximum number of self-consistency iterations not provided.
  Presetting  1000 iterations.
  Presetting      1001 iterations before the initial mixing cycle
  is restarted anyway using the sc_init_iter criterion / keyword.
  Presetting a factor      1.000 between actual scf density residual
  and density convergence criterion sc_accuracy_rho below which sc_init_iter
  takes no effect.
 * No s.c.f. convergence criteria (sc_accuracy_*) were provided in control.in.
 * The run will proceed with a reasonable default guess, but please check whether.
 * the s.c.f. cycles seem to take too much or too little time.
  Calculation of forces was not defined in control.in. No forces will be calculated.
  Geometry relaxation not requested: no relaxation will be performed.
  No accuracy limit for integral partition fn. given. Defaulting to  0.1000E-14.
  No threshold value for u(r) in integrations given. Defaulting to  0.1000E-05.
  No occupation type (smearing scheme) given. Defaulting to Gaussian broadening, width =  0.1000E-01 eV.
  The width will be adjusted in iteration number     2 of the first full s.c.f. cycle only.
  S.C.F. convergence parameters will be adjusted in iteration number     2 of the first full s.c.f. cycle only.
  No accuracy for occupation numbers given. Defaulting to  0.1000E-12.
  No threshold value for occupation numbers given. Defaulting to  0.0000E+00.
  No accuracy for fermi level given. Defaulting to  0.1000E-19.
  Maximum # of iterations to find E_F not set. Defaulting to  200.
  Preferred method for the eigenvalue solver ('KS_method') not specified in 'control.in'.
  Defaulting to serial version, 'lapack_fast'.
  Will not use alltoall communication since running on < 1024 CPUs.
  Threshold for basis singularities not set.
  Default threshold for basis singularities:  0.1000E-04
  partition_type (choice of integration weights) for integrals was not specified.
  | Using a version of the partition function of Stratmann and coworkers ('stratmann_smoother').
  | At each grid point, the set of atoms used to build the partition table is smoothly restricted to
  | only those atoms whose free-atom density would be non-zero at that grid point.
  Partitioning for Hartree potential was not defined. Using partition_type for integrals.
  | Adjusted default value of keyword multip_moments_threshold to:       0.10000000E-11
  | This value may affect high angular momentum components of the Hartree potential in periodic systems.
  Angular momentum expansion for Kerker preconditioner not set explicitly.
  | Using default value of   0
  No explicit requirement for turning off preconditioner.
  | By default, it will be turned off when the charge convergence reaches
  | sc_accuracy_rho  =   0.100000E-05
  No special mixing parameter while Kerker preconditioner is on.
  Using default: charge_mix_param =     0.0500.
  No q(lm)/r^(l+1) cutoff set for long-range Hartree potential.
  | Using default value of  0.100000E-09 .
  | Verify using the multipole_threshold keyword.
  Defaulting to new monopole extrapolation.
  Density update method: automatic selection selected.
  Using density matrix based charge density update.
  Using density matrix based charge density update.
  Using packed matrix style: index .
  Defaulting to use time-reversal symmetry for k-point grid.
------------------------------------------------------------


------------------------------------------------------------
          Reading geometry description geometry.in.
------------------------------------------------------------
  Input structure read successfully.
  The structure contains        2 atoms,  and a total of         28.000 electrons.

  Input geometry:
  | Unit cell:
  |        0.00000000        3.35000000        3.35000000
  |        3.35000000        0.00000000        3.35000000
  |        3.35000000        3.35000000        0.00000000
  | Atomic structure:
  |       Atom                x [A]            y [A]            z [A]
  |    1: Species Si            0.00000000        0.00000000        0.00000000
  |    2: Species Si            1.67500000        1.67500000        1.67500000

  Lattice parameters for 3D lattice (in Angstroms) :     4.737615    4.737615    4.737615
  Angle(s) between unit vectors (in degrees)      :    60.000000   60.000000   60.000000

  |

  | The smallest distance between any two atoms is         2.90118510 AA.
  |
  | The first atom of this pair is atom number                      1 .
  | The second atom of this pair is atom number                     2 .
  | Wigner-Seitz cell of the first atom image           0     0     0 .
  | (The Wigner-Seitz cell of the second atom is 0 0 0  by definition.)

  Quantities derived from the lattice vectors:
  | Reciprocal lattice vector 1: -0.937789  0.937789  0.937789
  | Reciprocal lattice vector 2:  0.937789 -0.937789  0.937789
  | Reciprocal lattice vector 3:  0.937789  0.937789 -0.937789
  | Unit cell volume                               :   0.751908E+02  A^3

  Range separation radius for Ewald summation (hartree_convergence_parameter):      4.87296350 bohr.

  Fractional coordinates:
                         L1                L2                L3
       atom_frac         0.00000000        0.00000000        0.00000000  Si
       atom_frac         0.25000000        0.25000000        0.25000000  Si

  Number of empty states per atom not set in control.in - providing a guess from actual geometry.
  | Total number of empty states used during s.c.f. cycle:        6
  If you use a very high smearing, use empty_states (per atom!) in control.in to increase this value.

  Structure-dependent array size parameters: 
  | Maximum number of distinct radial functions  :        8
  | Maximum number of basis functions            :       36
  | Number of Kohn-Sham states (occupied + empty):       20
------------------------------------------------------------

------------------------------------------------------------
          Preparing all fixed parts of the calculation.
------------------------------------------------------------
  Determining machine precision:
     2.2250738585072014E-308
  Setting up grids for atomic and cluster calculations.

  Creating wave function, potential, and density for free atoms.

  Species: Si

  List of occupied orbitals and eigenvalues:
    n    l              occ      energy [Ha]    energy [eV]
    1    0           2.0000       -65.491668     -1782.1190
    2    0           2.0000        -5.087967      -138.4506
    3    0           2.0000        -0.391471       -10.6525
    2    1           6.0000        -3.502246       -95.3010
    3    1           2.0000        -0.143943        -3.9169

  Creating fixed part of basis set: Ionic, confined, hydrogenic.

  Si                   ion:

  List of free ionic orbitals and eigenvalues:
    n    l      energy [Ha]    energy [eV]
    1    0       -66.364436     -1805.8682
    2    0        -5.935799      -161.5213
    3    0        -1.078166       -29.3384
    2    1        -4.351123      -118.4001
    3    1        -0.781733       -21.2720


  List of ionic basis orbitals and eigenvalues:
    n    l      energy [Ha]    energy [eV]    outer radius [A]
    3    0        -1.078146       -29.3378       4.214062


  Si                   hydrogenic:

  List of hydrogenic basis orbitals: 
    n    l      effective z      eigenvalue [eV]  inner max. [A]     outer max. [A]     outer radius [A]   
    3    2         4.200000       -26.6624           1.139231           1.139231           4.534782
    2    1         1.400000        -6.4613           1.472672           1.472672           4.590560


  Adding cutoff potential to free-atom effective potential.
  Creating atomic-like basis functions for current effective potential.

  Species Si                  :

  List of atomic basis orbitals and eigenvalues:
    n    l      energy [Ha]    energy [eV]    outer radius [A]
    1    0       -65.491668     -1782.1190       0.789468
    2    0        -5.087967      -138.4506       2.815114
    3    0        -0.391471       -10.6525       4.534782
    2    1        -3.502246       -95.3010       3.259919
    3    1        -0.143943        -3.9169       4.590560

  Assembling full basis from fixed parts.
  | Species Si :   atomic orbital   1 s accepted.
  | Species Si :   atomic orbital   2 s accepted.
  | Species Si :    ionic orbital   3 s accepted.
  | Species Si :   atomic orbital   3 s accepted.
  | Species Si :   atomic orbital   2 p accepted.
  | Species Si :   atomic orbital   3 p accepted.
  | Species Si :    hydro orbital   2 p accepted.
  | Species Si :    hydro orbital   3 d accepted.

  Basis size parameters after reduction:
  | Total number of radial functions:        8
  | Total number of basis functions :       36

  Per-task memory consumption for arrays in subroutine allocate_ext:
  |           2.757868MB.
  Testing on-site integration grid accuracy.
  |  Species  Function  <phi|h_atom|phi> (log., in eV)  <phi|h_atom|phi> (rad., in eV)
           1        1              -1782.1189727076              -1782.1182429251
           1        2               -138.4506350693               -138.4506310079
           1        3                -10.3030408815                -10.3029120678
           1        4                  5.0238999146                  4.9457540310 ***
           1        5                -95.3009689499                -95.3009689315
           1        6                 -3.9266496564                 -3.9420918374
           1        7                  6.3453628447                  6.1632372158 ***
           1        8                  6.2883050744                  6.2861881409
 * Note: Onsite integrals marked "***" above are less accurate than
 * onsite_accuracy_threshold =    0.03000 eV. Usually, this is harmless.
 * When in doubt, tighten the "radial" and/or "radial_multiplier" flags to check.

  Preparing densities etc. for the partition functions (integrals / Hartree potential).

  Preparations completed.
  max(cpu_time)          :      0.092 s.
  Wall clock time (cpu1) :      0.092 s.
------------------------------------------------------------

------------------------------------------------------------
          Begin self-consistency loop: Initialization.

          Date     :  20190514, Time     :  124319.785
------------------------------------------------------------

  Initializing index lists of integration centers etc. from given atomic structure:
  Mapping all atomic coordinates to central unit cell.

  Initializing the k-points
          Using symmetry for reducing the k-points
  | k-points reduced from:     1728 to      868
  | Number of k-points                             :       868
  The eigenvectors in the calculations are COMPLEX.
  | K-points in task   0:       868
  | Number of basis functions in the Hamiltonian integrals :       794
  | Number of basis functions in a single unit cell        :        36
  | Number of centers in hartree potential         :       594
  | Number of centers in hartree multipole         :       172
  | Number of centers in electron density summation:       124
  | Number of centers in basis integrals           :       124
  | Number of centers in integrals                 :        54
  | Number of centers in hamiltonian               :       124
  | Consuming        949 KiB for k_phase.
  | Number of super-cells (origin) [n_cells]                     :        1331
  | Number of super-cells (after PM_index) [n_cells]             :          70
  | Number of super-cells in hamiltonian [n_cells_in_hamiltonian]:          70
  | Size of matrix packed + index [n_hamiltonian_matrix_size] :       23479
  Partitioning the integration grid into batches with maxmin method.
  | Maximal weight for a single point:     1.000
  | Minimal weight for a single point:     0.554
  | Number of batches:      128
  | Maximal batch size:      90
  | Minimal batch size:      85
  | Average batch size:      87.562
  | Standard deviation of batch sizes:       1.493
  Initializing partition tables, free-atom densities, potentials, etc. across the integration grid (initialize_grid_storage).
  | initialize_grid_storage: Actual outermost partition radius vs. multipole_radius_free
  | (-- VB: in principle, multipole_radius_free should be larger, hence this output)
  | Species        1: Confinement radius =              4.999999999999999 AA, multipole_radius_free =              5.000694715736543 AA.
  | Species        1: outer_partition_radius set to              5.000694715736543 AA .
  | Original list of interatomic distances with         124 x        124 entries is created.
  | Net number of integration points:    11208
  | of which are non-zero points    :    10424
  | Numerical average free-atom electrostatic potential    :     -6.99748229 eV
  Renormalizing the initial density to the exact electron count on the 3D integration grid.
  | Initial density: Formal number of electrons (from input files) :      28.0000000000
  | Integrated number of electrons on 3D grid     :      28.0010924089
  | Charge integration error                      :       0.0010924089
  | Normalization factor for density and gradient :       0.9999609869
  Obtaining max. number of non-zero basis functions in each batch (get_n_compute_maxes).
  | Maximal number of non-zero basis functions:      266 in task     0
  Allocating        9.999 MB for KS_eigenvector_complex
  Integrating Hamiltonian matrix: batch-based integration.
  Time summed over all CPUs for integration: real work        0.186 s, elapsed        0.186 s
  Integrating overlap matrix.
  Time summed over all CPUs for integration: real work        0.134 s, elapsed        0.134 s
  Decreasing sparse matrix size:
   Tolerance:   9.9999998245167004E-014
   Hamiltonian matrix
  | Array has    19458 nonzero elements out of    23479 elements
  | Sparsity factor is 0.171
   Overlap matrix
  | Array has    18948 nonzero elements out of    23479 elements
  | Sparsity factor is 0.193
  New size of hamiltonian matrix:       19715

  Updating Kohn-Sham eigenvalues, eigenvectors, occupation numbers, and Fermi level.
  Solving generalized eigenproblem
  Transforming overlap matrix and checking for singularities.
  Overlap matrix is nonsingular at first k-point:
  | Lowest eigenvalue:  0.364959E-01

  Obtaining occupation numbers and chemical potential using ELSI.
  | Chemical potential (Fermi level):    -5.39111678eV
  Writing Kohn-Sham eigenvalues.
  K-point:       1 at    0.000000    0.000000    0.000000 (in units of recip. lattice)

  State    Occupation    Eigenvalue [Ha]    Eigenvalue [eV]
      1       2.00000         -65.494309        -1782.19083
      2       2.00000         -65.494309        -1782.19083
      3       2.00000          -5.091578         -138.54888
      4       2.00000          -5.091568         -138.54861
      5       2.00000          -3.505840          -95.39877
      6       2.00000          -3.505840          -95.39877
      7       2.00000          -3.505840          -95.39877
      8       2.00000          -3.505803          -95.39774
      9       2.00000          -3.505803          -95.39774
     10       2.00000          -3.505803          -95.39774
     11       2.00000          -0.515116          -14.01701
     12       2.00000          -0.276593           -7.52649
     13       0.00000          -0.195262           -5.31334
     14       0.00000          -0.195262           -5.31334
     15       0.00000          -0.195262           -5.31334
     16       0.00000          -0.117161           -3.18812
     17       0.00000          -0.117161           -3.18812
     18       0.00000          -0.117161           -3.18812
     19       0.00000           0.098856            2.69002
     20       0.00000           0.098856            2.69002

  What follows are estimated values for band gap, HOMO, LUMO, etc.
  | They are estimated on a discrete k-point grid and not necessarily exact.
  | For converged numbers, create a DOS and/or band structure plot on a denser k-grid.

  Highest occupied state (VBM) at     -5.39448669 eV (relative to internal zero)
  | Occupation number:      1.36633719
  | K-point:      85 at    0.083333    0.083333    0.166667 (in units of recip. lattice)

  Lowest unoccupied state (CBM) at    -5.38254182 eV (relative to internal zero)
  | Occupation number:      0.22525135
  | K-point:     868 at    0.916667    0.916667    0.916667 (in units of recip. lattice)

  ESTIMATED overall HOMO-LUMO gap:      0.01194487 eV between HOMO at k-point 85 and LUMO at k-point 868
  | This appears to be an indirect band gap.
  | Smallest direct gap :      0.38050535 eV for k_point 183 at    0.916667    0.916667    0.916667 (in units of recip. lattice)
  However, this system has fractional occupation numbers. Since we use a finite k-point grid,
  this material is metallic within the approximate finite broadening function (occupation_type)
  applied to determine the occupation numbers.
  Calculating total energy contributions from superposition of free atom densities.

  Total energy components:
  | Sum of eigenvalues            :        -327.09322904 Ha       -8900.65962269 eV
  | XC energy correction          :         -39.41057806 Ha       -1072.41639289 eV
  | XC potential correction       :          52.07005139 Ha        1416.89818936 eV
  | Free-atom electrostatic energy:        -264.20100311 Ha       -7189.27508092 eV
  | Hartree energy correction     :          -0.00000000 Ha          -0.00000000 eV
  | Entropy correction            :          -0.00000110 Ha          -0.00003001 eV
  | ---------------------------
  | Total energy                  :        -578.63475881 Ha      -15745.45290714 eV
  | Total energy, T -> 0          :        -578.63475992 Ha      -15745.45293715 eV  <-- do not rely on this value for anything but (periodic) metals
  | Electronic free energy        :        -578.63476102 Ha      -15745.45296716 eV

  Derived energy quantities:
  | Kinetic energy                :         579.19738697 Ha       15760.76279815 eV
  | Electrostatic energy          :       -1118.42156772 Ha      -30433.79931240 eV
  | Energy correction for multipole
  | error in Hartree potential    :           0.00000000 Ha           0.00000000 eV
  | Sum of eigenvalues per atom                           :       -4450.32981135 eV
  | Total energy (T->0) per atom                          :       -7872.72646858 eV  <-- do not rely on this value for anything but (periodic) metals
  | Electronic free energy per atom                       :       -7872.72648358 eV
  Initialize hartree_potential_storage
  Max. number of atoms included in rho_multipole:            2

  End scf initialization - timings             :  max(cpu_time)    wall_clock(cpu1)
  | Time for scf. initialization               :        1.383 s           1.382 s
  | Boundary condition initialization          :        0.033 s           0.033 s
  | Integration                                :        0.319 s           0.320 s
  | Solution of K.-S. eqns.                    :        0.927 s           0.927 s
  | Grid partitioning                          :        0.020 s           0.020 s
  | Preloading free-atom quantities on grid    :        0.001 s           0.001 s
  | Free-atom superposition energy             :        0.019 s           0.019 s
  | Total energy evaluation                    :        0.000 s           0.000 s

  Partial memory accounting:
  | Current value for overall tracked memory usage on task 0  :          10.394 MB
  | Peak value for overall tracked memory usage on task 0     :          11.610 MB after allocating wave
  | Largest tracked array allocation on task 0 so far         :           9.999 MB  when allocating +KS_eigenvector_complex
  Note:  These values currently only include a subset of arrays which are explicitly tracked.
  The "true" memory usage will be greater.
------------------------------------------------------------

------------------------------------------------------------
          Begin self-consistency iteration #    1

  Date     :  20190514, Time     :  124321.167
------------------------------------------------------------
  Evaluating new KS density using the density matrix
  Evaluating density matrix
  Time summed over all CPUs for getting density from density matrix: real work        0.307 s, elapsed        0.307 s
  Integration grid: deviation in total charge (<rho> - N_e) =   8.476775E-12
  Pulay mixing of updated and previous charge densities.

  Evaluating partitioned Hartree potential by multipole expansion.
  | Analytical far-field extrapolation by fixed multipoles:
  | Hartree multipole sum: apparent total charge =   0.131502E-02
  Summing up the Hartree potential.
  | Estimated reciprocal-space cutoff momentum G_max:         1.89481045 bohr^-1 .
  | Reciprocal lattice points for long-range Hartree potential:      58
  Time summed over all CPUs for potential: real work        0.322 s, elapsed        0.322 s
  | RMS charge density error from multipole expansion :   0.129524E-03
  | Average real-space part of the electrostatic potential :     -0.00584787 eV

  Integrating Hamiltonian matrix: batch-based integration.
  Time summed over all CPUs for integration: real work        0.188 s, elapsed        0.188 s

  Updating Kohn-Sham eigenvalues, eigenvectors, occupation numbers, and Fermi level.
  Solving generalized eigenproblem

  Obtaining occupation numbers and chemical potential using ELSI.
  | Chemical potential (Fermi level):    -5.38871115eV
  Writing Kohn-Sham eigenvalues.
  K-point:       1 at    0.000000    0.000000    0.000000 (in units of recip. lattice)

  State    Occupation    Eigenvalue [Ha]    Eigenvalue [eV]
      1       2.00000         -65.496571        -1782.25239
      2       2.00000         -65.496571        -1782.25239
      3       2.00000          -5.092731         -138.58026
      4       2.00000          -5.092721         -138.57999
      5       2.00000          -3.507048          -95.43164
      6       2.00000          -3.507048          -95.43164
      7       2.00000          -3.507048          -95.43164
      8       2.00000          -3.507011          -95.43061
      9       2.00000          -3.507011          -95.43061
     10       2.00000          -3.507011          -95.43061
     11       2.00000          -0.515070          -14.01576
     12       2.00000          -0.276633           -7.52757
     13       0.00000          -0.195172           -5.31089
     14       0.00000          -0.195172           -5.31089
     15       0.00000          -0.195172           -5.31089
     16       0.00000          -0.117131           -3.18729
     17       0.00000          -0.117131           -3.18729
     18       0.00000          -0.117131           -3.18729
     19       0.00000           0.098936            2.69217
     20       0.00000           0.098936            2.69217

  What follows are estimated values for band gap, HOMO, LUMO, etc.
  | They are estimated on a discrete k-point grid and not necessarily exact.
  | For converged numbers, create a DOS and/or band structure plot on a denser k-grid.

  Highest occupied state (VBM) at     -5.39208127 eV (relative to internal zero)
  | Occupation number:      1.36635882
  | K-point:     832 at    0.833333    0.916667    0.916667 (in units of recip. lattice)

  Lowest unoccupied state (CBM) at    -5.38013583 eV (relative to internal zero)
  | Occupation number:      0.22523194
  | K-point:       8 at    0.000000    0.083333    0.000000 (in units of recip. lattice)

  ESTIMATED overall HOMO-LUMO gap:      0.01194545 eV between HOMO at k-point 832 and LUMO at k-point 8
  | This appears to be an indirect band gap.
  | Smallest direct gap :      0.37917383 eV for k_point 7 at    0.000000    0.083333    0.000000 (in units of recip. lattice)
  However, this system has fractional occupation numbers. Since we use a finite k-point grid,
  this material is metallic within the approximate finite broadening function (occupation_type)
  applied to determine the occupation numbers.

  Total energy components:
  | Sum of eigenvalues            :        -327.12095383 Ha       -8901.41405266 eV
  | XC energy correction          :         -39.40921347 Ha       -1072.37926047 eV
  | XC potential correction       :          52.06824153 Ha        1416.84894054 eV
  | Free-atom electrostatic energy:        -264.20100311 Ha       -7189.27508092 eV
  | Hartree energy correction     :           0.02828628 Ha           0.76970887 eV
  | Entropy correction            :          -0.00000110 Ha          -0.00003001 eV
  | ---------------------------
  | Total energy                  :        -578.63464259 Ha      -15745.44974463 eV
  | Total energy, T -> 0          :        -578.63464370 Ha      -15745.44977463 eV  <-- do not rely on this value for anything but (periodic) metals
  | Electronic free energy        :        -578.63464480 Ha      -15745.44980464 eV

  Derived energy quantities:
  | Kinetic energy                :         579.13984112 Ha       15759.19689611 eV
  | Electrostatic energy          :       -1118.36527025 Ha      -30432.26738026 eV
  | Energy correction for multipole
  | error in Hartree potential    :           0.00007556 Ha           0.00205607 eV
  | Sum of eigenvalues per atom                           :       -4450.70702633 eV
  | Total energy (T->0) per atom                          :       -7872.72488732 eV  <-- do not rely on this value for anything but (periodic) metals
  | Electronic free energy per atom                       :       -7872.72490232 eV

  Self-consistency convergence accuracy:
  | Change of charge density      :  0.5680E-01
  | Change of sum of eigenvalues  : -0.7544E+00 eV
  | Change of total energy        :  0.3163E-02 eV

  End self-consistency iteration #     1       :  max(cpu_time)    wall_clock(cpu1)
  | Time for this iteration                    :        1.333 s           1.334 s
  | Charge density update                      :        0.345 s           0.346 s
  | Density mixing & preconditioning           :        0.038 s           0.037 s
  | Hartree multipole update                   :        0.001 s           0.001 s
  | Hartree multipole summation                :        0.326 s           0.326 s
  | Integration                                :        0.188 s           0.188 s
  | Solution of K.-S. eqns.                    :        0.435 s           0.435 s
  | Total energy evaluation                    :        0.000 s           0.001 s

  Partial memory accounting:
  | Current value for overall tracked memory usage on task 0  :          10.394 MB
  | Peak value for overall tracked memory usage on task 0     :          11.610 MB after allocating wave
  | Largest tracked array allocation on task 0 so far         :           9.999 MB  when allocating +KS_eigenvector_complex
  Note:  These values currently only include a subset of arrays which are explicitly tracked.
  The "true" memory usage will be greater.
------------------------------------------------------------

------------------------------------------------------------
          Begin self-consistency iteration #    2

  Date     :  20190514, Time     :  124322.501
------------------------------------------------------------
  Evaluating new KS density using the density matrix
  Evaluating density matrix
  Time summed over all CPUs for getting density from density matrix: real work        0.307 s, elapsed        0.307 s
  Integration grid: deviation in total charge (<rho> - N_e) =   8.277823E-12
  Pulay mixing of updated and previous charge densities.

  Evaluating partitioned Hartree potential by multipole expansion.
  | Analytical far-field extrapolation by fixed multipoles:
  | Hartree multipole sum: apparent total charge =   0.526810E-02
  Summing up the Hartree potential.
  Time summed over all CPUs for potential: real work        0.401 s, elapsed        0.401 s
  | RMS charge density error from multipole expansion :   0.256778E-02
  | Average real-space part of the electrostatic potential :     -0.03841977 eV

  Integrating Hamiltonian matrix: batch-based integration.
  Time summed over all CPUs for integration: real work        0.187 s, elapsed        0.187 s

  Updating Kohn-Sham eigenvalues, eigenvectors, occupation numbers, and Fermi level.
  Solving generalized eigenproblem

  Obtaining occupation numbers and chemical potential using ELSI.
  | Chemical potential (Fermi level):    -5.29814520eV
  What follows are estimated values for band gap, HOMO, LUMO, etc.
  | They are estimated on a discrete k-point grid and not necessarily exact.
  | For converged numbers, create a DOS and/or band structure plot on a denser k-grid.

  Highest occupied state (VBM) at     -5.30138231 eV (relative to internal zero)
  | Occupation number:      1.35290181
  | K-point:      85 at    0.083333    0.083333    0.166667 (in units of recip. lattice)

  Lowest unoccupied state (CBM) at    -5.28975356 eV (relative to internal zero)
  | Occupation number:      0.23532366
  | K-point:       8 at    0.000000    0.083333    0.000000 (in units of recip. lattice)

  ESTIMATED overall HOMO-LUMO gap:      0.01162875 eV between HOMO at k-point 85 and LUMO at k-point 8
  | This appears to be an indirect band gap.
  | Smallest direct gap :      0.35240081 eV for k_point 183 at    0.000000    0.083333    0.000000 (in units of recip. lattice)
  However, this system has fractional occupation numbers. Since we use a finite k-point grid,
  this material is metallic within the approximate finite broadening function (occupation_type)
  applied to determine the occupation numbers.

  Checking to see if s.c.f. parameters should be adjusted.
  Adjusted the Pulay mixing parameter (charge_mix_param) for an expected low-gap system. New value:   0.020000 .
  Adjusted the occupation broadening width for an expected low-gap system. New value:      0.05000000 eV.

  Total energy components:
  | Sum of eigenvalues            :        -327.36569756 Ha       -8908.07386853 eV
  | XC energy correction          :         -39.38799399 Ha       -1071.80184907 eV
  | XC potential correction       :          52.04005105 Ha        1416.08183857 eV
  | Free-atom electrostatic energy:        -264.20100311 Ha       -7189.27508092 eV
  | Hartree energy correction     :           0.28104719 Ha           7.64768316 eV
  | Entropy correction            :          -0.00000874 Ha          -0.00023775 eV
  | ---------------------------
  | Total energy                  :        -578.63359642 Ha      -15745.42127678 eV
  | Total energy, T -> 0          :        -578.63360516 Ha      -15745.42151453 eV  <-- do not rely on this value for anything but (periodic) metals
  | Electronic free energy        :        -578.63361389 Ha      -15745.42175228 eV

  Derived energy quantities:
  | Kinetic energy                :         578.68795805 Ha       15746.90053195 eV
  | Electrostatic energy          :       -1117.93356048 Ha      -30420.51995966 eV
  | Energy correction for multipole
  | error in Hartree potential    :           0.00150363 Ha           0.04091591 eV
  | Sum of eigenvalues per atom                           :       -4454.03693426 eV
  | Total energy (T->0) per atom                          :       -7872.71075726 eV  <-- do not rely on this value for anything but (periodic) metals
  | Electronic free energy per atom                       :       -7872.71087614 eV

  Self-consistency convergence accuracy:
  | Change of charge density      :  0.5400E-01
  | Change of sum of eigenvalues  : -0.6660E+01 eV
  | Change of total energy        :  0.2847E-01 eV

  End self-consistency iteration #     2       :  max(cpu_time)    wall_clock(cpu1)
  | Time for this iteration                    :        1.415 s           1.415 s
  | Charge density update                      :        0.346 s           0.346 s
  | Density mixing & preconditioning           :        0.036 s           0.036 s
  | Hartree multipole update                   :        0.001 s           0.000 s
  | Hartree multipole summation                :        0.405 s           0.405 s
  | Integration                                :        0.187 s           0.187 s
  | Solution of K.-S. eqns.                    :        0.440 s           0.441 s
  | Total energy evaluation                    :        0.000 s           0.000 s

  Partial memory accounting:
  | Current value for overall tracked memory usage on task 0  :          10.395 MB
  | Peak value for overall tracked memory usage on task 0     :          11.610 MB after allocating wave
  | Largest tracked array allocation on task 0 so far         :           9.999 MB  when allocating +KS_eigenvector_complex
  Note:  These values currently only include a subset of arrays which are explicitly tracked.
  The "true" memory usage will be greater.
------------------------------------------------------------

------------------------------------------------------------
          Begin self-consistency iteration #    3

  Date     :  20190514, Time     :  124323.916
------------------------------------------------------------
  Evaluating new KS density using the density matrix
  Evaluating density matrix
  Time summed over all CPUs for getting density from density matrix: real work        0.306 s, elapsed        0.306 s
  Integration grid: deviation in total charge (<rho> - N_e) =   8.416379E-12
  Pulay mixing of updated and previous charge densities.

  Evaluating partitioned Hartree potential by multipole expansion.
  | Analytical far-field extrapolation by fixed multipoles:
  | Hartree multipole sum: apparent total charge =   0.518079E-02
  Summing up the Hartree potential.
  Time summed over all CPUs for potential: real work        0.405 s, elapsed        0.405 s
  | RMS charge density error from multipole expansion :   0.264273E-02
  | Average real-space part of the electrostatic potential :     -0.03956010 eV

  Integrating Hamiltonian matrix: batch-based integration.
  Time summed over all CPUs for integration: real work        0.187 s, elapsed        0.187 s

  Updating Kohn-Sham eigenvalues, eigenvectors, occupation numbers, and Fermi level.
  Solving generalized eigenproblem

  Obtaining occupation numbers and chemical potential using ELSI.
  | Chemical potential (Fermi level):    -5.30567166eV
  What follows are estimated values for band gap, HOMO, LUMO, etc.
  | They are estimated on a discrete k-point grid and not necessarily exact.
  | For converged numbers, create a DOS and/or band structure plot on a denser k-grid.

  Highest occupied state (VBM) at     -5.37918793 eV (relative to internal zero)
  | Occupation number:      1.96241520
  | K-point:     399 at    0.333333    0.000000    0.000000 (in units of recip. lattice)

  Lowest unoccupied state (CBM) at    -5.29950019 eV (relative to internal zero)
  | Occupation number:      0.86142895
  | K-point:      72 at    0.000000    0.916667    0.083333 (in units of recip. lattice)

  ESTIMATED overall HOMO-LUMO gap:      0.07968774 eV between HOMO at k-point 399 and LUMO at k-point 72
  | This appears to be an indirect band gap.
  | Smallest direct gap :      0.31714921 eV for k_point 72 at    0.000000    0.916667    0.083333 (in units of recip. lattice)
  However, this system has fractional occupation numbers. Since we use a finite k-point grid,
  this material is metallic within the approximate finite broadening function (occupation_type)
  applied to determine the occupation numbers.

  Total energy components:
  | Sum of eigenvalues            :        -327.37579352 Ha       -8908.34859351 eV
  | XC energy correction          :         -39.38740845 Ha       -1071.78591573 eV
  | XC potential correction       :          52.03927254 Ha        1416.06065413 eV
  | Free-atom electrostatic energy:        -264.20100311 Ha       -7189.27508092 eV
  | Hartree energy correction     :           0.29134536 Ha           7.92791060 eV
  | Entropy correction            :          -0.00000827 Ha          -0.00022501 eV
  | ---------------------------
  | Total energy                  :        -578.63358718 Ha      -15745.42102543 eV
  | Total energy, T -> 0          :        -578.63359545 Ha      -15745.42125044 eV  <-- do not rely on this value for anything but (periodic) metals
  | Electronic free energy        :        -578.63360372 Ha      -15745.42147545 eV

  Derived energy quantities:
  | Kinetic energy                :         578.67500537 Ha       15746.54807155 eV
  | Electrostatic energy          :       -1117.92118410 Ha      -30420.18318125 eV
  | Energy correction for multipole
  | error in Hartree potential    :           0.00154694 Ha           0.04209437 eV
  | Sum of eigenvalues per atom                           :       -4454.17429676 eV
  | Total energy (T->0) per atom                          :       -7872.71062522 eV  <-- do not rely on this value for anything but (periodic) metals
  | Electronic free energy per atom                       :       -7872.71073772 eV

  Self-consistency convergence accuracy:
  | Change of charge density      :  0.7761E-02
  | Change of sum of eigenvalues  : -0.2747E+00 eV
  | Change of total energy        :  0.2514E-03 eV

  End self-consistency iteration #     3       :  max(cpu_time)    wall_clock(cpu1)
  | Time for this iteration                    :        1.416 s           1.416 s
  | Charge density update                      :        0.345 s           0.345 s
  | Density mixing & preconditioning           :        0.037 s           0.036 s
  | Hartree multipole update                   :        0.001 s           0.001 s
  | Hartree multipole summation                :        0.408 s           0.408 s
  | Integration                                :        0.187 s           0.187 s
  | Solution of K.-S. eqns.                    :        0.438 s           0.438 s
  | Total energy evaluation                    :        0.000 s           0.000 s

  Partial memory accounting:
  | Current value for overall tracked memory usage on task 0  :          10.395 MB
  | Peak value for overall tracked memory usage on task 0     :          11.610 MB after allocating wave
  | Largest tracked array allocation on task 0 so far         :           9.999 MB  when allocating +KS_eigenvector_complex
  Note:  These values currently only include a subset of arrays which are explicitly tracked.
  The "true" memory usage will be greater.
------------------------------------------------------------

------------------------------------------------------------
          Begin self-consistency iteration #    4

  Date     :  20190514, Time     :  124325.332
------------------------------------------------------------
  Evaluating new KS density using the density matrix
  Evaluating density matrix
  Time summed over all CPUs for getting density from density matrix: real work        0.305 s, elapsed        0.305 s
  Integration grid: deviation in total charge (<rho> - N_e) =   8.341772E-12
  Pulay mixing of updated and previous charge densities.

  Evaluating partitioned Hartree potential by multipole expansion.
  | Analytical far-field extrapolation by fixed multipoles:
  | Hartree multipole sum: apparent total charge =  -0.369756E-02
  Summing up the Hartree potential.
  Time summed over all CPUs for potential: real work        0.404 s, elapsed        0.404 s
  | RMS charge density error from multipole expansion :   0.274184E-02
  | Average real-space part of the electrostatic potential :     -0.04699954 eV

  Integrating Hamiltonian matrix: batch-based integration.
  Time summed over all CPUs for integration: real work        0.184 s, elapsed        0.184 s

  Updating Kohn-Sham eigenvalues, eigenvectors, occupation numbers, and Fermi level.
  Solving generalized eigenproblem

  Obtaining occupation numbers and chemical potential using ELSI.
  | Chemical potential (Fermi level):    -5.35658273eV
  What follows are estimated values for band gap, HOMO, LUMO, etc.
  | They are estimated on a discrete k-point grid and not necessarily exact.
  | For converged numbers, create a DOS and/or band structure plot on a denser k-grid.

  Highest occupied state (VBM) at     -5.42333664 eV (relative to internal zero)
  | Occupation number:      1.94098556
  | K-point:     438 at    0.333333    0.333333    0.333333 (in units of recip. lattice)

  Lowest unoccupied state (CBM) at    -5.35094437 eV (relative to internal zero)
  | Occupation number:      0.87329318
  | K-point:      72 at    0.000000    0.916667    0.083333 (in units of recip. lattice)

  ESTIMATED overall HOMO-LUMO gap:      0.07239227 eV between HOMO at k-point 438 and LUMO at k-point 72
  | This appears to be an indirect band gap.
  | Smallest direct gap :      0.31351731 eV for k_point 72 at    0.000000    0.916667    0.083333 (in units of recip. lattice)
  However, this system has fractional occupation numbers. Since we use a finite k-point grid,
  this material is metallic within the approximate finite broadening function (occupation_type)
  applied to determine the occupation numbers.

  Total energy components:
  | Sum of eigenvalues            :        -327.50038786 Ha       -8911.73897799 eV
  | XC energy correction          :         -39.38429037 Ha       -1071.70106853 eV
  | XC potential correction       :          52.03517544 Ha        1415.94916650 eV
  | Free-atom electrostatic energy:        -264.20100311 Ha       -7189.27508092 eV
  | Hartree energy correction     :           0.41701606 Ha          11.34758430 eV
  | Entropy correction            :          -0.00000839 Ha          -0.00022825 eV
  | ---------------------------
  | Total energy                  :        -578.63348984 Ha      -15745.41837664 eV
  | Total energy, T -> 0          :        -578.63349823 Ha      -15745.41860489 eV  <-- do not rely on this value for anything but (periodic) metals
  | Electronic free energy        :        -578.63350662 Ha      -15745.41883315 eV

  Derived energy quantities:
  | Kinetic energy                :         578.70276222 Ha       15747.30337395 eV
  | Electrostatic energy          :       -1117.95196169 Ha      -30421.02068206 eV
  | Energy correction for multipole
  | error in Hartree potential    :           0.00157071 Ha           0.04274110 eV
  | Sum of eigenvalues per atom                           :       -4455.86948899 eV
  | Total energy (T->0) per atom                          :       -7872.70930245 eV  <-- do not rely on this value for anything but (periodic) metals
  | Electronic free energy per atom                       :       -7872.70941657 eV

  Self-consistency convergence accuracy:
  | Change of charge density      :  0.7459E-02
  | Change of sum of eigenvalues  : -0.3390E+01 eV
  | Change of total energy        :  0.2649E-02 eV

  End self-consistency iteration #     4       :  max(cpu_time)    wall_clock(cpu1)
  | Time for this iteration                    :        1.409 s           1.409 s
  | Charge density update                      :        0.345 s           0.345 s
  | Density mixing & preconditioning           :        0.036 s           0.036 s
  | Hartree multipole update                   :        0.001 s           0.001 s
  | Hartree multipole summation                :        0.407 s           0.407 s
  | Integration                                :        0.184 s           0.184 s
  | Solution of K.-S. eqns.                    :        0.436 s           0.435 s
  | Total energy evaluation                    :        0.000 s           0.000 s

  Partial memory accounting:
  | Current value for overall tracked memory usage on task 0  :          10.396 MB
  | Peak value for overall tracked memory usage on task 0     :          11.610 MB after allocating wave
  | Largest tracked array allocation on task 0 so far         :           9.999 MB  when allocating +KS_eigenvector_complex
  Note:  These values currently only include a subset of arrays which are explicitly tracked.
  The "true" memory usage will be greater.
------------------------------------------------------------

------------------------------------------------------------
          Begin self-consistency iteration #    5

  Date     :  20190514, Time     :  124326.741
------------------------------------------------------------
  Evaluating new KS density using the density matrix
  Evaluating density matrix
  Time summed over all CPUs for getting density from density matrix: real work        0.307 s, elapsed        0.307 s
  Integration grid: deviation in total charge (<rho> - N_e) =   8.242296E-12
  Pulay mixing of updated and previous charge densities.

  Evaluating partitioned Hartree potential by multipole expansion.
  | Analytical far-field extrapolation by fixed multipoles:
  | Hartree multipole sum: apparent total charge =  -0.357536E-02
  Summing up the Hartree potential.
  Time summed over all CPUs for potential: real work        0.400 s, elapsed        0.400 s
  | RMS charge density error from multipole expansion :   0.274535E-02
  | Average real-space part of the electrostatic potential :     -0.04717795 eV

  Integrating Hamiltonian matrix: batch-based integration.
  Time summed over all CPUs for integration: real work        0.184 s, elapsed        0.184 s

  Updating Kohn-Sham eigenvalues, eigenvectors, occupation numbers, and Fermi level.
  Solving generalized eigenproblem

  Obtaining occupation numbers and chemical potential using ELSI.
  | Chemical potential (Fermi level):    -5.35621335eV
  What follows are estimated values for band gap, HOMO, LUMO, etc.
  | They are estimated on a discrete k-point grid and not necessarily exact.
  | For converged numbers, create a DOS and/or band structure plot on a denser k-grid.

  Highest occupied state (VBM) at     -5.42304417 eV (relative to internal zero)
  | Occupation number:      1.94127694
  | K-point:      35 at    0.000000    0.333333    0.000000 (in units of recip. lattice)

  Lowest unoccupied state (CBM) at    -5.35056950 eV (relative to internal zero)
  | Occupation number:      0.87317079
  | K-point:      72 at    0.000000    0.916667    0.083333 (in units of recip. lattice)

  ESTIMATED overall HOMO-LUMO gap:      0.07247467 eV between HOMO at k-point 35 and LUMO at k-point 72
  | This appears to be an indirect band gap.
  | Smallest direct gap :      0.31354055 eV for k_point 72 at    0.000000    0.916667    0.083333 (in units of recip. lattice)
  However, this system has fractional occupation numbers. Since we use a finite k-point grid,
  this material is metallic within the approximate finite broadening function (occupation_type)
  applied to determine the occupation numbers.

  Total energy components:
  | Sum of eigenvalues            :        -327.49997606 Ha       -8911.72777233 eV
  | XC energy correction          :         -39.38428819 Ha       -1071.70100919 eV
  | XC potential correction       :          52.03517281 Ha        1415.94909476 eV
  | Free-atom electrostatic energy:        -264.20100311 Ha       -7189.27508092 eV
  | Hartree energy correction     :           0.41660463 Ha          11.33638865 eV
  | Entropy correction            :          -0.00000839 Ha          -0.00022821 eV
  | ---------------------------
  | Total energy                  :        -578.63348993 Ha      -15745.41837904 eV
  | Total energy, T -> 0          :        -578.63349832 Ha      -15745.41860725 eV  <-- do not rely on this value for anything but (periodic) metals
  | Electronic free energy        :        -578.63350670 Ha      -15745.41883546 eV

  Derived energy quantities:
  | Kinetic energy                :         578.70266083 Ha       15747.30061509 eV
  | Electrostatic energy          :       -1117.95186257 Ha      -30421.01798493 eV
  | Energy correction for multipole
  | error in Hartree potential    :           0.00157524 Ha           0.04286444 eV
  | Sum of eigenvalues per atom                           :       -4455.86388617 eV
  | Total energy (T->0) per atom                          :       -7872.70930362 eV  <-- do not rely on this value for anything but (periodic) metals
  | Electronic free energy per atom                       :       -7872.70941773 eV

  Self-consistency convergence accuracy:
  | Change of charge density      :  0.8179E-03
  | Change of sum of eigenvalues  :  0.1121E-01 eV
  | Change of total energy        : -0.2397E-05 eV

  End self-consistency iteration #     5       :  max(cpu_time)    wall_clock(cpu1)
  | Time for this iteration                    :        1.406 s           1.406 s
  | Charge density update                      :        0.345 s           0.345 s
  | Density mixing & preconditioning           :        0.036 s           0.036 s
  | Hartree multipole update                   :        0.001 s           0.001 s
  | Hartree multipole summation                :        0.403 s           0.403 s
  | Integration                                :        0.184 s           0.185 s
  | Solution of K.-S. eqns.                    :        0.436 s           0.435 s
  | Total energy evaluation                    :        0.000 s           0.001 s

  Partial memory accounting:
  | Current value for overall tracked memory usage on task 0  :          10.396 MB
  | Peak value for overall tracked memory usage on task 0     :          11.610 MB after allocating wave
  | Largest tracked array allocation on task 0 so far         :           9.999 MB  when allocating +KS_eigenvector_complex
  Note:  These values currently only include a subset of arrays which are explicitly tracked.
  The "true" memory usage will be greater.
------------------------------------------------------------

------------------------------------------------------------
          Begin self-consistency iteration #    6

  Date     :  20190514, Time     :  124328.147
------------------------------------------------------------
  Evaluating new KS density using the density matrix
  Evaluating density matrix
  Time summed over all CPUs for getting density from density matrix: real work        0.307 s, elapsed        0.307 s
  Integration grid: deviation in total charge (<rho> - N_e) =   8.299139E-12
  Pulay mixing of updated and previous charge densities.

  Evaluating partitioned Hartree potential by multipole expansion.
  | Analytical far-field extrapolation by fixed multipoles:
  | Hartree multipole sum: apparent total charge =   0.157629E-02
  Summing up the Hartree potential.
  Time summed over all CPUs for potential: real work        0.404 s, elapsed        0.404 s
  | RMS charge density error from multipole expansion :   0.280098E-02
  | Average real-space part of the electrostatic potential :     -0.05532134 eV

  Integrating Hamiltonian matrix: batch-based integration.
  Time summed over all CPUs for integration: real work        0.184 s, elapsed        0.184 s

  Updating Kohn-Sham eigenvalues, eigenvectors, occupation numbers, and Fermi level.
  Solving generalized eigenproblem

  Obtaining occupation numbers and chemical potential using ELSI.
  | Chemical potential (Fermi level):    -5.34824935eV
  What follows are estimated values for band gap, HOMO, LUMO, etc.
  | They are estimated on a discrete k-point grid and not necessarily exact.
  | For converged numbers, create a DOS and/or band structure plot on a denser k-grid.

  Highest occupied state (VBM) at     -5.41545188 eV (relative to internal zero)
  | Occupation number:      1.94266847
  | K-point:     438 at    0.333333    0.333333    0.333333 (in units of recip. lattice)

  Lowest unoccupied state (CBM) at    -5.34257261 eV (relative to internal zero)
  | Occupation number:      0.87243804
  | K-point:      72 at    0.000000    0.916667    0.083333 (in units of recip. lattice)

  ESTIMATED overall HOMO-LUMO gap:      0.07287927 eV between HOMO at k-point 438 and LUMO at k-point 72
  | This appears to be an indirect band gap.
  | Smallest direct gap :      0.31387253 eV for k_point 72 at    0.000000    0.916667    0.083333 (in units of recip. lattice)
  However, this system has fractional occupation numbers. Since we use a finite k-point grid,
  this material is metallic within the approximate finite broadening function (occupation_type)
  applied to determine the occupation numbers.

  Total energy components:
  | Sum of eigenvalues            :        -327.47820043 Ha       -8911.13522717 eV
  | XC energy correction          :         -39.38479518 Ha       -1071.71480517 eV
  | XC potential correction       :          52.03586777 Ha        1415.96800559 eV
  | Free-atom electrostatic energy:        -264.20100311 Ha       -7189.27508092 eV
  | Hartree energy correction     :           0.39463848 Ha          10.73865952 eV
  | Entropy correction            :          -0.00000838 Ha          -0.00022799 eV
  | ---------------------------
  | Total energy                  :        -578.63349247 Ha      -15745.41844815 eV
  | Total energy, T -> 0          :        -578.63350085 Ha      -15745.41867615 eV  <-- do not rely on this value for anything but (periodic) metals
  | Electronic free energy        :        -578.63350923 Ha      -15745.41890414 eV

  Derived energy quantities:
  | Kinetic energy                :         578.72588712 Ha       15747.93263466 eV
  | Electrostatic energy          :       -1117.97458441 Ha      -30421.63627764 eV
  | Energy correction for multipole
  | error in Hartree potential    :           0.00172844 Ha           0.04703326 eV
  | Sum of eigenvalues per atom                           :       -4455.56761359 eV
  | Total energy (T->0) per atom                          :       -7872.70933807 eV  <-- do not rely on this value for anything but (periodic) metals
  | Electronic free energy per atom                       :       -7872.70945207 eV

  Self-consistency convergence accuracy:
  | Change of charge density      :  0.7996E-03
  | Change of sum of eigenvalues  :  0.5925E+00 eV
  | Change of total energy        : -0.6912E-04 eV

  End self-consistency iteration #     6       :  max(cpu_time)    wall_clock(cpu1)
  | Time for this iteration                    :        1.414 s           1.414 s
  | Charge density update                      :        0.346 s           0.345 s
  | Density mixing & preconditioning           :        0.036 s           0.036 s
  | Hartree multipole update                   :        0.001 s           0.001 s
  | Hartree multipole summation                :        0.408 s           0.407 s
  | Integration                                :        0.184 s           0.184 s
  | Solution of K.-S. eqns.                    :        0.440 s           0.440 s
  | Total energy evaluation                    :        0.000 s           0.000 s

  Partial memory accounting:
  | Current value for overall tracked memory usage on task 0  :          10.396 MB
  | Peak value for overall tracked memory usage on task 0     :          11.610 MB after allocating wave
  | Largest tracked array allocation on task 0 so far         :           9.999 MB  when allocating +KS_eigenvector_complex
  Note:  These values currently only include a subset of arrays which are explicitly tracked.
  The "true" memory usage will be greater.
------------------------------------------------------------

------------------------------------------------------------
          Begin self-consistency iteration #    7

  Date     :  20190514, Time     :  124329.561
------------------------------------------------------------
  Evaluating new KS density using the density matrix
  Evaluating density matrix
  Time summed over all CPUs for getting density from density matrix: real work        0.308 s, elapsed        0.308 s
  Integration grid: deviation in total charge (<rho> - N_e) =   8.419931E-12
  Pulay mixing of updated and previous charge densities.

  Evaluating partitioned Hartree potential by multipole expansion.
  | Analytical far-field extrapolation by fixed multipoles:
  | Hartree multipole sum: apparent total charge =   0.144154E-02
  Summing up the Hartree potential.
  Time summed over all CPUs for potential: real work        0.404 s, elapsed        0.404 s
  | RMS charge density error from multipole expansion :   0.280567E-02
  | Average real-space part of the electrostatic potential :     -0.05554565 eV

  Integrating Hamiltonian matrix: batch-based integration.
  Time summed over all CPUs for integration: real work        0.186 s, elapsed        0.186 s

  Updating Kohn-Sham eigenvalues, eigenvectors, occupation numbers, and Fermi level.
  Solving generalized eigenproblem

  Obtaining occupation numbers and chemical potential using ELSI.
  | Chemical potential (Fermi level):    -5.34895507eV
  What follows are estimated values for band gap, HOMO, LUMO, etc.
  | They are estimated on a discrete k-point grid and not necessarily exact.
  | For converged numbers, create a DOS and/or band structure plot on a denser k-grid.

  Highest occupied state (VBM) at     -5.41615945 eV (relative to internal zero)
  | Occupation number:      1.94267534
  | K-point:     399 at    0.333333    0.000000    0.000000 (in units of recip. lattice)

  Lowest unoccupied state (CBM) at    -5.34328049 eV (relative to internal zero)
  | Occupation number:      0.87248622
  | K-point:     832 at    0.833333    0.916667    0.916667 (in units of recip. lattice)

  ESTIMATED overall HOMO-LUMO gap:      0.07287897 eV between HOMO at k-point 399 and LUMO at k-point 832
  | This appears to be an indirect band gap.
  | Smallest direct gap :      0.31382744 eV for k_point 72 at    0.833333    0.916667    0.916667 (in units of recip. lattice)
  However, this system has fractional occupation numbers. Since we use a finite k-point grid,
  this material is metallic within the approximate finite broadening function (occupation_type)
  applied to determine the occupation numbers.

  Total energy components:
  | Sum of eigenvalues            :        -327.48267265 Ha       -8911.25692247 eV
  | XC energy correction          :         -39.38441454 Ha       -1071.70444742 eV
  | XC potential correction       :          52.03536297 Ha        1415.95426925 eV
  | Free-atom electrostatic energy:        -264.20100311 Ha       -7189.27508092 eV
  | Hartree energy correction     :           0.39923529 Ha          10.86374493 eV
  | Entropy correction            :          -0.00000838 Ha          -0.00022800 eV
  | ---------------------------
  | Total energy                  :        -578.63349205 Ha      -15745.41843662 eV
  | Total energy, T -> 0          :        -578.63350042 Ha      -15745.41866462 eV  <-- do not rely on this value for anything but (periodic) metals
  | Electronic free energy        :        -578.63350880 Ha      -15745.41889262 eV

  Derived energy quantities:
  | Kinetic energy                :         578.72056125 Ha       15747.78771012 eV
  | Electrostatic energy          :       -1117.96963875 Ha      -30421.50169932 eV
  | Energy correction for multipole
  | error in Hartree potential    :           0.00172719 Ha           0.04699927 eV
  | Sum of eigenvalues per atom                           :       -4455.62846123 eV
  | Total energy (T->0) per atom                          :       -7872.70933231 eV  <-- do not rely on this value for anything but (periodic) metals
  | Electronic free energy per atom                       :       -7872.70944631 eV

  Self-consistency convergence accuracy:
  | Change of charge density      :  0.7097E-03
  | Change of sum of eigenvalues  : -0.1217E+00 eV
  | Change of total energy        :  0.1153E-04 eV

  End self-consistency iteration #     7       :  max(cpu_time)    wall_clock(cpu1)
  | Time for this iteration                    :        1.416 s           1.416 s
  | Charge density update                      :        0.347 s           0.347 s
  | Density mixing & preconditioning           :        0.036 s           0.036 s
  | Hartree multipole update                   :        0.001 s           0.001 s
  | Hartree multipole summation                :        0.408 s           0.408 s
  | Integration                                :        0.186 s           0.186 s
  | Solution of K.-S. eqns.                    :        0.437 s           0.437 s
  | Total energy evaluation                    :        0.000 s           0.000 s

  Partial memory accounting:
  | Current value for overall tracked memory usage on task 0  :          10.396 MB
  | Peak value for overall tracked memory usage on task 0     :          11.610 MB after allocating wave
  | Largest tracked array allocation on task 0 so far         :           9.999 MB  when allocating +KS_eigenvector_complex
  Note:  These values currently only include a subset of arrays which are explicitly tracked.
  The "true" memory usage will be greater.
------------------------------------------------------------

------------------------------------------------------------
          Begin self-consistency iteration #    8

  Date     :  20190514, Time     :  124330.977
------------------------------------------------------------
  Evaluating new KS density using the density matrix
  Evaluating density matrix
  Time summed over all CPUs for getting density from density matrix: real work        0.307 s, elapsed        0.307 s
  Integration grid: deviation in total charge (<rho> - N_e) =   8.249401E-12
  Pulay mixing of updated and previous charge densities.

  Evaluating partitioned Hartree potential by multipole expansion.
  | Analytical far-field extrapolation by fixed multipoles:
  | Hartree multipole sum: apparent total charge =   0.121306E-02
  Summing up the Hartree potential.
  Time summed over all CPUs for potential: real work        0.405 s, elapsed        0.405 s
  | RMS charge density error from multipole expansion :   0.280217E-02
  | Average real-space part of the electrostatic potential :     -0.05595283 eV

  Integrating Hamiltonian matrix: batch-based integration.
  Time summed over all CPUs for integration: real work        0.187 s, elapsed        0.187 s

  Updating Kohn-Sham eigenvalues, eigenvectors, occupation numbers, and Fermi level.
  Solving generalized eigenproblem

  Obtaining occupation numbers and chemical potential using ELSI.
  | Chemical potential (Fermi level):    -5.35091335eV
  What follows are estimated values for band gap, HOMO, LUMO, etc.
  | They are estimated on a discrete k-point grid and not necessarily exact.
  | For converged numbers, create a DOS and/or band structure plot on a denser k-grid.

  Highest occupied state (VBM) at     -5.41782999 eV (relative to internal zero)
  | Occupation number:      1.94160069
  | K-point:     438 at    0.333333    0.333333    0.333333 (in units of recip. lattice)

  Lowest unoccupied state (CBM) at    -5.34526221 eV (relative to internal zero)
  | Occupation number:      0.87300845
  | K-point:     832 at    0.833333    0.916667    0.916667 (in units of recip. lattice)

  ESTIMATED overall HOMO-LUMO gap:      0.07256778 eV between HOMO at k-point 438 and LUMO at k-point 832
  | This appears to be an indirect band gap.
  | Smallest direct gap :      0.31368740 eV for k_point 832 at    0.833333    0.916667    0.916667 (in units of recip. lattice)
  However, this system has fractional occupation numbers. Since we use a finite k-point grid,
  this material is metallic within the approximate finite broadening function (occupation_type)
  applied to determine the occupation numbers.

  Total energy components:
  | Sum of eigenvalues            :        -327.49026853 Ha       -8911.46361696 eV
  | XC energy correction          :         -39.38373241 Ha       -1071.68588567 eV
  | XC potential correction       :          52.03445927 Ha        1415.92967857 eV
  | Free-atom electrostatic energy:        -264.20100311 Ha       -7189.27508092 eV
  | Hartree energy correction     :           0.40705344 Ha          11.07648764 eV
  | Entropy correction            :          -0.00000838 Ha          -0.00022816 eV
  | ---------------------------
  | Total energy                  :        -578.63349134 Ha      -15745.41841733 eV
  | Total energy, T -> 0          :        -578.63349972 Ha      -15745.41864549 eV  <-- do not rely on this value for anything but (periodic) metals
  | Electronic free energy        :        -578.63350811 Ha      -15745.41887365 eV

  Derived energy quantities:
  | Kinetic energy                :         578.71259231 Ha       15747.57086428 eV
  | Electrostatic energy          :       -1117.96235123 Ha      -30421.30339594 eV
  | Energy correction for multipole
  | error in Hartree potential    :           0.00171854 Ha           0.04676395 eV
  | Sum of eigenvalues per atom                           :       -4455.73180848 eV
  | Total energy (T->0) per atom                          :       -7872.70932275 eV  <-- do not rely on this value for anything but (periodic) metals
  | Electronic free energy per atom                       :       -7872.70943683 eV

  Self-consistency convergence accuracy:
  | Change of charge density      :  0.4611E-03
  | Change of sum of eigenvalues  : -0.2067E+00 eV
  | Change of total energy        :  0.1929E-04 eV

  End self-consistency iteration #     8       :  max(cpu_time)    wall_clock(cpu1)
  | Time for this iteration                    :        1.419 s           1.419 s
  | Charge density update                      :        0.345 s           0.345 s
  | Density mixing & preconditioning           :        0.037 s           0.037 s
  | Hartree multipole update                   :        0.001 s           0.001 s
  | Hartree multipole summation                :        0.408 s           0.408 s
  | Integration                                :        0.187 s           0.187 s
  | Solution of K.-S. eqns.                    :        0.440 s           0.440 s
  | Total energy evaluation                    :        0.000 s           0.000 s

  Partial memory accounting:
  | Current value for overall tracked memory usage on task 0  :          10.397 MB
  | Peak value for overall tracked memory usage on task 0     :          11.610 MB after allocating wave
  | Largest tracked array allocation on task 0 so far         :           9.999 MB  when allocating +KS_eigenvector_complex
  Note:  These values currently only include a subset of arrays which are explicitly tracked.
  The "true" memory usage will be greater.
------------------------------------------------------------

------------------------------------------------------------
          Begin self-consistency iteration #    9

  Date     :  20190514, Time     :  124332.396
------------------------------------------------------------
  Evaluating new KS density using the density matrix
  Evaluating density matrix
  Time summed over all CPUs for getting density from density matrix: real work        0.308 s, elapsed        0.308 s
  Integration grid: deviation in total charge (<rho> - N_e) =   8.448353E-12
  Pulay mixing of updated and previous charge densities.

  Evaluating partitioned Hartree potential by multipole expansion.
  | Analytical far-field extrapolation by fixed multipoles:
  | Hartree multipole sum: apparent total charge =   0.112299E-02
  Summing up the Hartree potential.
  Time summed over all CPUs for potential: real work        0.399 s, elapsed        0.399 s
  | RMS charge density error from multipole expansion :   0.280300E-02
  | Average real-space part of the electrostatic potential :     -0.05589009 eV

  Integrating Hamiltonian matrix: batch-based integration.
  Time summed over all CPUs for integration: real work        0.188 s, elapsed        0.188 s

  Updating Kohn-Sham eigenvalues, eigenvectors, occupation numbers, and Fermi level.
  Solving generalized eigenproblem

  Obtaining occupation numbers and chemical potential using ELSI.
  | Chemical potential (Fermi level):    -5.35097195eV
  What follows are estimated values for band gap, HOMO, LUMO, etc.
  | They are estimated on a discrete k-point grid and not necessarily exact.
  | For converged numbers, create a DOS and/or band structure plot on a denser k-grid.

  Highest occupied state (VBM) at     -5.41795715 eV (relative to internal zero)
  | Occupation number:      1.94185824
  | K-point:     399 at    0.333333    0.000000    0.000000 (in units of recip. lattice)

  Lowest unoccupied state (CBM) at    -5.34531661 eV (relative to internal zero)
  | Occupation number:      0.87291477
  | K-point:      72 at    0.000000    0.916667    0.083333 (in units of recip. lattice)

  ESTIMATED overall HOMO-LUMO gap:      0.07264054 eV between HOMO at k-point 399 and LUMO at k-point 72
  | This appears to be an indirect band gap.
  | Smallest direct gap :      0.31368938 eV for k_point 832 at    0.000000    0.916667    0.083333 (in units of recip. lattice)
  However, this system has fractional occupation numbers. Since we use a finite k-point grid,
[...]
  | Largest tracked array allocation on task 0 so far         :           9.999 MB  when allocating +KS_eigenvector_complex
  Note:  These values currently only include a subset of arrays which are explicitly tracked.
  The "true" memory usage will be greater.
------------------------------------------------------------

------------------------------------------------------------
          Begin self-consistency iteration #   11

  Date     :  20190514, Time     :  124335.211
------------------------------------------------------------
  Evaluating new KS density using the density matrix
  Evaluating density matrix
  Time summed over all CPUs for getting density from density matrix: real work        0.307 s, elapsed        0.307 s
  Integration grid: deviation in total charge (<rho> - N_e) =   8.348877E-12
  Pulay mixing of updated and previous charge densities.

  Evaluating partitioned Hartree potential by multipole expansion.
  | Analytical far-field extrapolation by fixed multipoles:
  | Hartree multipole sum: apparent total charge =   0.112331E-02
  Summing up the Hartree potential.
  Time summed over all CPUs for potential: real work        0.400 s, elapsed        0.400 s
  | RMS charge density error from multipole expansion :   0.280286E-02
  | Average real-space part of the electrostatic potential :     -0.05587746 eV

  Integrating Hamiltonian matrix: batch-based integration.
  Time summed over all CPUs for integration: real work        0.187 s, elapsed        0.187 s

  Updating Kohn-Sham eigenvalues, eigenvectors, occupation numbers, and Fermi level.
  Solving generalized eigenproblem

  Obtaining occupation numbers and chemical potential using ELSI.
  | Chemical potential (Fermi level):    -5.35095728eV
  What follows are estimated values for band gap, HOMO, LUMO, etc.
  | They are estimated on a discrete k-point grid and not necessarily exact.
  | For converged numbers, create a DOS and/or band structure plot on a denser k-grid.

  Highest occupied state (VBM) at     -5.41794302 eV (relative to internal zero)
  | Occupation number:      1.94186027
  | K-point:     438 at    0.333333    0.333333    0.333333 (in units of recip. lattice)

  Lowest unoccupied state (CBM) at    -5.34530185 eV (relative to internal zero)
  | Occupation number:      0.87291284
  | K-point:     832 at    0.833333    0.916667    0.916667 (in units of recip. lattice)

  ESTIMATED overall HOMO-LUMO gap:      0.07264117 eV between HOMO at k-point 438 and LUMO at k-point 832
  | This appears to be an indirect band gap.
  | Smallest direct gap :      0.31369045 eV for k_point 832 at    0.833333    0.916667    0.916667 (in units of recip. lattice)
  However, this system has fractional occupation numbers. Since we use a finite k-point grid,
  this material is metallic within the approximate finite broadening function (occupation_type)
  applied to determine the occupation numbers.

  Total energy components:
  | Sum of eigenvalues            :        -327.49122302 Ha       -8911.48959006 eV
  | XC energy correction          :         -39.38367562 Ha       -1071.68434044 eV
  | XC potential correction       :          52.03438353 Ha        1415.92761743 eV
  | Free-atom electrostatic energy:        -264.20100311 Ha       -7189.27508092 eV
  | Hartree energy correction     :           0.40802690 Ha          11.10297689 eV
  | Entropy correction            :          -0.00000838 Ha          -0.00022812 eV
  | ---------------------------
  | Total energy                  :        -578.63349133 Ha      -15745.41841710 eV
  | Total energy, T -> 0          :        -578.63349971 Ha      -15745.41864522 eV  <-- do not rely on this value for anything but (periodic) metals
  | Electronic free energy        :        -578.63350809 Ha      -15745.41887335 eV

  Derived energy quantities:
  | Kinetic energy                :         578.71141851 Ha       15747.53892350 eV
  | Electrostatic energy          :       -1117.96123421 Ha      -30421.27300015 eV
  | Energy correction for multipole
  | error in Hartree potential    :           0.00171564 Ha           0.04668500 eV
  | Sum of eigenvalues per atom                           :       -4455.74479503 eV
  | Total energy (T->0) per atom                          :       -7872.70932261 eV  <-- do not rely on this value for anything but (periodic) metals
  | Electronic free energy per atom                       :       -7872.70943667 eV

  Self-consistency convergence accuracy:
  | Change of charge density      :  0.3231E-05
  | Change of sum of eigenvalues  :  0.1483E-02 eV
  | Change of total energy        : -0.1273E-06 eV

  End self-consistency iteration #    11       :  max(cpu_time)    wall_clock(cpu1)
  | Time for this iteration                    :        1.410 s           1.410 s
  | Charge density update                      :        0.345 s           0.345 s
  | Density mixing & preconditioning           :        0.036 s           0.036 s
  | Hartree multipole update                   :        0.001 s           0.001 s
  | Hartree multipole summation                :        0.404 s           0.404 s
  | Integration                                :        0.187 s           0.187 s
  | Solution of K.-S. eqns.                    :        0.437 s           0.437 s
  | Total energy evaluation                    :        0.000 s           0.000 s

  Partial memory accounting:
  | Current value for overall tracked memory usage on task 0  :          10.397 MB
  | Peak value for overall tracked memory usage on task 0     :          11.610 MB after allocating wave
  | Largest tracked array allocation on task 0 so far         :           9.999 MB  when allocating +KS_eigenvector_complex
  Note:  These values currently only include a subset of arrays which are explicitly tracked.
  The "true" memory usage will be greater.
------------------------------------------------------------

------------------------------------------------------------
          Begin self-consistency iteration #   12

  Date     :  20190514, Time     :  124336.622
------------------------------------------------------------
  Evaluating new KS density using the density matrix
  Evaluating density matrix
  Time summed over all CPUs for getting density from density matrix: real work        0.304 s, elapsed        0.304 s
  Integration grid: deviation in total charge (<rho> - N_e) =   8.398615E-12
  Pulay mixing of updated and previous charge densities.

  Evaluating partitioned Hartree potential by multipole expansion.
  | Analytical far-field extrapolation by fixed multipoles:
  | Hartree multipole sum: apparent total charge =   0.112331E-02
  Summing up the Hartree potential.
  Time summed over all CPUs for potential: real work        0.404 s, elapsed        0.404 s
  | RMS charge density error from multipole expansion :   0.280286E-02
  | Average real-space part of the electrostatic potential :     -0.05587733 eV

  Integrating Hamiltonian matrix: batch-based integration.
  Time summed over all CPUs for integration: real work        0.184 s, elapsed        0.184 s

  Updating Kohn-Sham eigenvalues, eigenvectors, occupation numbers, and Fermi level.
  Solving generalized eigenproblem

  Obtaining occupation numbers and chemical potential using ELSI.
  | Chemical potential (Fermi level):    -5.35095694eV
  What follows are estimated values for band gap, HOMO, LUMO, etc.
  | They are estimated on a discrete k-point grid and not necessarily exact.
  | For converged numbers, create a DOS and/or band structure plot on a denser k-grid.

  Highest occupied state (VBM) at     -5.41794276 eV (relative to internal zero)
  | Occupation number:      1.94186055
  | K-point:     438 at    0.333333    0.333333    0.333333 (in units of recip. lattice)

  Lowest unoccupied state (CBM) at    -5.34530150 eV (relative to internal zero)
  | Occupation number:      0.87291271
  | K-point:      72 at    0.000000    0.916667    0.083333 (in units of recip. lattice)

  ESTIMATED overall HOMO-LUMO gap:      0.07264125 eV between HOMO at k-point 438 and LUMO at k-point 72
  | This appears to be an indirect band gap.
  | Smallest direct gap :      0.31369047 eV for k_point 72 at    0.000000    0.916667    0.083333 (in units of recip. lattice)
  However, this system has fractional occupation numbers. Since we use a finite k-point grid,
  this material is metallic within the approximate finite broadening function (occupation_type)
  applied to determine the occupation numbers.

  Total energy components:
  | Sum of eigenvalues            :        -327.49122220 Ha       -8911.48956763 eV
  | XC energy correction          :         -39.38367569 Ha       -1071.68434219 eV
  | XC potential correction       :          52.03438361 Ha        1415.92761974 eV
  | Free-atom electrostatic energy:        -264.20100311 Ha       -7189.27508092 eV
  | Hartree energy correction     :           0.40802606 Ha          11.10295390 eV
  | Entropy correction            :          -0.00000838 Ha          -0.00022812 eV
  | ---------------------------
  | Total energy                  :        -578.63349133 Ha      -15745.41841710 eV
  | Total energy, T -> 0          :        -578.63349971 Ha      -15745.41864523 eV  <-- do not rely on this value for anything but (periodic) metals
  | Electronic free energy        :        -578.63350809 Ha      -15745.41887335 eV

  Derived energy quantities:
  | Kinetic energy                :         578.71141893 Ha       15747.53893491 eV
  | Electrostatic energy          :       -1117.96123456 Ha      -30421.27300982 eV
  | Energy correction for multipole
  | error in Hartree potential    :           0.00171564 Ha           0.04668501 eV
  | Sum of eigenvalues per atom                           :       -4455.74478382 eV
  | Total energy (T->0) per atom                          :       -7872.70932261 eV  <-- do not rely on this value for anything but (periodic) metals
  | Electronic free energy per atom                       :       -7872.70943668 eV

  Self-consistency convergence accuracy:
  | Change of charge density      :  0.3046E-07
  | Change of sum of eigenvalues  :  0.2243E-04 eV
  | Change of total energy        : -0.3384E-08 eV

  Preliminary charge convergence reached. Turning off preconditioner.

  Writing Kohn-Sham eigenvalues.
  K-point:       1 at    0.000000    0.000000    0.000000 (in units of recip. lattice)

  State    Occupation    Eigenvalue [Ha]    Eigenvalue [eV]
      1       2.00000         -65.519638        -1782.88006
      2       2.00000         -65.519638        -1782.88006
      3       2.00000          -5.110423         -139.06168
      4       2.00000          -5.110413         -139.06142
      5       2.00000          -3.524966          -95.91920
      6       2.00000          -3.524966          -95.91920
      7       2.00000          -3.524966          -95.91920
      8       2.00000          -3.524930          -95.91822
      9       2.00000          -3.524930          -95.91822
     10       2.00000          -3.524930          -95.91822
     11       2.00000          -0.514284          -13.99438
     12       2.00000          -0.277514           -7.55153
     13       0.01296          -0.193416           -5.26310
     14       0.01296          -0.193416           -5.26310
     15       0.01296          -0.193416           -5.26310
     16       0.00000          -0.116722           -3.17617
     17       0.00000          -0.116722           -3.17617
     18       0.00000          -0.116722           -3.17617
     19       0.00000           0.100030            2.72196
     20       0.00000           0.100030            2.72196

  What follows are estimated values for band gap, HOMO, LUMO, etc.
  | They are estimated on a discrete k-point grid and not necessarily exact.
  | For converged numbers, create a DOS and/or band structure plot on a denser k-grid.

  Highest occupied state (VBM) at     -5.41794276 eV (relative to internal zero)
  | Occupation number:      1.94186055
  | K-point:     438 at    0.333333    0.333333    0.333333 (in units of recip. lattice)

  Lowest unoccupied state (CBM) at    -5.34530150 eV (relative to internal zero)
  | Occupation number:      0.87291271
  | K-point:      72 at    0.000000    0.916667    0.083333 (in units of recip. lattice)

  ESTIMATED overall HOMO-LUMO gap:      0.07264125 eV between HOMO at k-point 438 and LUMO at k-point 72
  | This appears to be an indirect band gap.
  | Smallest direct gap :      0.31369047 eV for k_point 72 at    0.000000    0.916667    0.083333 (in units of recip. lattice)
  However, this system has fractional occupation numbers. Since we use a finite k-point grid,
  this material is metallic within the approximate finite broadening function (occupation_type)
  applied to determine the occupation numbers.

  Self-consistency cycle converged.

  End self-consistency iteration #    12       :  max(cpu_time)    wall_clock(cpu1)
  | Time for this iteration                    :        1.415 s           1.415 s
  | Charge density update                      :        0.343 s           0.342 s
  | Density mixing                             :        0.035 s           0.035 s
  | Hartree multipole update                   :        0.001 s           0.001 s
  | Hartree multipole summation                :        0.408 s           0.408 s
  | Integration                                :        0.184 s           0.184 s
  | Solution of K.-S. eqns.                    :        0.444 s           0.444 s
  | Total energy evaluation                    :        0.000 s           0.001 s

  Partial memory accounting:
  | Current value for overall tracked memory usage on task 0  :          10.397 MB
  | Peak value for overall tracked memory usage on task 0     :          11.610 MB after allocating wave
  | Largest tracked array allocation on task 0 so far         :           9.999 MB  when allocating +KS_eigenvector_complex
  Note:  These values currently only include a subset of arrays which are explicitly tracked.
  The "true" memory usage will be greater.
------------------------------------------------------------

  Energy and forces in a compact form:
  | Total energy uncorrected      :         -0.157454184171036E+05 eV
  | Total energy corrected        :         -0.157454186452274E+05 eV  <-- do not rely on this value for anything but (periodic) metals
  | Electronic free energy        :         -0.157454188733513E+05 eV

  ------------------------------------ 
  Start decomposition of the XC Energy 
  ------------------------------------ 
  X and C from original XC functional choice 
  Hartree-Fock Energy :          0.000000000 Ha              0.000000000 eV
  X Energy            :        -37.262696486 Ha          -1013.969561575 eV
  C Energy            :         -2.120979203 Ha            -57.714780619 eV
  Total XC Energy     :        -39.383675689 Ha          -1071.684342194 eV
  ------------------------------------ 
  LDA X and C from self-consistent density 
  X Energy LDA        :        -37.262696486 Ha          -1013.969561575 eV
  C Energy LDA        :         -2.120979203 Ha            -57.714780619 eV
  ------------------------------------ 
  End decomposition of the XC Energy 
  ------------------------------------ 

------------------------------------------------------------

------------------------------------------------------------------------------
  Final output of selected total energy values:

  The following output summarizes some interesting total energy values
  at the end of a run (AFTER all relaxation, molecular dynamics, etc.).

  | Total energy of the DFT / Hartree-Fock s.c.f. calculation      :         -15745.418417104 eV
  | Final zero-broadening corrected energy (caution - metals only) :         -15745.418645227 eV
  | For reference only, the value of 1 Hartree used in FHI-aims is :             27.211384500 eV

  Before relying on these values, please be sure to understand exactly which
  total energy value is referred to by a given number. Different objects may
  all carry the same name 'total energy'. Definitions:

  Total energy of the DFT / Hartree-Fock s.c.f. calculation:
  | Note that this energy does not include ANY quantities calculated after the
  | s.c.f. cycle, in particular not ANY RPA, MP2, etc. many-body perturbation terms.

  Final zero-broadening corrected energy:
  | For metallic systems only, a broadening of the occupation numbers at the Fermi
  | level can be extrapolated back to zero broadening by an electron-gas inspired
  | formula. For all systems that are not real metals, this value can be
  | meaningless and should be avoided.

------------------------------------------------------------------------------
  Methods described in the following list of references were used in this FHI-aims run.
  If you publish the results, please make sure to cite these reference if they apply.
  FHI-aims is an academic code, and for our developers (often, Ph.D. students
  and postdocs), scientific credit in the community is essential.
  Thank you for helping us!

  For any use of FHI-aims, please cite:

    Volker Blum, Ralf Gehrke, Felix Hanke, Paula Havu, Ville Havu,
    Xinguo Ren, Karsten Reuter, and Matthias Scheffler
    'Ab initio molecular simulations with numeric atom-centered orbitals'
    Computer Physics Communications 180, 2175-2196 (2009)
    http://dx.doi.org/10.1016/j.cpc.2009.06.022


  For the real-space grid partitioning and parallelization used in this calculation, please cite:

    Ville Havu, Volker Blum, Paula Havu, and Matthias Scheffler,
    'Efficient O(N) integration for all-electron electronic structure calculation'
    'using numerically tabulated basis functions'
    Journal of Computational Physics 228, 8367-8379 (2009).
    http://dx.doi.org/10.1016/j.jcp.2009.08.008

  Of course, there are many other important community references, e.g., those cited in the
  above references. Our list is limited to references that describe implementations in the
  FHI-aims code. The reason is purely practical (length of this list) - please credit others as well.

------------------------------------------------------------
          Leaving FHI-aims.
          Date     :  20190514, Time     :  124338.045

          Computational steps:
          | Number of self-consistency cycles          :           12
          | Number of SCF (re)initializations          :            1

          Detailed time accounting                     :  max(cpu_time)    wall_clock(cpu1)
          | Total time                                 :       18.354 s          18.353 s
          | Preparation time                           :        0.092 s           0.092 s
          | Boundary condition initalization           :        0.033 s           0.033 s
          | Grid partitioning                          :        0.020 s           0.020 s
          | Preloading free-atom quantities on grid    :        0.001 s           0.001 s
          | Free-atom superposition energy             :        0.019 s           0.019 s
          | Total time for integrations                :        2.551 s           2.552 s
          | Total time for solution of K.-S. equations :        6.181 s           6.180 s
          | Total time for density update              :        4.142 s           4.140 s
          | Total time for mixing & preconditioning    :        0.434 s           0.433 s
          | Total time for Hartree multipole update    :        0.009 s           0.010 s
          | Total time for Hartree multipole sum       :        4.791 s           4.792 s
          | Total time for total energy evaluation     :        0.004 s           0.003 s
          | Total time for scaled ZORA corrections     :        0.000 s           0.000 s

 This is a stub MPI_ALLREDUCE call.
 You should not be here. Check your
 setting on the use_mpi variable, or
 link against true MPI-libraries.
