------------------------------------------------------------
          Invoking FHI-aims ...
          Version 171221_1
          Compiled on 2019/05/06 at 14:26:40 on host ffph0xx.

          When using FHI-aims, please cite the following reference:

          Volker Blum, Ralf Gehrke, Felix Hanke, Paula Havu,
          Ville Havu, Xinguo Ren, Karsten Reuter, and Matthias Scheffler,
          'Ab Initio Molecular Simulations with Numeric Atom-Centered Orbitals',
          Computer Physics Communications 180, 2175-2196 (2009)

          For any questions about FHI-aims, please visit the aimsclub website
          with its forums and wiki. Contributions to both the forums and the
          wiki are warmly encouraged - they are for you, and everyone is welcome there.

------------------------------------------------------------



  Date     :  20190509, Time     :  114703.911
  Time zero on CPU 1             :   0.635000000000000E-03  s.
  Internal wall clock time zero  :           326634423.911  s.

  FHI-aims created a unique identifier for this run for later identification
  aims_uuid : 4B30CE9D-FBC0-4B5D-A439-98DBAFFFF230


  Performing system and environment tests:
  *** Environment variable OMP_NUM_THREADS is not set
  *** For performance reasons you might want to set it to 1
  | Stacksize not measured: no C compiler

  Obtaining array dimensions for all initial allocations:
  
  -----------------------------------------------------------------------
  Parsing control.in (first pass over file, find array dimensions only).
  The contents of control.in will be repeated verbatim below
  unless switched off by setting 'verbatim_writeout .false.' .
  in the first line of control.in .
  -----------------------------------------------------------------------
  
  # Sample input file for the relaxation
  # of the H3O+ molecule
  #######################################
    xc  pw-lda
    charge 1.0
    spin none
  
  #######Iteration limit####################
    sc_iter_limit 100
  
  #######Relaxation######################
    #####relax_geometry trm 1E-3
  
  #######Species#########################
  ################################################################################
  #
  #  FHI-aims code project
  #  VB, Fritz-Haber Institut, 2009
  #
  #  Suggested "light" defaults for H atom (to be pasted into control.in file)
  #  Be sure to double-check any results obtained with these settings for post-processing,
  #  e.g., with the "tight" defaults and larger basis sets.
  #
  ################################################################################
    species        H
  #     global species definitions
      nucleus             1
      mass                1.00794
  #
      l_hartree           4
  #
      cut_pot             3.5  1.5  1.0
      basis_dep_cutoff    1e-4
  #
      radial_base         24 5.0
      radial_multiplier   1
      angular_grids       specified
        division   0.2421   50
        division   0.3822  110
        division   0.4799  194
        division   0.5341  302
  #      division   0.5626  434
  #      division   0.5922  590
  #      division   0.6542  770
  #      division   0.6868 1202
  #      outer_grid  770
        outer_grid  302
  ################################################################################
  #
  #  Definition of "minimal" basis
  #
  ################################################################################
  #     valence basis states
      valence      1  s   1.
  #     ion occupancy
      ion_occ      1  s   0.5
  ################################################################################
  #
  #  Suggested additional basis functions. For production calculations,
  #  uncomment them one after another (the most important basis functions are
  #  listed first).
  #
  #  Basis constructed for dimers: 0.5 A, 0.7 A, 1.0 A, 1.5 A, 2.5 A
  #
  ################################################################################
  #  "First tier" - improvements: -1014.90 meV to -62.69 meV
       hydro 2 s 2.1
       hydro 2 p 3.5
  #  "Second tier" - improvements: -12.89 meV to -1.83 meV
  #     hydro 1 s 0.85
  #     hydro 2 p 3.7
  #     hydro 2 s 1.2
  #     hydro 3 d 7
  #  "Third tier" - improvements: -0.25 meV to -0.12 meV
  #     hydro 4 f 11.2
  #     hydro 3 p 4.8
  #     hydro 4 d 9
  #     hydro 3 s 3.2
  ################################################################################
  #
  #  FHI-aims code project
  #  VB, Fritz-Haber Institut, 2009
  #
  #  Suggested "light" defaults for O atom (to be pasted into control.in file)
  #  Be sure to double-check any results obtained with these settings for post-processing,
  #  e.g., with the "tight" defaults and larger basis sets.
  #
  ################################################################################
    species        O
  #     global species definitions
      nucleus             8
      mass                15.9994
  #
      l_hartree           4
  #
      cut_pot             3.5  1.5  1.0
      basis_dep_cutoff    1e-4
  #
      radial_base         36 5.0
      radial_multiplier   1
       angular_grids specified
        division   0.2659   50
        division   0.4451  110
        division   0.6052  194
        division   0.7543  302
  #      division   0.8014  434
  #      division   0.8507  590
  #      division   0.8762  770
  #      division   0.9023  974
  #      division   1.2339 1202
  #      outer_grid 974
        outer_grid 302
  ################################################################################
  #
  #  Definition of "minimal" basis
  #
  ################################################################################
  #     valence basis states
      valence      2  s   2.
      valence      2  p   4.
  #     ion occupancy
      ion_occ      2  s   1.
      ion_occ      2  p   3.
  ################################################################################
  #
  #  Suggested additional basis functions. For production calculations,
  #  uncomment them one after another (the most important basis functions are
  #  listed first).
  #
  #  Constructed for dimers: 1.0 A, 1.208 A, 1.5 A, 2.0 A, 3.0 A
  #
  ################################################################################
  #  "First tier" - improvements: -699.05 meV to -159.38 meV
       hydro 2 p 1.8
       hydro 3 d 7.6
       hydro 3 s 6.4
  #  "Second tier" - improvements: -49.91 meV to -5.39 meV
  #     hydro 4 f 11.6
  #     hydro 3 p 6.2
  #     hydro 3 d 5.6
  #     hydro 5 g 17.6
  #     hydro 1 s 0.75
  #  "Third tier" - improvements: -2.83 meV to -0.50 meV
  #     ionic 2 p auto
  #     hydro 4 f 10.8
  #     hydro 4 d 4.7
  #     hydro 2 s 6.8
  #  "Fourth tier" - improvements: -0.40 meV to -0.12 meV
  #     hydro 3 p 5
  #     hydro 3 s 3.3
  #     hydro 5 g 15.6
  #     hydro 4 f 17.6
  #     hydro 4 d 14
  # Further basis functions - -0.08 meV and below
  #     hydro 3 s 2.1
  #     hydro 4 d 11.6
  #     hydro 3 p 16
  #     hydro 2 s 17.2
  /afs/ictp.it/public/shared/smr2475/fhi-aims/species_defaults/light/01_H_default
  compute_forces .true.
  final_forces_cleaned .true.
  output dipole
  
  -----------------------------------------------------------------------
  Completed first pass over input file control.in .
  -----------------------------------------------------------------------
  
  
  -----------------------------------------------------------------------
  Parsing geometry.in (first pass over file, find array dimensions only).
  The contents of geometry.in will be repeated verbatim below
  unless switched off by setting 'verbatim_writeout .false.' .
  in the first line of geometry.in .
  -----------------------------------------------------------------------
  
  #
  # temporary structure-file for finite-difference calculation of forces
  # displacement  -0.0020 of \# atom     0 direction     2
  #
  atom    0.00000000    0.00001836    0.18877151   O
  atom    0.82425584   -0.47587261    0.47423563   H
  atom   -0.82425584   -0.47587261    0.47423563   H
  atom   -0.00000000    0.95172688    0.47446636   H
  
  -----------------------------------------------------------------------
  Completed first pass over input file geometry.in .
  -----------------------------------------------------------------------
  

  Basic array size parameters:
  | Number of species                 :        2
  | Number of atoms                   :        4
  | Max. basis fn. angular momentum   :        2
  | Max. atomic/ionic basis occupied n:        2
  | Max. number of basis fn. types    :        2
  | Max. radial fns per species/type  :        3
  | Max. logarithmic grid size        :     1301
  | Max. radial integration grid size :       36
  | Max. angular integration grid size:      302
  | Max. angular grid division number :        8
  | Radial grid for Hartree potential :     1301
  | Number of spin channels           :        1

------------------------------------------------------------
          Reading file control.in.
------------------------------------------------------------
  XC: Using Perdew-Wang parametrisation of Ceperley-Alder LDA.
  Charged system requested: Charge =   0.100000E+01.
  Spin treatment: No spin polarisation.
  Maximum number of s.-c. iterations  :   100

  Reading configuration options for species H                   .
  | Found nuclear charge :   1.0000
  | Found atomic mass :    1.0079400000000001      amu
  | Found l_max for Hartree potential  :   4
  | Found cutoff potl. onset [A], width [A], scale factor :    3.50000    1.50000    1.00000
  | Threshold for basis-dependent cutoff potential is   0.100000E-03
  | Found data for basic radial integration grid :    24 points, outermost radius =    5.000 A
  | Found multiplier for basic radial grid :   1
  | Found angular grid specification: user-specified.
  | Specified grid contains     5 separate shells.
  | Check grid settings after all constraints further below.
  | Found free-atom valence shell :  1 s   1.000
  | No ionic wave fns used. Skipping ion_occ.
  | Found hydrogenic basis function :  2 s   2.100
  | Found hydrogenic basis function :  2 p   3.500
  Species H                   : Missing cutoff potential type.
  Defaulting to exp(1/x)/(1-x)^2 type cutoff potential.
  Species H : No 'logarithmic' tag. Using default grid for free atom:
  | Default logarithmic grid data [bohr] : 0.1000E-03 0.1000E+03 0.1012E+01
  Species H : On-site basis accuracy parameter (for Gram-Schmidt orthonormalisation) not specified.
  Using default value basis_acc =  0.1000000E-03.
  Species H                   : Using default innermost maximum threshold i_radial=  2 for radial functions.
  Species H                   : Default cutoff onset for free atom density etc. : 0.35000000E+01 AA.
  Species H                   : Basic radial grid will be enhanced according to radial_multiplier =   1, to contain    24 grid points.

  Reading configuration options for species O                   .
  | Found nuclear charge :   8.0000
  | Found atomic mass :    15.999400000000000      amu
  | Found l_max for Hartree potential  :   4
  | Found cutoff potl. onset [A], width [A], scale factor :    3.50000    1.50000    1.00000
  | Threshold for basis-dependent cutoff potential is   0.100000E-03
  | Found data for basic radial integration grid :    36 points, outermost radius =    5.000 A
  | Found multiplier for basic radial grid :   1
  | Found angular grid specification: user-specified.
  | Specified grid contains     5 separate shells.
  | Check grid settings after all constraints further below.
  | Found free-atom valence shell :  2 s   2.000
  | Found free-atom valence shell :  2 p   4.000
  | No ionic wave fns used. Skipping ion_occ.
  | No ionic wave fns used. Skipping ion_occ.
  | Found hydrogenic basis function :  2 p   1.800
  | Found hydrogenic basis function :  3 d   7.600
  | Found hydrogenic basis function :  3 s   6.400
  Species O                   : Missing cutoff potential type.
  Defaulting to exp(1/x)/(1-x)^2 type cutoff potential.
  Species O : No 'logarithmic' tag. Using default grid for free atom:
  | Default logarithmic grid data [bohr] : 0.1000E-03 0.1000E+03 0.1012E+01
  Species O : On-site basis accuracy parameter (for Gram-Schmidt orthonormalisation) not specified.
  Using default value basis_acc =  0.1000000E-03.
  Species O                   : Using default innermost maximum threshold i_radial=  2 for radial functions.
  Species O                   : Default cutoff onset for free atom density etc. : 0.35000000E+01 AA.
  Species O                   : Basic radial grid will be enhanced according to radial_multiplier =   1, to contain    36 grid points.
  Forces will be computed.
  Cleaning forces before final output.
  Dipole moment will be written out.

  Finished reading input file 'control.in'. Consistency checks are next.

  MPI_IN_PLACE appears to work with this MPI implementation.
  | Keeping use_mpi_in_place .true. (see manual).
  Target number of points in a grid batch is not set. Defaulting to  100
  Method for grid partitioning is not set. Defaulting to 'maxmin' partitioning.
  Batch size limit is not set. Defaulting to    200
  By default, will store active basis functions for each batch.
  If in need of memory, prune_basis_once .false. can be used to disable this option.
  communication_type for Hartree potential was not specified.
  Defaulting to calc_hartree .
 * Attention: 
 * You may want to set distributed_spline_storage to .true. in order to save memory.
 * This doesn't harm performance and is perfectly ok unless:
 * - you get error messages in postprocessing (about missing atoms in get_rho_multipole_spl)
 * - you need full spline storage in hirshfeld_analysis
  Defaulting to Pulay charge density mixer.
  Pulay mixer: Number of relevant iterations not set.
  Defaulting to    8 iterations.
  Pulay mixer: Number of initial linear mixing iterations not set.
  Defaulting to    0 iterations.
  Work space size for distributed Hartree potential not set.
  Defaulting to   0.200000E+03 MB.
  Mixing parameter for charge density mixing has not been set.
  Using default: charge_mix_param =     0.0500.
  The mixing parameter will be adjusted in iteration number     2 of the first full s.c.f. cycle only.
  Algorithm-dependent basis array size parameters:
  | n_max_pulay                         :        8
 * Notice: The s.c.f. convergence criterion sc_accuracy_rho was not provided.
 * We used to stop in this case, and ask the user to provide reasonable
 * scf convergence criteria. However, this led some users to employ criteria
 * that led to extremely long run times, e.g., for simple relaxation.
 * We now preset a default value for sc_accuracy_rho if it is not set.
 * You may still wish to check if this setting is too tight or too loose for your needs.
 * Based on n_atoms, FHI-aims chose sc_accuracy_rho =  0.100000E-05 .
  Presetting      1001 iterations before the initial mixing cycle
  is restarted anyway using the sc_init_iter criterion / keyword.
  Presetting a factor      1.000 between actual scf density residual
  and density convergence criterion sc_accuracy_rho below which sc_init_iter
  takes no effect.
 * No s.c.f. convergence criteria (sc_accuracy_*) were provided in control.in.
 * The run will proceed with a reasonable default guess, but please check whether.
 * the s.c.f. cycles seem to take too much or too little time.
  Geometry relaxation not requested: no relaxation will be performed.
  Force calculation: scf convergence accuracy of forces not set.
  Defaulting to 'sc_accuracy_forces not_checked'.
  Handling of forces: Unphysical translation and rotation will be removed from forces.
  No accuracy limit for integral partition fn. given. Defaulting to  0.1000E-14.
  No threshold value for u(r) in integrations given. Defaulting to  0.1000E-05.
  No occupation type (smearing scheme) given. Defaulting to Gaussian broadening, width =  0.1000E-01 eV.
  The width will be adjusted in iteration number     2 of the first full s.c.f. cycle only.
  S.C.F. convergence parameters will be adjusted in iteration number     2 of the first full s.c.f. cycle only.
  No accuracy for occupation numbers given. Defaulting to  0.1000E-12.
  No threshold value for occupation numbers given. Defaulting to  0.0000E+00.
  No accuracy for fermi level given. Defaulting to  0.1000E-19.
  Maximum # of iterations to find E_F not set. Defaulting to  200.
  Preferred method for the eigenvalue solver ('KS_method') not specified in 'control.in'.
  Defaulting to serial version, 'lapack_fast'.
  Will not use alltoall communication since running on < 1024 CPUs.
  Threshold for basis singularities not set.
  Default threshold for basis singularities:  0.1000E-04
  partition_type (choice of integration weights) for integrals was not specified.
  | Using a version of the partition function of Stratmann and coworkers ('stratmann_smoother').
  | At each grid point, the set of atoms used to build the partition table is smoothly restricted to
  | only those atoms whose free-atom density would be non-zero at that grid point.
  Partitioning for Hartree potential was not defined. Using partition_type for integrals.
  | Adjusted default value of keyword multip_moments_threshold to:       0.10000000E-11
  | This value may affect high angular momentum components of the Hartree potential in periodic systems.
  No q(lm)/r^(l+1) cutoff set for long-range Hartree potential.
  | Using default value of  0.100000E-09 .
  | Verify using the multipole_threshold keyword.
  Defaulting to new monopole extrapolation.
  Density update method: automatic selection selected.
------------------------------------------------------------


------------------------------------------------------------
          Reading geometry description geometry.in.
------------------------------------------------------------
 * Warning: Initial charge and total charge of the system are inconsistent.
 * Selected charge in control.in:     1.0000* Sum of initial charges in geometry.in:     0.0000
 * Warning! You did not set the 'relativistic' flag in input file 'control.in'.
 * Since you are not attempting to treat any elements beyond Ca(Z=20), FHI-aims
 * will default to 'relativistic none'.
 * You must ensure that this is really what you want!!
 * For example, DO NOT compute total-energy differences between results from
 * different settings of the 'relativistic' flag.
  Input structure read successfully.
  The structure contains        4 atoms,  and a total of         10.000 electrons.

  Input geometry:
  | No unit cell requested.
  | Atomic structure:
  |       Atom                x [A]            y [A]            z [A]
  |    1: Species O             0.00000000        0.00001836        0.18877151
  |    2: Species H             0.82425584       -0.47587261        0.47423563
  |    3: Species H            -0.82425584       -0.47587261        0.47423563
  |    4: Species H            -0.00000000        0.95172688        0.47446636
  |

  | The smallest distance between any two atoms is         0.99365973 AA.
  |
  | The first atom of this pair is atom number                      1 .
  | The second atom of this pair is atom number                     2 .

  Number of empty states per atom not set in control.in - providing a guess from actual geometry.
  | Total number of empty states used during s.c.f. cycle:        8
  If you use a very high smearing, use empty_states (per atom!) in control.in to increase this value.

  Structure-dependent array size parameters: 
  | Maximum number of distinct radial functions  :        9
  | Maximum number of basis functions            :       29
  | Number of Kohn-Sham states (occupied + empty):       13
------------------------------------------------------------

------------------------------------------------------------
          Preparing all fixed parts of the calculation.
------------------------------------------------------------
  Determining machine precision:
     2.2250738585072014E-308
  Setting up grids for atomic and cluster calculations.

  Creating wave function, potential, and density for free atoms.

  Species: H

  List of occupied orbitals and eigenvalues:
    n    l              occ      energy [Ha]    energy [eV]
    1    0           1.0000        -0.232375        -6.3233


  Species: O

  List of occupied orbitals and eigenvalues:
    n    l              occ      energy [Ha]    energy [eV]
    1    0           2.0000       -18.757744      -510.4242
    2    0           2.0000        -0.870917       -23.6989
    2    1           4.0000        -0.337950        -9.1961

  Creating fixed part of basis set: Ionic, confined, hydrogenic.

  H                    hydrogenic:

  List of hydrogenic basis orbitals: 
    n    l      effective z      eigenvalue [eV]  inner max. [A]     outer max. [A]     outer radius [A]   
    2    0         2.100000       -14.9728           0.193243           1.317208           4.583499
    2    1         3.500000       -41.6669           0.602369           0.602369           3.723403


  O                    hydrogenic:

  List of hydrogenic basis orbitals: 
    n    l      effective z      eigenvalue [eV]  inner max. [A]     outer max. [A]     outer radius [A]   
    2    1         1.800000       -10.9749           1.164242           1.164242           4.578029
    3    2         7.600000       -87.3180           0.624125           0.624125           3.251020
    3    0         6.400000       -61.9207           0.061167           1.081902           4.001998


  Adding cutoff potential to free-atom effective potential.
  Creating atomic-like basis functions for current effective potential.

  Species H                   :

  List of atomic basis orbitals and eigenvalues:
    n    l      energy [Ha]    energy [eV]    outer radius [A]
    1    0        -0.232375        -6.3233       4.527807


  Species O                   :

  List of atomic basis orbitals and eigenvalues:
    n    l      energy [Ha]    energy [eV]    outer radius [A]
    1    0       -18.757744      -510.4242       1.433179
    2    0        -0.870917       -23.6989       4.413171
    2    1        -0.337950        -9.1961       4.522403

  Assembling full basis from fixed parts.
  | Species H :   atomic orbital   1 s accepted.
  | Species H :    hydro orbital   2 s accepted.
  | Species H :    hydro orbital   2 p accepted.
  | Species O :   atomic orbital   1 s accepted.
  | Species O :    hydro orbital   3 s accepted.
  | Species O :   atomic orbital   2 s accepted.
  | Species O :   atomic orbital   2 p accepted.
  | Species O :    hydro orbital   2 p accepted.
  | Species O :    hydro orbital   3 d accepted.

  Basis size parameters after reduction:
  | Total number of radial functions:        9
  | Total number of basis functions :       29

  Per-task memory consumption for arrays in subroutine allocate_ext:
  |           2.249476MB.
  Testing on-site integration grid accuracy.
  |  Species  Function  <phi|h_atom|phi> (log., in eV)  <phi|h_atom|phi> (rad., in eV)
           1        1                 -6.3245358373                 -6.3232436907
           1        2                 14.1326137532                 14.1384481100
           1        3                 25.3627025200                 25.3628451197
           2        4               -510.4241781769               -510.4240769412
           2        5                 14.9072942218                 14.9072945276
           2        6                -21.2004736467                -21.2005650544
           2        7                 -9.1962086499                 -9.1963509828
           2        8                  8.1896755011                  8.1702200086
           2        9                 45.7920584945                 45.7920228528

  Preparing densities etc. for the partition functions (integrals / Hartree potential).

  Preparations completed.
  max(cpu_time)          :      0.051 s.
  Wall clock time (cpu1) :      0.050 s.
------------------------------------------------------------

------------------------------------------------------------
          Begin self-consistency loop: Initialization.

          Date     :  20190509, Time     :  114703.962
------------------------------------------------------------

  Initializing index lists of integration centers etc. from given atomic structure:
  | Number of centers in hartree potential         :         4
  | Number of centers in hartree multipole         :         4
  | Number of centers in electron density summation:         4
  | Number of centers in basis integrals           :         4
  | Number of centers in integrals                 :         4
  | Number of centers in hamiltonian               :         4
  Partitioning the integration grid into batches with maxmin method.
  | Maximal weight for a single point:     1.000
  | Minimal weight for a single point:     0.000
  | Number of batches:      256
  | Maximal batch size:      83
  | Minimal batch size:      78
  | Average batch size:      80.719
  | Standard deviation of batch sizes:       1.484
  Initializing partition tables, free-atom densities, potentials, etc. across the integration grid (initialize_grid_storage).
  | initialize_grid_storage: Actual outermost partition radius vs. multipole_radius_free
  | (-- VB: in principle, multipole_radius_free should be larger, hence this output)
  | Species        1: Confinement radius =              4.999999999999999 AA, multipole_radius_free =              5.054417573612229 AA.
  | Species        1: outer_partition_radius set to              5.054417573612229 AA .
  | Species        2: Confinement radius =              4.999999999999999 AA, multipole_radius_free =              5.048384829883283 AA.
  | Species        2: outer_partition_radius set to              5.048384829883283 AA .
  | Original list of interatomic distances with           4 x          4 entries is created.
  | Net number of integration points:    20664
  | of which are non-zero points    :    18391
  Renormalizing the initial density to the exact electron count on the 3D integration grid.
  | Initial density: Formal number of electrons (from input files) :      11.0000000000
  | Integrated number of electrons on 3D grid     :      10.9999418784
  | Charge integration error                      :      -0.0000581216
  | Normalization factor for density and gradient :       1.0000052838
  Obtaining max. number of non-zero basis functions in each batch (get_n_compute_maxes).
  | Maximal number of non-zero basis functions:       29 in task     0
  Selecting the method for density update.
  Loop over occupied states selected for charge density update.
  Allocating        0.003 MB for KS_eigenvector
  Integrating Hamiltonian matrix: batch-based integration.
  Time summed over all CPUs for integration: real work        0.029 s, elapsed        0.029 s
  Integrating overlap matrix.
  Time summed over all CPUs for integration: real work        0.014 s, elapsed        0.014 s

  Updating Kohn-Sham eigenvalues, eigenvectors, occupation numbers, and Fermi level.
  Solving generalized eigenproblem
  Updating Kohn-Sham eigenvalues and eigenfunctions.
  Transforming overlap matrix and checking for singularities.
  Overlap matrix is nonsingular:
  | Lowest eigenvalue:  0.148931E-01
  Solving real generalised eigenvalue problem by standard LAPACK (fast)

  Obtaining occupation numbers and chemical potential using ELSI.
  | Chemical potential (Fermi level):    -6.76995633eV
  Writing Kohn-Sham eigenvalues.

  State    Occupation    Eigenvalue [Ha]    Eigenvalue [eV]
      1       2.00000         -18.911221         -514.60051
      2       2.00000          -1.150558          -31.30826
      3       2.00000          -0.670407          -18.24269
      4       2.00000          -0.670394          -18.24235
      5       2.00000          -0.507489          -13.80948
      6       0.00000          -0.090563           -2.46433
      7       0.00000           0.002260            0.06149
      8       0.00000           0.002264            0.06159
      9       0.00000           0.199686            5.43374
     10       0.00000           0.264895            7.20816
     11       0.00000           0.264908            7.20852
     12       0.00000           0.467242           12.71429
     13       0.00000           0.669033           18.20532

  Highest occupied state (VBM) at    -13.80948042 eV
  | Occupation number:      2.00000000

  Lowest unoccupied state (CBM) at    -2.46433173 eV
  | Occupation number:      0.00000000

  Overall HOMO-LUMO gap:     11.34514870 eV.
  Calculating total energy contributions from superposition of free atom densities.

  Total energy components:
  | Sum of eigenvalues            :         -43.82013623 Ha       -1192.40657578 eV
  | XC energy correction          :          -8.86312416 Ha        -241.17787928 eV
  | XC potential correction       :          11.67067134 Ha         317.57512514 eV
  | Free-atom electrostatic energy:         -35.30059866 Ha        -960.57816320 eV
  | Hartree energy correction     :          -0.00000000 Ha          -0.00000000 eV
  | Entropy correction            :          -0.00000000 Ha          -0.00000000 eV
  | ---------------------------
  | Total energy                  :         -76.31318771 Ha       -2076.58749313 eV
  | Total energy, T -> 0          :         -76.31318771 Ha       -2076.58749313 eV  <-- do not rely on this value for anything but (periodic) metals
  | Electronic free energy        :         -76.31318771 Ha       -2076.58749313 eV

  Derived energy quantities:
  | Kinetic energy                :          75.66329528 Ha        2058.90302038 eV
  | Electrostatic energy          :        -143.11335883 Ha       -3894.31263423 eV
  | Energy correction for multipole
  | error in Hartree potential    :           0.00000000 Ha           0.00000000 eV
  | Sum of eigenvalues per atom                           :        -298.10164395 eV
  | Total energy (T->0) per atom                          :        -519.14687328 eV  <-- do not rely on this value for anything but (periodic) metals
  | Electronic free energy per atom                       :        -519.14687328 eV
  Initialize hartree_potential_storage
  Max. number of atoms included in rho_multipole:            4

  End scf initialization - timings             :  max(cpu_time)    wall_clock(cpu1)
  | Time for scf. initialization               :        0.083 s           0.084 s
  | Boundary condition initialization          :        0.000 s           0.001 s
  | Integration                                :        0.043 s           0.043 s
  | Solution of K.-S. eqns.                    :        0.001 s           0.001 s
  | Grid partitioning                          :        0.014 s           0.013 s
  | Preloading free-atom quantities on grid    :        0.001 s           0.001 s
  | Free-atom superposition energy             :        0.013 s           0.012 s
  | Total energy evaluation                    :        0.000 s           0.001 s

  Partial memory accounting:
  | Current value for overall tracked memory usage on task 0  :           0.017 MB
  | Peak value for overall tracked memory usage on task 0     :           0.075 MB after allocating wave
  | Largest tracked array allocation on task 0 so far         :           0.019 MB  when allocating H_times_psi
  Note:  These values currently only include a subset of arrays which are explicitly tracked.
  The "true" memory usage will be greater.
------------------------------------------------------------

------------------------------------------------------------
          Begin self-consistency iteration #    1

  Date     :  20190509, Time     :  114704.046
------------------------------------------------------------
  Evaluating new KS density.
  Integration grid: deviation in total charge (<rho> - N_e) =  -1.598721E-14
  Pulay mixing of updated and previous charge densities.

  Evaluating partitioned Hartree potential by multipole expansion.
  | Analytical far-field extrapolation by fixed multipoles:
  | Hartree multipole sum: apparent total charge =   0.499220E-01
  Summing up the Hartree potential.
  Time summed over all CPUs for potential: real work        0.017 s, elapsed        0.017 s
  | RMS charge density error from multipole expansion :   0.484979E-03

  Integrating Hamiltonian matrix: batch-based integration.
  Time summed over all CPUs for integration: real work        0.031 s, elapsed        0.031 s

  Updating Kohn-Sham eigenvalues, eigenvectors, occupation numbers, and Fermi level.
  Solving generalized eigenproblem
  Updating Kohn-Sham eigenvalues and eigenfunctions.
  Solving real generalised eigenvalue problem by standard LAPACK (fast)

  Obtaining occupation numbers and chemical potential using ELSI.
  | Chemical potential (Fermi level):    -6.98791510eV
  Writing Kohn-Sham eigenvalues.

  State    Occupation    Eigenvalue [Ha]    Eigenvalue [eV]
      1       2.00000         -18.901706         -514.34158
      2       2.00000          -1.154719          -31.42152
      3       2.00000          -0.675856          -18.39099
      4       2.00000          -0.675844          -18.39064
      5       2.00000          -0.510144          -13.88171
      6       0.00000          -0.100871           -2.74483
      7       0.00000          -0.007381           -0.20086
      8       0.00000          -0.007377           -0.20075
      9       0.00000           0.192559            5.23980
     10       0.00000           0.255031            6.93975
     11       0.00000           0.255044            6.94011
     12       0.00000           0.456594           12.42456
     13       0.00000           0.660161           17.96390

  Highest occupied state (VBM) at    -13.88171278 eV
  | Occupation number:      2.00000000

  Lowest unoccupied state (CBM) at    -2.74483174 eV
  | Occupation number:      0.00000000

  Overall HOMO-LUMO gap:     11.13688104 eV.

  Total energy components:
  | Sum of eigenvalues            :         -43.83653715 Ha       -1192.85286741 eV
  | XC energy correction          :          -8.86624482 Ha        -241.26279682 eV
  | XC potential correction       :          11.67500367 Ha         317.69301378 eV
  | Free-atom electrostatic energy:         -35.30059866 Ha        -960.57816320 eV
  | Hartree energy correction     :           0.03297849 Ha           0.89739035 eV
  | Entropy correction            :          -0.00000000 Ha          -0.00000000 eV
  | ---------------------------
  | Total energy                  :         -76.29539847 Ha       -2076.10342330 eV
  | Total energy, T -> 0          :         -76.29539847 Ha       -2076.10342330 eV  <-- do not rely on this value for anything but (periodic) metals
  | Electronic free energy        :         -76.29539847 Ha       -2076.10342330 eV

  Derived energy quantities:
  | Kinetic energy                :          75.75218718 Ha        2061.32189211 eV
  | Electrostatic energy          :        -143.18134083 Ha       -3896.16251859 eV
  | Energy correction for multipole
  | error in Hartree potential    :           0.00050558 Ha           0.01375758 eV
  | Sum of eigenvalues per atom                           :        -298.21321685 eV
  | Total energy (T->0) per atom                          :        -519.02585583 eV  <-- do not rely on this value for anything but (periodic) metals
  | Electronic free energy per atom                       :        -519.02585583 eV

  Self-consistency convergence accuracy:
  | Change of charge density      :  0.2570E+00
  | Change of sum of eigenvalues  : -0.4463E+00 eV
  | Change of total energy        :  0.4841E+00 eV

  End self-consistency iteration #     1       :  max(cpu_time)    wall_clock(cpu1)
  | Time for this iteration                    :        0.063 s           0.062 s
  | Charge density update                      :        0.013 s           0.012 s
  | Density mixing                             :        0.000 s           0.001 s
  | Hartree multipole update                   :        0.002 s           0.001 s
  | Hartree multipole summation                :        0.017 s           0.017 s
  | Integration                                :        0.031 s           0.031 s
  | Solution of K.-S. eqns.                    :        0.000 s           0.000 s
  | Total energy evaluation                    :        0.000 s           0.000 s

  Partial memory accounting:
  | Current value for overall tracked memory usage on task 0  :           0.017 MB
  | Peak value for overall tracked memory usage on task 0     :           0.082 MB after allocating wave
  | Largest tracked array allocation on task 0 so far         :           0.019 MB  when allocating H_times_psi
  Note:  These values currently only include a subset of arrays which are explicitly tracked.
  The "true" memory usage will be greater.
------------------------------------------------------------

------------------------------------------------------------
          Begin self-consistency iteration #    2

  Date     :  20190509, Time     :  114704.108
------------------------------------------------------------
  Evaluating new KS density.
  Integration grid: deviation in total charge (<rho> - N_e) =   7.105427E-15
  Pulay mixing of updated and previous charge densities.

  Evaluating partitioned Hartree potential by multipole expansion.
  | Analytical far-field extrapolation by fixed multipoles:
  | Hartree multipole sum: apparent total charge =   0.436144E+00
  Summing up the Hartree potential.
  Time summed over all CPUs for potential: real work        0.016 s, elapsed        0.016 s
  | RMS charge density error from multipole expansion :   0.417764E-02

  Integrating Hamiltonian matrix: batch-based integration.
  Time summed over all CPUs for integration: real work        0.029 s, elapsed        0.029 s

  Updating Kohn-Sham eigenvalues, eigenvectors, occupation numbers, and Fermi level.
  Solving generalized eigenproblem
  Updating Kohn-Sham eigenvalues and eigenfunctions.
  Solving real generalised eigenvalue problem by standard LAPACK (fast)

  Obtaining occupation numbers and chemical potential using ELSI.
  | Chemical potential (Fermi level):    -8.70782296eV
  Highest occupied state (VBM) at    -14.67198727 eV
  | Occupation number:      2.00000000

  Lowest unoccupied state (CBM) at    -4.88255558 eV
  | Occupation number:      0.00000000

  Overall HOMO-LUMO gap:      9.78943169 eV.

  Checking to see if s.c.f. parameters should be adjusted.
  The system likely has a gap. Increased the default Pulay mixing parameter (charge_mix_param). Value:   0.200000 .
  Kept the default occupation width. Value:   0.010000 eV.

  Total energy components:
  | Sum of eigenvalues            :         -44.06225534 Ha       -1198.99497196 eV
  | XC energy correction          :          -8.88929138 Ha        -241.88992575 eV
  | XC potential correction       :          11.70699681 Ha         318.56359164 eV
  | Free-atom electrostatic energy:         -35.30059866 Ha        -960.57816320 eV
  | Hartree energy correction     :           0.33669510 Ha           9.16193980 eV
  | Entropy correction            :          -0.00000000 Ha          -0.00000000 eV
  | ---------------------------
  | Total energy                  :         -76.20845347 Ha       -2073.73752948 eV
  | Total energy, T -> 0          :         -76.20845347 Ha       -2073.73752948 eV  <-- do not rely on this value for anything but (periodic) metals
  | Electronic free energy        :         -76.20845347 Ha       -2073.73752948 eV

  Derived energy quantities:
  | Kinetic energy                :          76.28279864 Ha        2075.76056455 eV
  | Electrostatic energy          :        -143.60196073 Ha       -3907.60816828 eV
  | Energy correction for multipole
  | error in Hartree potential    :           0.00416798 Ha           0.11341649 eV
  | Sum of eigenvalues per atom                           :        -299.74874299 eV
  | Total energy (T->0) per atom                          :        -518.43438237 eV  <-- do not rely on this value for anything but (periodic) metals
  | Electronic free energy per atom                       :        -518.43438237 eV

  Self-consistency convergence accuracy:
  | Change of charge density      :  0.2321E+00
  | Change of sum of eigenvalues  : -0.6142E+01 eV
  | Change of total energy        :  0.2366E+01 eV

  End self-consistency iteration #     2       :  max(cpu_time)    wall_clock(cpu1)
  | Time for this iteration                    :        0.060 s           0.060 s
  | Charge density update                      :        0.012 s           0.013 s
  | Density mixing                             :        0.000 s           0.000 s
  | Hartree multipole update                   :        0.001 s           0.001 s
  | Hartree multipole summation                :        0.017 s           0.016 s
  | Integration                                :        0.029 s           0.029 s
  | Solution of K.-S. eqns.                    :        0.000 s           0.000 s
  | Total energy evaluation                    :        0.000 s           0.000 s

  Partial memory accounting:
  | Current value for overall tracked memory usage on task 0  :           0.018 MB
  | Peak value for overall tracked memory usage on task 0     :           0.083 MB after allocating wave
  | Largest tracked array allocation on task 0 so far         :           0.019 MB  when allocating H_times_psi
  Note:  These values currently only include a subset of arrays which are explicitly tracked.
  The "true" memory usage will be greater.
------------------------------------------------------------

------------------------------------------------------------
          Begin self-consistency iteration #    3

  Date     :  20190509, Time     :  114704.168
------------------------------------------------------------
  Evaluating new KS density.
  Integration grid: deviation in total charge (<rho> - N_e) =   7.105427E-15
  Pulay mixing of updated and previous charge densities.

  Evaluating partitioned Hartree potential by multipole expansion.
  | Analytical far-field extrapolation by fixed multipoles:
  | Hartree multipole sum: apparent total charge =   0.853706E+00
  Summing up the Hartree potential.
  Time summed over all CPUs for potential: real work        0.016 s, elapsed        0.016 s
  | RMS charge density error from multipole expansion :   0.781343E-02

  Integrating Hamiltonian matrix: batch-based integration.
  Time summed over all CPUs for integration: real work        0.028 s, elapsed        0.028 s

  Updating Kohn-Sham eigenvalues, eigenvectors, occupation numbers, and Fermi level.
  Solving generalized eigenproblem
  Updating Kohn-Sham eigenvalues and eigenfunctions.
  Solving real generalised eigenvalue problem by standard LAPACK (fast)

  Obtaining occupation numbers and chemical potential using ELSI.
  | Chemical potential (Fermi level):   -11.62010884eV
  Highest occupied state (VBM) at    -18.16039358 eV
  | Occupation number:      2.00000000

  Lowest unoccupied state (CBM) at    -7.60046861 eV
  | Occupation number:      0.00000000

  Overall HOMO-LUMO gap:     10.55992497 eV.

  Total energy components:
  | Sum of eigenvalues            :         -45.44909308 Ha       -1236.73274685 eV
  | XC energy correction          :          -8.79472394 Ha        -239.31661464 eV
  | XC potential correction       :          11.58351121 Ha         315.20337750 eV
  | Free-atom electrostatic energy:         -35.30059866 Ha        -960.57816320 eV
  | Hartree energy correction     :           1.78469670 Ha          48.56406801 eV
  | Entropy correction            :          -0.00000000 Ha          -0.00000000 eV
  | ---------------------------
  | Total energy                  :         -76.17620776 Ha       -2072.86007919 eV
  | Total energy, T -> 0          :         -76.17620776 Ha       -2072.86007919 eV  <-- do not rely on this value for anything but (periodic) metals
  | Electronic free energy        :         -76.17620776 Ha       -2072.86007919 eV

  Derived energy quantities:
  | Kinetic energy                :          75.81706552 Ha        2063.08732155 eV
  | Electrostatic energy          :        -143.19854935 Ha       -3896.63078609 eV
  | Energy correction for multipole
  | error in Hartree potential    :           0.00573035 Ha           0.15593066 eV
  | Sum of eigenvalues per atom                           :        -309.18318671 eV
  | Total energy (T->0) per atom                          :        -518.21501980 eV  <-- do not rely on this value for anything but (periodic) metals
  | Electronic free energy per atom                       :        -518.21501980 eV

  Self-consistency convergence accuracy:
  | Change of charge density      :  0.1081E+00
  | Change of sum of eigenvalues  : -0.3774E+02 eV
  | Change of total energy        :  0.8775E+00 eV

  End self-consistency iteration #     3       :  max(cpu_time)    wall_clock(cpu1)
  | Time for this iteration                    :        0.058 s           0.058 s
  | Charge density update                      :        0.011 s           0.012 s
  | Density mixing                             :        0.000 s           0.000 s
  | Hartree multipole update                   :        0.001 s           0.001 s
  | Hartree multipole summation                :        0.016 s           0.017 s
  | Integration                                :        0.028 s           0.028 s
  | Solution of K.-S. eqns.                    :        0.000 s           0.000 s
  | Total energy evaluation                    :        0.000 s           0.000 s

  Partial memory accounting:
  | Current value for overall tracked memory usage on task 0  :           0.018 MB
  | Peak value for overall tracked memory usage on task 0     :           0.083 MB after allocating wave
  | Largest tracked array allocation on task 0 so far         :           0.019 MB  when allocating H_times_psi
  Note:  These values currently only include a subset of arrays which are explicitly tracked.
  The "true" memory usage will be greater.
------------------------------------------------------------

------------------------------------------------------------
          Begin self-consistency iteration #    4

  Date     :  20190509, Time     :  114704.226
------------------------------------------------------------
  Evaluating new KS density.
  Integration grid: deviation in total charge (<rho> - N_e) =   1.065814E-14
  Pulay mixing of updated and previous charge densities.

  Evaluating partitioned Hartree potential by multipole expansion.
  | Analytical far-field extrapolation by fixed multipoles:
  | Hartree multipole sum: apparent total charge =   0.100712E+01
  Summing up the Hartree potential.
  Time summed over all CPUs for potential: real work        0.017 s, elapsed        0.017 s
  | RMS charge density error from multipole expansion :   0.923452E-02

  Integrating Hamiltonian matrix: batch-based integration.
  Time summed over all CPUs for integration: real work        0.029 s, elapsed        0.029 s

  Updating Kohn-Sham eigenvalues, eigenvectors, occupation numbers, and Fermi level.
  Solving generalized eigenproblem
  Updating Kohn-Sham eigenvalues and eigenfunctions.
  Solving real generalised eigenvalue problem by standard LAPACK (fast)

  Obtaining occupation numbers and chemical potential using ELSI.
  | Chemical potential (Fermi level):   -12.33725408eV
  Highest occupied state (VBM) at    -18.92904107 eV
  | Occupation number:      2.00000000

  Lowest unoccupied state (CBM) at    -8.36414317 eV
  | Occupation number:      0.00000000

  Overall HOMO-LUMO gap:     10.56489790 eV.

  Total energy components:
  | Sum of eigenvalues            :         -45.73633110 Ha       -1244.54889128 eV
  | XC energy correction          :          -8.79081111 Ha        -239.21014120 eV
  | XC potential correction       :          11.57881369 Ha         315.07555124 eV
  | Free-atom electrostatic energy:         -35.30059866 Ha        -960.57816320 eV
  | Hartree energy correction     :           2.07504650 Ha          56.46488826 eV
  | Entropy correction            :          -0.00000000 Ha          -0.00000000 eV
  | ---------------------------
  | Total energy                  :         -76.17388069 Ha       -2072.79675618 eV
  | Total energy, T -> 0          :         -76.17388069 Ha       -2072.79675618 eV  <-- do not rely on this value for anything but (periodic) metals
  | Electronic free energy        :         -76.17388069 Ha       -2072.79675618 eV

  Derived energy quantities:
  | Kinetic energy                :          75.79874964 Ha        2062.58892119 eV
  | Electrostatic energy          :        -143.18181922 Ha       -3896.17553617 eV
  | Energy correction for multipole
  | error in Hartree potential    :           0.00664226 Ha           0.18074504 eV
  | Sum of eigenvalues per atom                           :        -311.13722282 eV
  | Total energy (T->0) per atom                          :        -518.19918905 eV  <-- do not rely on this value for anything but (periodic) metals
  | Electronic free energy per atom                       :        -518.19918905 eV

  Self-consistency convergence accuracy:
  | Change of charge density      :  0.4475E-01
  | Change of sum of eigenvalues  : -0.7816E+01 eV
  | Change of total energy        :  0.6332E-01 eV

  End self-consistency iteration #     4       :  max(cpu_time)    wall_clock(cpu1)
  | Time for this iteration                    :        0.059 s           0.059 s
  | Charge density update                      :        0.011 s           0.012 s
  | Density mixing                             :        0.000 s           0.000 s
  | Hartree multipole update                   :        0.001 s           0.001 s
  | Hartree multipole summation                :        0.017 s           0.017 s
  | Integration                                :        0.029 s           0.029 s
  | Solution of K.-S. eqns.                    :        0.000 s           0.000 s
  | Total energy evaluation                    :        0.000 s           0.000 s

  Partial memory accounting:
  | Current value for overall tracked memory usage on task 0  :           0.019 MB
  | Peak value for overall tracked memory usage on task 0     :           0.083 MB after allocating wave
  | Largest tracked array allocation on task 0 so far         :           0.019 MB  when allocating H_times_psi
  Note:  These values currently only include a subset of arrays which are explicitly tracked.
  The "true" memory usage will be greater.
------------------------------------------------------------

------------------------------------------------------------
          Begin self-consistency iteration #    5

  Date     :  20190509, Time     :  114704.285
------------------------------------------------------------
  Evaluating new KS density.
  Integration grid: deviation in total charge (<rho> - N_e) =   1.776357E-14
  Pulay mixing of updated and previous charge densities.

  Evaluating partitioned Hartree potential by multipole expansion.
  | Analytical far-field extrapolation by fixed multipoles:
  | Hartree multipole sum: apparent total charge =   0.101055E+01
  Summing up the Hartree potential.
  Time summed over all CPUs for potential: real work        0.016 s, elapsed        0.016 s
  | RMS charge density error from multipole expansion :   0.933403E-02

  Integrating Hamiltonian matrix: batch-based integration.
  Time summed over all CPUs for integration: real work        0.028 s, elapsed        0.028 s

  Updating Kohn-Sham eigenvalues, eigenvectors, occupation numbers, and Fermi level.
  Solving generalized eigenproblem
  Updating Kohn-Sham eigenvalues and eigenfunctions.
  Solving real generalised eigenvalue problem by standard LAPACK (fast)

  Obtaining occupation numbers and chemical potential using ELSI.
  | Chemical potential (Fermi level):   -12.17674904eV
  Highest occupied state (VBM) at    -18.71182681 eV
  | Occupation number:      2.00000000

  Lowest unoccupied state (CBM) at    -8.24334676 eV
  | Occupation number:      0.00000000

  Overall HOMO-LUMO gap:     10.46848005 eV.

  Total energy components:
  | Sum of eigenvalues            :         -45.64215977 Ha       -1241.98635901 eV
  | XC energy correction          :          -8.80437290 Ha        -239.57917615 eV
  | XC potential correction       :          11.59668084 Ha         315.56174137 eV
  | Free-atom electrostatic energy:         -35.30059866 Ha        -960.57816320 eV
  | Hartree energy correction     :           1.97666957 Ha          53.78791573 eV
  | Entropy correction            :          -0.00000000 Ha          -0.00000000 eV
  | ---------------------------
  | Total energy                  :         -76.17378091 Ha       -2072.79404127 eV
  | Total energy, T -> 0          :         -76.17378091 Ha       -2072.79404127 eV  <-- do not rely on this value for anything but (periodic) metals
  | Electronic free energy        :         -76.17378091 Ha       -2072.79404127 eV

  Derived energy quantities:
  | Kinetic energy                :          75.84639357 Ha        2063.88537843 eV
  | Electrostatic energy          :        -143.21580159 Ha       -3897.10024355 eV
  | Energy correction for multipole
  | error in Hartree potential    :           0.00644164 Ha           0.17528608 eV
  | Sum of eigenvalues per atom                           :        -310.49658975 eV
  | Total energy (T->0) per atom                          :        -518.19851032 eV  <-- do not rely on this value for anything but (periodic) metals
  | Electronic free energy per atom                       :        -518.19851032 eV

  Self-consistency convergence accuracy:
  | Change of charge density      :  0.1071E-01
  | Change of sum of eigenvalues  :  0.2563E+01 eV
  | Change of total energy        :  0.2715E-02 eV

  End self-consistency iteration #     5       :  max(cpu_time)    wall_clock(cpu1)
  | Time for this iteration                    :        0.058 s           0.058 s
  | Charge density update                      :        0.011 s           0.011 s
  | Density mixing                             :        0.001 s           0.001 s
  | Hartree multipole update                   :        0.001 s           0.001 s
  | Hartree multipole summation                :        0.016 s           0.017 s
  | Integration                                :        0.028 s           0.028 s
  | Solution of K.-S. eqns.                    :        0.000 s           0.000 s
  | Total energy evaluation                    :        0.000 s           0.000 s

  Partial memory accounting:
  | Current value for overall tracked memory usage on task 0  :           0.019 MB
  | Peak value for overall tracked memory usage on task 0     :           0.083 MB after allocating wave
  | Largest tracked array allocation on task 0 so far         :           0.019 MB  when allocating H_times_psi
  Note:  These values currently only include a subset of arrays which are explicitly tracked.
  The "true" memory usage will be greater.
------------------------------------------------------------

------------------------------------------------------------
          Begin self-consistency iteration #    6

  Date     :  20190509, Time     :  114704.343
------------------------------------------------------------
  Evaluating new KS density.
  Integration grid: deviation in total charge (<rho> - N_e) =  -7.105427E-15
  Pulay mixing of updated and previous charge densities.

  Evaluating partitioned Hartree potential by multipole expansion.
  | Analytical far-field extrapolation by fixed multipoles:
  | Hartree multipole sum: apparent total charge =   0.100146E+01
  Summing up the Hartree potential.
  Time summed over all CPUs for potential: real work        0.017 s, elapsed        0.017 s
  | RMS charge density error from multipole expansion :   0.924060E-02

  Integrating Hamiltonian matrix: batch-based integration.
  Time summed over all CPUs for integration: real work        0.028 s, elapsed        0.028 s

  Updating Kohn-Sham eigenvalues, eigenvectors, occupation numbers, and Fermi level.
  Solving generalized eigenproblem
  Updating Kohn-Sham eigenvalues and eigenfunctions.
  Solving real generalised eigenvalue problem by standard LAPACK (fast)

  Obtaining occupation numbers and chemical potential using ELSI.
  | Chemical potential (Fermi level):   -12.20613592eV
  Highest occupied state (VBM) at    -18.76192662 eV
  | Occupation number:      2.00000000

  Lowest unoccupied state (CBM) at    -8.24358723 eV
  | Occupation number:      0.00000000

  Overall HOMO-LUMO gap:     10.51833939 eV.

  Total energy components:
  | Sum of eigenvalues            :         -45.66761074 Ha       -1242.67891514 eV
  | XC energy correction          :          -8.79917399 Ha        -239.43770684 eV
  | XC potential correction       :          11.58979155 Ha         315.37427412 eV
  | Free-atom electrostatic energy:         -35.30059866 Ha        -960.57816320 eV
  | Hartree energy correction     :           2.00383441 Ha          54.52710861 eV
  | Entropy correction            :          -0.00000000 Ha          -0.00000000 eV
  | ---------------------------
  | Total energy                  :         -76.17375744 Ha       -2072.79340246 eV
  | Total energy, T -> 0          :         -76.17375744 Ha       -2072.79340246 eV  <-- do not rely on this value for anything but (periodic) metals
  | Electronic free energy        :         -76.17375744 Ha       -2072.79340246 eV

  Derived energy quantities:
  | Kinetic energy                :          75.81592948 Ha        2063.05640843 eV
  | Electrostatic energy          :        -143.19051293 Ha       -3896.41210405 eV
  | Energy correction for multipole
  | error in Hartree potential    :           0.00633607 Ha           0.17241336 eV
  | Sum of eigenvalues per atom                           :        -310.66972878 eV
  | Total energy (T->0) per atom                          :        -518.19835062 eV  <-- do not rely on this value for anything but (periodic) metals
  | Electronic free energy per atom                       :        -518.19835062 eV

  Self-consistency convergence accuracy:
  | Change of charge density      :  0.7289E-02
  | Change of sum of eigenvalues  : -0.6926E+00 eV
  | Change of total energy        :  0.6388E-03 eV

  End self-consistency iteration #     6       :  max(cpu_time)    wall_clock(cpu1)
  | Time for this iteration                    :        0.059 s           0.059 s
  | Charge density update                      :        0.012 s           0.012 s
  | Density mixing                             :        0.001 s           0.000 s
  | Hartree multipole update                   :        0.001 s           0.002 s
  | Hartree multipole summation                :        0.017 s           0.017 s
  | Integration                                :        0.029 s           0.028 s
  | Solution of K.-S. eqns.                    :        0.000 s           0.000 s
  | Total energy evaluation                    :        0.000 s           0.000 s

  Partial memory accounting:
  | Current value for overall tracked memory usage on task 0  :           0.019 MB
  | Peak value for overall tracked memory usage on task 0     :           0.084 MB after allocating wave
  | Largest tracked array allocation on task 0 so far         :           0.019 MB  when allocating H_times_psi
  Note:  These values currently only include a subset of arrays which are explicitly tracked.
  The "true" memory usage will be greater.
------------------------------------------------------------

------------------------------------------------------------
          Begin self-consistency iteration #    7

  Date     :  20190509, Time     :  114704.402
------------------------------------------------------------
  Evaluating new KS density.
  Integration grid: deviation in total charge (<rho> - N_e) =  -1.776357E-14
  Pulay mixing of updated and previous charge densities.

  Evaluating partitioned Hartree potential by multipole expansion.
  | Analytical far-field extrapolation by fixed multipoles:
  | Hartree multipole sum: apparent total charge =   0.999110E+00
  Summing up the Hartree potential.
  Time summed over all CPUs for potential: real work        0.017 s, elapsed        0.017 s
  | RMS charge density error from multipole expansion :   0.923453E-02

  Integrating Hamiltonian matrix: batch-based integration.
  Time summed over all CPUs for integration: real work        0.028 s, elapsed        0.028 s

  Updating Kohn-Sham eigenvalues, eigenvectors, occupation numbers, and Fermi level.
  Solving generalized eigenproblem
  Updating Kohn-Sham eigenvalues and eigenfunctions.
  Solving real generalised eigenvalue problem by standard LAPACK (fast)

  Obtaining occupation numbers and chemical potential using ELSI.
  | Chemical potential (Fermi level):   -12.15379017eV
  Highest occupied state (VBM) at    -18.68256858 eV
  | Occupation number:      2.00000000

  Lowest unoccupied state (CBM) at    -8.19947794 eV
  | Occupation number:      0.00000000

  Overall HOMO-LUMO gap:     10.48309064 eV.

  Total energy components:
  | Sum of eigenvalues            :         -45.63713302 Ha       -1241.84957410 eV
  | XC energy correction          :          -8.80271602 Ha        -239.53409017 eV
  | XC potential correction       :          11.59444560 Ha         315.50091717 eV
  | Free-atom electrostatic energy:         -35.30059866 Ha        -960.57816320 eV
  | Hartree energy correction     :           1.97225930 Ha          53.66790616 eV
  | Entropy correction            :          -0.00000000 Ha          -0.00000000 eV
  | ---------------------------
  | Total energy                  :         -76.17374280 Ha       -2072.79300414 eV
  | Total energy, T -> 0          :         -76.17374280 Ha       -2072.79300414 eV  <-- do not rely on this value for anything but (periodic) metals
  | Electronic free energy        :         -76.17374280 Ha       -2072.79300414 eV

  Derived energy quantities:
  | Kinetic energy                :          75.82566367 Ha        2063.32128921 eV
  | Electrostatic energy          :        -143.19669046 Ha       -3896.58020318 eV
  | Energy correction for multipole
  | error in Hartree potential    :           0.00622646 Ha           0.16943072 eV
  | Sum of eigenvalues per atom                           :        -310.46239352 eV
  | Total energy (T->0) per atom                          :        -518.19825103 eV  <-- do not rely on this value for anything but (periodic) metals
  | Electronic free energy per atom                       :        -518.19825103 eV

  Self-consistency convergence accuracy:
  | Change of charge density      :  0.3742E-02
  | Change of sum of eigenvalues  :  0.8293E+00 eV
  | Change of total energy        :  0.3983E-03 eV

  End self-consistency iteration #     7       :  max(cpu_time)    wall_clock(cpu1)
  | Time for this iteration                    :        0.059 s           0.060 s
  | Charge density update                      :        0.011 s           0.012 s
  | Density mixing                             :        0.001 s           0.001 s
  | Hartree multipole update                   :        0.001 s           0.001 s
  | Hartree multipole summation                :        0.017 s           0.017 s
  | Integration                                :        0.029 s           0.028 s
  | Solution of K.-S. eqns.                    :        0.000 s           0.000 s
  | Total energy evaluation                    :        0.000 s           0.000 s

  Partial memory accounting:
  | Current value for overall tracked memory usage on task 0  :           0.019 MB
  | Peak value for overall tracked memory usage on task 0     :           0.084 MB after allocating wave
  | Largest tracked array allocation on task 0 so far         :           0.019 MB  when allocating H_times_psi
  Note:  These values currently only include a subset of arrays which are explicitly tracked.
  The "true" memory usage will be greater.
------------------------------------------------------------

------------------------------------------------------------
          Begin self-consistency iteration #    8

  Date     :  20190509, Time     :  114704.462
------------------------------------------------------------
  Evaluating new KS density.
  Integration grid: deviation in total charge (<rho> - N_e) =  -8.881784E-15
  Pulay mixing of updated and previous charge densities.

  Evaluating partitioned Hartree potential by multipole expansion.
  | Analytical far-field extrapolation by fixed multipoles:
  | Hartree multipole sum: apparent total charge =   0.999326E+00
  Summing up the Hartree potential.
  Time summed over all CPUs for potential: real work        0.017 s, elapsed        0.017 s
  | RMS charge density error from multipole expansion :   0.923768E-02

  Integrating Hamiltonian matrix: batch-based integration.
  Time summed over all CPUs for integration: real work        0.030 s, elapsed        0.030 s

  Updating Kohn-Sham eigenvalues, eigenvectors, occupation numbers, and Fermi level.
  Solving generalized eigenproblem
  Updating Kohn-Sham eigenvalues and eigenfunctions.
  Solving real generalised eigenvalue problem by standard LAPACK (fast)

  Obtaining occupation numbers and chemical potential using ELSI.
  | Chemical potential (Fermi level):   -12.14978689eV
  Highest occupied state (VBM) at    -18.67690662 eV
  | Occupation number:      2.00000000

  Lowest unoccupied state (CBM) at    -8.19652975 eV
  | Occupation number:      0.00000000

  Overall HOMO-LUMO gap:     10.48037686 eV.

  Total energy components:
  | Sum of eigenvalues            :         -45.63503987 Ha       -1241.79261650 eV
  | XC energy correction          :          -8.80305016 Ha        -239.54318255 eV
  | XC potential correction       :          11.59488537 Ha         315.51288391 eV
  | Free-atom electrostatic energy:         -35.30059866 Ha        -960.57816320 eV
  | Hartree energy correction     :           1.97006070 Ha          53.60807917 eV
  | Entropy correction            :          -0.00000000 Ha          -0.00000000 eV
  | ---------------------------
  | Total energy                  :         -76.17374262 Ha       -2072.79299918 eV
  | Total energy, T -> 0          :         -76.17374262 Ha       -2072.79299918 eV  <-- do not rely on this value for anything but (periodic) metals
  | Electronic free energy        :         -76.17374262 Ha       -2072.79299918 eV

  Derived energy quantities:
  | Kinetic energy                :          75.82611638 Ha        2063.33360796 eV
  | Electrostatic energy          :        -143.19680884 Ha       -3896.58342459 eV
  | Energy correction for multipole
  | error in Hartree potential    :           0.00621215 Ha           0.16904111 eV
  | Sum of eigenvalues per atom                           :        -310.44815412 eV
  | Total energy (T->0) per atom                          :        -518.19824979 eV  <-- do not rely on this value for anything but (periodic) metals
  | Electronic free energy per atom                       :        -518.19824979 eV

  Self-consistency convergence accuracy:
  | Change of charge density      :  0.5225E-03
  | Change of sum of eigenvalues  :  0.5696E-01 eV
  | Change of total energy        :  0.4964E-05 eV

  End self-consistency iteration #     8       :  max(cpu_time)    wall_clock(cpu1)
  | Time for this iteration                    :        0.061 s           0.061 s
  | Charge density update                      :        0.011 s           0.011 s
  | Density mixing                             :        0.001 s           0.001 s
  | Hartree multipole update                   :        0.001 s           0.001 s
  | Hartree multipole summation                :        0.017 s           0.017 s
  | Integration                                :        0.031 s           0.030 s
  | Solution of K.-S. eqns.                    :        0.000 s           0.000 s
  | Total energy evaluation                    :        0.000 s           0.000 s

  Partial memory accounting:
  | Current value for overall tracked memory usage on task 0  :           0.020 MB
  | Peak value for overall tracked memory usage on task 0     :           0.084 MB after allocating wave
  | Largest tracked array allocation on task 0 so far         :           0.019 MB  when allocating H_times_psi
  Note:  These values currently only include a subset of arrays which are explicitly tracked.
  The "true" memory usage will be greater.
------------------------------------------------------------

------------------------------------------------------------
          Begin self-consistency iteration #    9

  Date     :  20190509, Time     :  114704.523
------------------------------------------------------------
  Evaluating new KS density.
  Integration grid: deviation in total charge (<rho> - N_e) =   5.329071E-15
  Pulay mixing of updated and previous charge densities.

  Evaluating partitioned Hartree potential by multipole expansion.
  | Analytical far-field extrapolation by fixed multipoles:
  | Hartree multipole sum: apparent total charge =   0.999550E+00
  Summing up the Hartree potential.
  Time summed over all CPUs for potential: real work        0.018 s, elapsed        0.018 s
  | RMS charge density error from multipole expansion :   0.923796E-02

  Integrating Hamiltonian matrix: batch-based integration.
  Time summed over all CPUs for integration: real work        0.028 s, elapsed        0.028 s

  Updating Kohn-Sham eigenvalues, eigenvectors, occupation numbers, and Fermi level.
  Solving generalized eigenproblem
  Updating Kohn-Sham eigenvalues and eigenfunctions.
  Solving real generalised eigenvalue problem by standard LAPACK (fast)

  Obtaining occupation numbers and chemical potential using ELSI.
  | Chemical potential (Fermi level):   -12.14890150eV
  Highest occupied state (VBM) at    -18.67585732 eV
  | Occupation number:      2.00000000

  Lowest unoccupied state (CBM) at    -8.19593371 eV
  | Occupation number:      0.00000000

  Overall HOMO-LUMO gap:     10.47992361 eV.

  Total energy components:
  | Sum of eigenvalues            :         -45.63497010 Ha       -1241.79071808 eV
  | XC energy correction          :          -8.80309873 Ha        -239.54450439 eV
  | XC potential correction       :          11.59494887 Ha         315.51461209 eV
  | Free-atom electrostatic energy:         -35.30059866 Ha        -960.57816320 eV
  | Hartree energy correction     :           1.96997632 Ha          53.60578304 eV
  | Entropy correction            :          -0.00000000 Ha          -0.00000000 eV
  | ---------------------------
  | Total energy                  :         -76.17374230 Ha       -2072.79299055 eV
  | Total energy, T -> 0          :         -76.17374230 Ha       -2072.79299055 eV  <-- do not rely on this value for anything but (periodic) metals
  | Electronic free energy        :         -76.17374230 Ha       -2072.79299055 eV

  Derived energy quantities:
  | Kinetic energy                :          75.82529947 Ha        2063.31137874 eV
  | Electrostatic energy          :        -143.19594304 Ha       -3896.55986490 eV
  | Energy correction for multipole
  | error in Hartree potential    :           0.00619563 Ha           0.16859167 eV
  | Sum of eigenvalues per atom                           :        -310.44767952 eV
  | Total energy (T->0) per atom                          :        -518.19824764 eV  <-- do not rely on this value for anything but (periodic) metals
  | Electronic free energy per atom                       :        -518.19824764 eV

  Self-consistency convergence accuracy:
  | Change of charge density      :  0.2092E-03
  | Change of sum of eigenvalues  :  0.1898E-02 eV
  | Change of total energy        :  0.8622E-05 eV

  End self-consistency iteration #     9       :  max(cpu_time)    wall_clock(cpu1)
  | Time for this iteration                    :        0.063 s           0.063 s
  | Charge density update                      :        0.011 s           0.011 s
  | Density mixing                             :        0.003 s           0.003 s
  | Hartree multipole update                   :        0.002 s           0.002 s
  | Hartree multipole summation                :        0.018 s           0.018 s
  | Integration                                :        0.028 s           0.028 s
  | Solution of K.-S. eqns.                    :        0.000 s           0.000 s
  | Total energy evaluation                    :        0.000 s           0.000 s

  Partial memory accounting:
  | Current value for overall tracked memory usage on task 0  :           0.020 MB
  | Peak value for overall tracked memory usage on task 0     :           0.085 MB after allocating wave
  | Largest tracked array allocation on task 0 so far         :           0.019 MB  when allocating H_times_psi
  Note:  These values currently only include a subset of arrays which are explicitly tracked.
  The "true" memory usage will be greater.
------------------------------------------------------------

------------------------------------------------------------
          Begin self-consistency iteration #   10

  Date     :  20190509, Time     :  114704.586
------------------------------------------------------------
  Evaluating new KS density.
  Integration grid: deviation in total charge (<rho> - N_e) =   7.105427E-15
  Pulay mixing of updated and previous charge densities.

  Evaluating partitioned Hartree potential by multipole expansion.
  | Analytical far-field extrapolation by fixed multipoles:
  | Hartree multipole sum: apparent total charge =   0.999557E+00
  Summing up the Hartree potential.
  Time summed over all CPUs for potential: real work        0.016 s, elapsed        0.016 s
  | RMS charge density error from multipole expansion :   0.923806E-02

  Integrating Hamiltonian matrix: batch-based integration.
  Time summed over all CPUs for integration: real work        0.029 s, elapsed        0.029 s

  Updating Kohn-Sham eigenvalues, eigenvectors, occupation numbers, and Fermi level.
  Solving generalized eigenproblem
  Updating Kohn-Sham eigenvalues and eigenfunctions.
  Solving real generalised eigenvalue problem by standard LAPACK (fast)

  Obtaining occupation numbers and chemical potential using ELSI.
  | Chemical potential (Fermi level):   -12.14898234eV
  Highest occupied state (VBM) at    -18.67606493 eV
  | Occupation number:      2.00000000

  Lowest unoccupied state (CBM) at    -8.19599290 eV
  | Occupation number:      0.00000000

  Overall HOMO-LUMO gap:     10.48007204 eV.

  Total energy components:
  | Sum of eigenvalues            :         -45.63506453 Ha       -1241.79328772 eV
  | XC energy correction          :          -8.80308914 Ha        -239.54424341 eV
  | XC potential correction       :          11.59493621 Ha         315.51426750 eV
  | Free-atom electrostatic energy:         -35.30059866 Ha        -960.57816320 eV
  | Hartree energy correction     :           1.97007383 Ha          53.60843647 eV
  | Entropy correction            :          -0.00000000 Ha          -0.00000000 eV
  | ---------------------------
  | Total energy                  :         -76.17374229 Ha       -2072.79299036 eV
  | Total energy, T -> 0          :         -76.17374229 Ha       -2072.79299036 eV  <-- do not rely on this value for anything but (periodic) metals
  | Electronic free energy        :         -76.17374229 Ha       -2072.79299036 eV

  Derived energy quantities:
  | Kinetic energy                :          75.82524176 Ha        2063.30980823 eV
  | Electrostatic energy          :        -143.19589491 Ha       -3896.55855519 eV
  | Energy correction for multipole
  | error in Hartree potential    :           0.00619536 Ha           0.16858430 eV
  | Sum of eigenvalues per atom                           :        -310.44832193 eV
  | Total energy (T->0) per atom                          :        -518.19824759 eV  <-- do not rely on this value for anything but (periodic) metals
  | Electronic free energy per atom                       :        -518.19824759 eV

  Self-consistency convergence accuracy:
  | Change of charge density      :  0.2341E-04
  | Change of sum of eigenvalues  : -0.2570E-02 eV
  | Change of total energy        :  0.1884E-06 eV

  End self-consistency iteration #    10       :  max(cpu_time)    wall_clock(cpu1)
  | Time for this iteration                    :        0.060 s           0.059 s
  | Charge density update                      :        0.011 s           0.011 s
  | Density mixing                             :        0.001 s           0.001 s
  | Hartree multipole update                   :        0.002 s           0.001 s
  | Hartree multipole summation                :        0.017 s           0.017 s
  | Integration                                :        0.029 s           0.029 s
  | Solution of K.-S. eqns.                    :        0.000 s           0.000 s
  | Total energy evaluation                    :        0.000 s           0.000 s

  Partial memory accounting:
  | Current value for overall tracked memory usage on task 0  :           0.020 MB
  | Peak value for overall tracked memory usage on task 0     :           0.085 MB after allocating wave
  | Largest tracked array allocation on task 0 so far         :           0.019 MB  when allocating H_times_psi
  Note:  These values currently only include a subset of arrays which are explicitly tracked.
  The "true" memory usage will be greater.
------------------------------------------------------------

------------------------------------------------------------
          Begin self-consistency iteration #   11

  Date     :  20190509, Time     :  114704.645
------------------------------------------------------------
  Evaluating new KS density.
  Integration grid: deviation in total charge (<rho> - N_e) =  -5.329071E-15
  Pulay mixing of updated and previous charge densities.

  Evaluating partitioned Hartree potential by multipole expansion.
  | Analytical far-field extrapolation by fixed multipoles:
  | Hartree multipole sum: apparent total charge =   0.999567E+00
  Summing up the Hartree potential.
  Time summed over all CPUs for potential: real work        0.017 s, elapsed        0.017 s
  | RMS charge density error from multipole expansion :   0.923809E-02

  Integrating Hamiltonian matrix: batch-based integration.
  Time summed over all CPUs for integration: real work        0.028 s, elapsed        0.028 s

  Updating Kohn-Sham eigenvalues, eigenvectors, occupation numbers, and Fermi level.
  Solving generalized eigenproblem
  Updating Kohn-Sham eigenvalues and eigenfunctions.
  Solving real generalised eigenvalue problem by standard LAPACK (fast)

  Obtaining occupation numbers and chemical potential using ELSI.
  | Chemical potential (Fermi level):   -12.14899470eV
  Highest occupied state (VBM) at    -18.67610206 eV
  | Occupation number:      2.00000000

  Lowest unoccupied state (CBM) at    -8.19600849 eV
  | Occupation number:      0.00000000

  Overall HOMO-LUMO gap:     10.48009357 eV.

  Total energy components:
  | Sum of eigenvalues            :         -45.63508935 Ha       -1241.79396291 eV
  | XC energy correction          :          -8.80308782 Ha        -239.54420744 eV
  | XC potential correction       :          11.59493446 Ha         315.51421996 eV
  | Free-atom electrostatic energy:         -35.30059866 Ha        -960.57816320 eV
  | Hartree energy correction     :           1.97009908 Ha          53.60912350 eV
  | Entropy correction            :          -0.00000000 Ha          -0.00000000 eV
  | ---------------------------
[...]
  | Largest tracked array allocation on task 0 so far         :           0.019 MB  when allocating H_times_psi
  Note:  These values currently only include a subset of arrays which are explicitly tracked.
  The "true" memory usage will be greater.
------------------------------------------------------------

------------------------------------------------------------
          Begin self-consistency iteration #   12

  Date     :  20190509, Time     :  114704.705
------------------------------------------------------------
  Evaluating new KS density.
  Integration grid: deviation in total charge (<rho> - N_e) =   0.000000E+00
  Pulay mixing of updated and previous charge densities.

  Evaluating partitioned Hartree potential by multipole expansion.
  | Analytical far-field extrapolation by fixed multipoles:
  | Hartree multipole sum: apparent total charge =   0.999567E+00
  Summing up the Hartree potential.
  Time summed over all CPUs for potential: real work        0.016 s, elapsed        0.016 s
  | RMS charge density error from multipole expansion :   0.923810E-02

  Integrating Hamiltonian matrix: batch-based integration.
  Time summed over all CPUs for integration: real work        0.029 s, elapsed        0.029 s

  Updating Kohn-Sham eigenvalues, eigenvectors, occupation numbers, and Fermi level.
  Solving generalized eigenproblem
  Updating Kohn-Sham eigenvalues and eigenfunctions.
  Solving real generalised eigenvalue problem by standard LAPACK (fast)

  Obtaining occupation numbers and chemical potential using ELSI.
  | Chemical potential (Fermi level):   -12.14898980eV
  Highest occupied state (VBM) at    -18.67609641 eV
  | Occupation number:      2.00000000

  Lowest unoccupied state (CBM) at    -8.19600575 eV
  | Occupation number:      0.00000000

  Overall HOMO-LUMO gap:     10.48009065 eV.

  Total energy components:
  | Sum of eigenvalues            :         -45.63508647 Ha       -1241.79388450 eV
  | XC energy correction          :          -8.80308832 Ha        -239.54422103 eV
  | XC potential correction       :          11.59493512 Ha         315.51423790 eV
  | Free-atom electrostatic energy:         -35.30059866 Ha        -960.57816320 eV
  | Hartree energy correction     :           1.97009604 Ha          53.60904071 eV
  | Entropy correction            :          -0.00000000 Ha          -0.00000000 eV
  | ---------------------------
  | Total energy                  :         -76.17374228 Ha       -2072.79299012 eV
  | Total energy, T -> 0          :         -76.17374228 Ha       -2072.79299012 eV  <-- do not rely on this value for anything but (periodic) metals
  | Electronic free energy        :         -76.17374228 Ha       -2072.79299012 eV

  Derived energy quantities:
  | Kinetic energy                :          75.82521033 Ha        2063.30895316 eV
  | Electrostatic energy          :        -143.19586430 Ha       -3896.55772225 eV
  | Energy correction for multipole
  | error in Hartree potential    :           0.00619491 Ha           0.16857202 eV
  | Sum of eigenvalues per atom                           :        -310.44847112 eV
  | Total energy (T->0) per atom                          :        -518.19824753 eV  <-- do not rely on this value for anything but (periodic) metals
  | Electronic free energy per atom                       :        -518.19824753 eV

  Self-consistency convergence accuracy:
  | Change of charge density      :  0.6953E-06
  | Change of sum of eigenvalues  :  0.7841E-04 eV
  | Change of total energy        : -0.2381E-07 eV

  Electronic self-consistency reached - switching on the force computation.

  End self-consistency iteration #    12       :  max(cpu_time)    wall_clock(cpu1)
  | Time for this iteration                    :        0.060 s           0.060 s
  | Charge density & force component update    :        0.011 s           0.011 s
  | Density mixing                             :        0.001 s           0.001 s
  | Hartree multipole update                   :        0.001 s           0.002 s
  | Hartree multipole summation                :        0.017 s           0.016 s
  | Integration                                :        0.029 s           0.029 s
  | Solution of K.-S. eqns.                    :        0.000 s           0.000 s
  | Total energy evaluation                    :        0.000 s           0.001 s

  Partial memory accounting:
  | Current value for overall tracked memory usage on task 0  :           0.020 MB
  | Peak value for overall tracked memory usage on task 0     :           0.085 MB after allocating wave
  | Largest tracked array allocation on task 0 so far         :           0.019 MB  when allocating H_times_psi
  Note:  These values currently only include a subset of arrays which are explicitly tracked.
  The "true" memory usage will be greater.
------------------------------------------------------------

------------------------------------------------------------
          Begin self-consistency iteration #   13

  Date     :  20190509, Time     :  114704.765
------------------------------------------------------------
  Evaluating new KS density and force components.
  Integration grid: deviation in total charge (<rho> - N_e) =   5.329071E-15
  Pulay mixing of updated and previous charge densities.

  Evaluating partitioned Hartree potential by multipole expansion.
  | Analytical far-field extrapolation by fixed multipoles:
  | Hartree multipole sum: apparent total charge =   0.999567E+00
  Summing up the Hartree potential.
  Time summed over all CPUs for potential: real work        0.050 s, elapsed        0.050 s
  | RMS charge density error from multipole expansion :   0.923810E-02

  Integrating Hamiltonian matrix: batch-based integration.
  Time summed over all CPUs for integration: real work        0.028 s, elapsed        0.028 s

  Updating Kohn-Sham eigenvalues, eigenvectors, occupation numbers, and Fermi level.
  Solving generalized eigenproblem
  Updating Kohn-Sham eigenvalues and eigenfunctions.
  Solving real generalised eigenvalue problem by standard LAPACK (fast)

  Obtaining occupation numbers and chemical potential using ELSI.
  | Chemical potential (Fermi level):   -12.14898946eV
  Highest occupied state (VBM) at    -18.67609588 eV
  | Occupation number:      2.00000000

  Lowest unoccupied state (CBM) at    -8.19600549 eV
  | Occupation number:      0.00000000

  Overall HOMO-LUMO gap:     10.48009039 eV.

  Total energy components:
  | Sum of eigenvalues            :         -45.63508622 Ha       -1241.79387775 eV
  | XC energy correction          :          -8.80308835 Ha        -239.54422186 eV
  | XC potential correction       :          11.59493516 Ha         315.51423900 eV
  | Free-atom electrostatic energy:         -35.30059866 Ha        -960.57816320 eV
  | Hartree energy correction     :           1.97009578 Ha          53.60903370 eV
  | Entropy correction            :          -0.00000000 Ha          -0.00000000 eV
  | ---------------------------
  | Total energy                  :         -76.17374228 Ha       -2072.79299012 eV
  | Total energy, T -> 0          :         -76.17374228 Ha       -2072.79299012 eV  <-- do not rely on this value for anything but (periodic) metals
  | Electronic free energy        :         -76.17374228 Ha       -2072.79299012 eV

  Derived energy quantities:
  | Kinetic energy                :          75.82521051 Ha        2063.30895789 eV
  | Electrostatic energy          :        -143.19586444 Ha       -3896.55772615 eV
  | Energy correction for multipole
  | error in Hartree potential    :           0.00619491 Ha           0.16857204 eV
  | Sum of eigenvalues per atom                           :        -310.44846944 eV
  | Total energy (T->0) per atom                          :        -518.19824753 eV  <-- do not rely on this value for anything but (periodic) metals
  | Electronic free energy per atom                       :        -518.19824753 eV

  atomic forces [eV/Ang]:
  -----------------------
  atom #    1
   Hellmann-Feynman              :  0.857351E-12  0.141406E-02 -0.886322E+01
   Ionic forces                  :  0.000000E+00  0.000000E+00  0.000000E+00
   Multipole                     : -0.109448E-12  0.384817E-04 -0.328089E+00
   Pulay                         :  0.120018E-12 -0.624490E-03  0.921939E+01
   ----------------------------------------------------------------
   Total forces(   1)            :  0.867921E-12  0.828053E-03  0.280869E-01
  atom #    2
   Hellmann-Feynman              :  0.188776E+00 -0.109347E+00  0.125707E+00
   Ionic forces                  :  0.000000E+00  0.000000E+00  0.000000E+00
   Multipole                     :  0.495918E-01 -0.286243E-01  0.629530E-01
   Pulay                         : -0.256060E+00  0.147859E+00 -0.197311E+00
   ----------------------------------------------------------------
   Total forces(   2)            : -0.176914E-01  0.988706E-02 -0.865017E-02
  atom #    3
   Hellmann-Feynman              : -0.188776E+00 -0.109347E+00  0.125707E+00
   Ionic forces                  :  0.000000E+00  0.000000E+00  0.000000E+00
   Multipole                     : -0.495918E-01 -0.286243E-01  0.629530E-01
   Pulay                         :  0.256060E+00  0.147859E+00 -0.197311E+00
   ----------------------------------------------------------------
   Total forces(   3)            :  0.176914E-01  0.988706E-02 -0.865017E-02
  atom #    4
   Hellmann-Feynman              :  0.316982E-13  0.217972E+00  0.125577E+00
   Ionic forces                  :  0.000000E+00  0.000000E+00  0.000000E+00
   Multipole                     :  0.549198E-15  0.572104E-01  0.629036E-01
   Pulay                         : -0.142582E-13 -0.295593E+00 -0.197340E+00
   ----------------------------------------------------------------
   Total forces(   4)            :  0.179892E-13 -0.204104E-01 -0.885896E-02


  Self-consistency convergence accuracy:
  | Change of charge density      :  0.3311E-07
  | Change of sum of eigenvalues  :  0.6752E-05 eV
  | Change of total energy        : -0.1186E-08 eV
  | Change of forces              :  0.4605E+01 eV/A

  Writing Kohn-Sham eigenvalues.

  State    Occupation    Eigenvalue [Ha]    Eigenvalue [eV]
      1       2.00000         -19.024290         -517.67728
      2       2.00000          -1.348368          -36.69095
      3       2.00000          -0.879282          -23.92649
      4       2.00000          -0.879269          -23.92613
      5       2.00000          -0.686334          -18.67610
      6       0.00000          -0.301198           -8.19601
      7       0.00000          -0.207355           -5.64240
      8       0.00000          -0.207348           -5.64223
      9       0.00000           0.016510            0.44926
     10       0.00000           0.052602            1.43137
     11       0.00000           0.052613            1.43166
     12       0.00000           0.240841            6.55363
     13       0.00000           0.467196           12.71306

  Highest occupied state (VBM) at    -18.67609588 eV
  | Occupation number:      2.00000000

  Lowest unoccupied state (CBM) at    -8.19600549 eV
  | Occupation number:      0.00000000

  Overall HOMO-LUMO gap:     10.48009039 eV.

  Self-consistency cycle converged.

  End self-consistency iteration #    13       :  max(cpu_time)    wall_clock(cpu1)
  | Time for this iteration                    :        0.125 s           0.124 s
  | Charge density & force component update    :        0.044 s           0.043 s
  | Density mixing                             :        0.001 s           0.001 s
  | Hartree multipole update                   :        0.001 s           0.002 s
  | Hartree multipole summation                :        0.050 s           0.050 s
  | Integration                                :        0.028 s           0.028 s
  | Solution of K.-S. eqns.                    :        0.000 s           0.000 s
  | Total energy evaluation                    :        0.000 s           0.000 s

  Partial memory accounting:
  | Current value for overall tracked memory usage on task 0  :           0.020 MB
  | Peak value for overall tracked memory usage on task 0     :           0.116 MB after allocating h_times_wave
  | Largest tracked array allocation on task 0 so far         :           0.058 MB  when allocating gradient_basis_wave
  Note:  These values currently only include a subset of arrays which are explicitly tracked.
  The "true" memory usage will be greater.
------------------------------------------------------------
  ------------------------------------------------------------
   Computing monopole / dipole moments for complete molecule:
  | Total electronic charge [e]         :          0.100000000077429E+02
  | Total ionic charge [e]              :          0.110000000000000E+02
  | Total charge [e]                    :          0.999999992257081E+00
 * Warning: The system has a total charge of      0.99999999 .
 * The dipole moment depends on the choice of the origin.
  | Total dipole moment [eAng]          :         -0.472028815726881E-14        -0.212995423086368E-04         0.588292521375530E+00
  | Absolute dipole moment              :          0.588292521761112E+00 eAng              /                   0.282524902634894E+01 Debye  .
  Removing unitary transformations (pure translations, rotations) from forces on atoms.
  Atomic forces before filtering:
  | Net force on center of mass :   0.858173E-12  0.191806E-03  0.192760E-02 eV/A
  | Net torque on center of mass:   0.293812E-04 -0.192939E-12 -0.342397E-13 eV
  Atomic forces after filtering:
  | Net force on center of mass :  -0.299779E-17  0.000000E+00  0.139380E-17 eV/A
  | Net torque on center of mass:   0.110635E-17  0.110340E-18 -0.639837E-18 eV

  Energy and forces in a compact form:
  | Total energy uncorrected      :         -0.207279299011836E+04 eV
  | Total energy corrected        :         -0.207279299011836E+04 eV  <-- do not rely on this value for anything but (periodic) metals
  | Electronic free energy        :         -0.207279299011836E+04 eV
  Total atomic forces (unitary forces cleaned) [eV/Ang]:
  |   1          0.624277561286026E-12          0.775669600024930E-03          0.276050078496508E-01
  |   2         -0.176914275129740E-01          0.984058748895397E-02         -0.912222773277851E-02
  |   3          0.176914275125485E-01          0.984058748893792E-02         -0.912222773256225E-02
  |   4         -0.198836623133523E-12         -0.204568445779168E-01         -0.936055238431001E-02

  ------------------------------------ 
  Start decomposition of the XC Energy 
  ------------------------------------ 
  X and C from original XC functional choice 
  Hartree-Fock Energy :          0.000000000 Ha              0.000000000 eV
  X Energy            :         -8.139492804 Ha           -221.486868333 eV
  C Energy            :         -0.663595545 Ha            -18.057353530 eV
  Total XC Energy     :         -8.803088349 Ha           -239.544221862 eV
  ------------------------------------ 
  LDA X and C from self-consistent density 
  X Energy LDA        :         -8.139492804 Ha           -221.486868333 eV
  C Energy LDA        :         -0.663595545 Ha            -18.057353530 eV
  ------------------------------------ 
  End decomposition of the XC Energy 
  ------------------------------------ 

------------------------------------------------------------

------------------------------------------------------------------------------
  Final output of selected total energy values:

  The following output summarizes some interesting total energy values
  at the end of a run (AFTER all relaxation, molecular dynamics, etc.).

  | Total energy of the DFT / Hartree-Fock s.c.f. calculation      :          -2072.792990118 eV
  | Final zero-broadening corrected energy (caution - metals only) :          -2072.792990118 eV
  | For reference only, the value of 1 Hartree used in FHI-aims is :             27.211384500 eV

  Before relying on these values, please be sure to understand exactly which
  total energy value is referred to by a given number. Different objects may
  all carry the same name 'total energy'. Definitions:

  Total energy of the DFT / Hartree-Fock s.c.f. calculation:
  | Note that this energy does not include ANY quantities calculated after the
  | s.c.f. cycle, in particular not ANY RPA, MP2, etc. many-body perturbation terms.

  Final zero-broadening corrected energy:
  | For metallic systems only, a broadening of the occupation numbers at the Fermi
  | level can be extrapolated back to zero broadening by an electron-gas inspired
  | formula. For all systems that are not real metals, this value can be
  | meaningless and should be avoided.

------------------------------------------------------------------------------
  Methods described in the following list of references were used in this FHI-aims run.
  If you publish the results, please make sure to cite these reference if they apply.
  FHI-aims is an academic code, and for our developers (often, Ph.D. students
  and postdocs), scientific credit in the community is essential.
  Thank you for helping us!

  For any use of FHI-aims, please cite:

    Volker Blum, Ralf Gehrke, Felix Hanke, Paula Havu, Ville Havu,
    Xinguo Ren, Karsten Reuter, and Matthias Scheffler
    'Ab initio molecular simulations with numeric atom-centered orbitals'
    Computer Physics Communications 180, 2175-2196 (2009)
    http://dx.doi.org/10.1016/j.cpc.2009.06.022


  For the real-space grid partitioning and parallelization used in this calculation, please cite:

    Ville Havu, Volker Blum, Paula Havu, and Matthias Scheffler,
    'Efficient O(N) integration for all-electron electronic structure calculation'
    'using numerically tabulated basis functions'
    Journal of Computational Physics 228, 8367-8379 (2009).
    http://dx.doi.org/10.1016/j.jcp.2009.08.008

  Of course, there are many other important community references, e.g., those cited in the
  above references. Our list is limited to references that describe implementations in the
  FHI-aims code. The reason is purely practical (length of this list) - please credit others as well.

------------------------------------------------------------
          Leaving FHI-aims.
          Date     :  20190509, Time     :  114704.903

          Computational steps:
          | Number of self-consistency cycles          :           13
          | Number of SCF (re)initializations          :            1

          Detailed time accounting                     :  max(cpu_time)    wall_clock(cpu1)
          | Total time                                 :        0.992 s           0.992 s
          | Preparation time                           :        0.051 s           0.050 s
          | Boundary condition initalization           :        0.000 s           0.001 s
          | Grid partitioning                          :        0.014 s           0.013 s
          | Preloading free-atom quantities on grid    :        0.001 s           0.001 s
          | Free-atom superposition energy             :        0.013 s           0.012 s
          | Total time for integrations                :        0.418 s           0.416 s
          | Total time for solution of K.-S. equations :        0.003 s           0.002 s
          | Total time for density & force components  :        0.182 s           0.183 s
          | Total time for mixing                      :        0.011 s           0.011 s
          | Total time for Hartree multipole update    :        0.019 s           0.017 s
          | Total time for Hartree multipole sum       :        0.251 s           0.253 s
          | Total time for total energy evaluation     :        0.001 s           0.002 s

 This is a stub MPI_ALLREDUCE call.
 You should not be here. Check your
 setting on the use_mpi variable, or
 link against true MPI-libraries.
