------------------------------------------------------------
          Invoking FHI-aims ...
          Version 171221_1
          Compiled on 2019/05/06 at 14:26:40 on host ffph0xx.

          When using FHI-aims, please cite the following reference:

          Volker Blum, Ralf Gehrke, Felix Hanke, Paula Havu,
          Ville Havu, Xinguo Ren, Karsten Reuter, and Matthias Scheffler,
          'Ab Initio Molecular Simulations with Numeric Atom-Centered Orbitals',
          Computer Physics Communications 180, 2175-2196 (2009)

          For any questions about FHI-aims, please visit the aimsclub website
          with its forums and wiki. Contributions to both the forums and the
          wiki are warmly encouraged - they are for you, and everyone is welcome there.

------------------------------------------------------------



  Date     :  20190508, Time     :  151845.826
  Time zero on CPU 1             :   0.100200000000000E-02  s.
  Internal wall clock time zero  :           326560725.826  s.

  FHI-aims created a unique identifier for this run for later identification
  aims_uuid : 762312CC-EB44-4FF4-A5A0-178BB256B27B


  Performing system and environment tests:
  *** Environment variable OMP_NUM_THREADS is not set
  *** For performance reasons you might want to set it to 1
  | Stacksize not measured: no C compiler

  Obtaining array dimensions for all initial allocations:
  
  -----------------------------------------------------------------------
  Parsing control.in (first pass over file, find array dimensions only).
  The contents of control.in will be repeated verbatim below
  unless switched off by setting 'verbatim_writeout .false.' .
  in the first line of control.in .
  -----------------------------------------------------------------------
  
  #--- Specification of method ---
  xc pbe
  charge 0.0
  
  
  #---
  
  #--- iteration limit ---
  sc_iter_limit 100
  
  # other possible thresholds
  # sc_accuracy_eev ... for sum of Kohn-Sham eigen values
  # sc_accuracy_etot .. total energy
  # sc_accuracy_rho ... electron density
  #---
  
  #--- tasks (what to calculate) ---
  output dipole
  #---
  
  
  ################################################################################
  ############# Species Defaults ####################
  ################################################################################
  
  
  ################################################################################
  #
  #  FHI-aims code project
  # Volker Blum, Fritz Haber Institute Berlin, 2009
  #
  #  Suggested "tight" defaults for O atom (to be pasted into control.in file)
  #
  ################################################################################
    species        O
  #     global species definitions
      nucleus             8
      mass                15.9994
  #
      l_hartree           6
  #
      cut_pot             4.0  2.0  1.0
      basis_dep_cutoff    1e-4
  #
      radial_base         36 7.0
      radial_multiplier   2
       angular_grids specified
        division   0.1817   50
        division   0.3417  110
        division   0.4949  194
        division   0.6251  302
        division   0.8014  434
  #      division   0.8507  590
  #      division   0.8762  770
  #      division   0.9023  974
  #      division   1.2339 1202
  #      outer_grid 974
        outer_grid  434
  ################################################################################
  #
  #  Definition of "minimal" basis
  #
  ################################################################################
  #     valence basis states
      valence      2  s   2.
      valence      2  p   4.
  #     ion occupancy
      ion_occ      2  s   1.
      ion_occ      2  p   3.
  ################################################################################
  #
  #  Suggested additional basis functions. For production calculations,
  #  uncomment them one after another (the most important basis functions are
  #  listed first).
  #
  #  Constructed for dimers: 1.0 A, 1.208 A, 1.5 A, 2.0 A, 3.0 A
  #
  ################################################################################
  #  "First tier" - improvements: -699.05 meV to -159.38 meV
       hydro 2 p 1.8
       hydro 3 d 7.6
       hydro 3 s 6.4
  #  "Second tier" - improvements: -49.91 meV to -5.39 meV
       hydro 4 f 11.6
       hydro 3 p 6.2
       hydro 3 d 5.6
       hydro 5 g 17.6
       hydro 1 s 0.75
  #  "Third tier" - improvements: -2.83 meV to -0.50 meV
  #     ionic 2 p auto
  #     hydro 4 f 10.8
  #     hydro 4 d 4.7
  #     hydro 2 s 6.8
  #  "Fourth tier" - improvements: -0.40 meV to -0.12 meV
  #     hydro 3 p 5
  #     hydro 3 s 3.3
  #     hydro 5 g 15.6
  #     hydro 4 f 17.6
  #     hydro 4 d 14
  # Further basis functions - -0.08 meV and below
  #     hydro 3 s 2.1
  #     hydro 4 d 11.6
  #     hydro 3 p 16
  #     hydro 2 s 17.2
  ################################################################################
  #
  # For methods that use the localized form of the "resolution of identity" for
  # the two-electron Coulomb operator (RI_method LVL), particularly Hartree-Fock and
  # hybrid density functional calculations, the highest accuracy can be obtained by
  # uncommenting the line beginning with "for_aux"  below, thus adding an extra g radial
  # function to the construction of the product basis set for the expansion.
  # See Ref. New J. Phys. 17, 093020 (2015) for more information, particularly Figs. 1 and 6.
  #
  ################################################################################
  #
  # for_aux hydro 5 g 6.0
  
  -----------------------------------------------------------------------
  Completed first pass over input file control.in .
  -----------------------------------------------------------------------
  
  
  -----------------------------------------------------------------------
  Parsing geometry.in (first pass over file, find array dimensions only).
  The contents of geometry.in will be repeated verbatim below
  unless switched off by setting 'verbatim_writeout .false.' .
  in the first line of geometry.in .
  -----------------------------------------------------------------------
  
  # HF with variable bonding distance
  atom 0.0 0.0 0.0 O
  atom 0.0 0.0 1.4 O
  
  -----------------------------------------------------------------------
  Completed first pass over input file geometry.in .
  -----------------------------------------------------------------------
  

  Basic array size parameters:
  | Number of species                 :        1
  | Number of atoms                   :        2
  | Max. basis fn. angular momentum   :        4
  | Max. atomic/ionic basis occupied n:        2
  | Max. number of basis fn. types    :        2
  | Max. radial fns per species/type  :        8
  | Max. logarithmic grid size        :     1301
  | Max. radial integration grid size :       73
  | Max. angular integration grid size:      434
  | Max. angular grid division number :        8
  | Radial grid for Hartree potential :     1301
  | Number of spin channels           :        1

------------------------------------------------------------
          Reading file control.in.
------------------------------------------------------------
  XC: Using PBE gradient-corrected functionals.
  Charge =   0.000000E+00: Neutral system requested explicitly.
  Maximum number of s.-c. iterations  :   100
  Dipole moment will be written out.

  Reading configuration options for species O                   .
  | Found nuclear charge :   8.0000
  | Found atomic mass :    15.999400000000000      amu
  | Found l_max for Hartree potential  :   6
  | Found cutoff potl. onset [A], width [A], scale factor :    4.00000    2.00000    1.00000
  | Threshold for basis-dependent cutoff potential is   0.100000E-03
  | Found data for basic radial integration grid :    36 points, outermost radius =    7.000 A
  | Found multiplier for basic radial grid :   2
  | Found angular grid specification: user-specified.
  | Specified grid contains     6 separate shells.
  | Check grid settings after all constraints further below.
  | Found free-atom valence shell :  2 s   2.000
  | Found free-atom valence shell :  2 p   4.000
  | No ionic wave fns used. Skipping ion_occ.
  | No ionic wave fns used. Skipping ion_occ.
  | Found hydrogenic basis function :  2 p   1.800
  | Found hydrogenic basis function :  3 d   7.600
  | Found hydrogenic basis function :  3 s   6.400
  | Found hydrogenic basis function :  4 f  11.600
  | Found hydrogenic basis function :  3 p   6.200
  | Found hydrogenic basis function :  3 d   5.600
  | Found hydrogenic basis function :  5 g  17.600
  | Found hydrogenic basis function :  1 s   0.750
  Species O                   : Missing cutoff potential type.
  Defaulting to exp(1/x)/(1-x)^2 type cutoff potential.
  Species O : No 'logarithmic' tag. Using default grid for free atom:
  | Default logarithmic grid data [bohr] : 0.1000E-03 0.1000E+03 0.1012E+01
  Species O : On-site basis accuracy parameter (for Gram-Schmidt orthonormalisation) not specified.
  Using default value basis_acc =  0.1000000E-03.
  Species O                   : Using default innermost maximum threshold i_radial=  2 for radial functions.
  Species O                   : Default cutoff onset for free atom density etc. : 0.40000000E+01 AA.
  Species O                   : Basic radial grid will be enhanced according to radial_multiplier =   2, to contain    73 grid points.

  Finished reading input file 'control.in'. Consistency checks are next.

  MPI_IN_PLACE appears to work with this MPI implementation.
  | Keeping use_mpi_in_place .true. (see manual).
  Target number of points in a grid batch is not set. Defaulting to  100
  Method for grid partitioning is not set. Defaulting to 'maxmin' partitioning.
  Batch size limit is not set. Defaulting to    200
  By default, will store active basis functions for each batch.
  If in need of memory, prune_basis_once .false. can be used to disable this option.
  communication_type for Hartree potential was not specified.
  Defaulting to calc_hartree .
 * Attention: 
 * You may want to set distributed_spline_storage to .true. in order to save memory.
 * This doesn't harm performance and is perfectly ok unless:
 * - you get error messages in postprocessing (about missing atoms in get_rho_multipole_spl)
 * - you need full spline storage in hirshfeld_analysis
  Defaulting to Pulay charge density mixer.
  Pulay mixer: Number of relevant iterations not set.
  Defaulting to    8 iterations.
  Pulay mixer: Number of initial linear mixing iterations not set.
  Defaulting to    0 iterations.
  Work space size for distributed Hartree potential not set.
  Defaulting to   0.200000E+03 MB.
  Mixing parameter for charge density mixing has not been set.
  Using default: charge_mix_param =     0.0500.
  The mixing parameter will be adjusted in iteration number     2 of the first full s.c.f. cycle only.
  Algorithm-dependent basis array size parameters:
  | n_max_pulay                         :        8
 * Notice: The s.c.f. convergence criterion sc_accuracy_rho was not provided.
 * We used to stop in this case, and ask the user to provide reasonable
 * scf convergence criteria. However, this led some users to employ criteria
 * that led to extremely long run times, e.g., for simple relaxation.
 * We now preset a default value for sc_accuracy_rho if it is not set.
 * You may still wish to check if this setting is too tight or too loose for your needs.
 * Based on n_atoms, FHI-aims chose sc_accuracy_rho =  0.100000E-05 .
  Presetting      1001 iterations before the initial mixing cycle
  is restarted anyway using the sc_init_iter criterion / keyword.
  Presetting a factor      1.000 between actual scf density residual
  and density convergence criterion sc_accuracy_rho below which sc_init_iter
  takes no effect.
 * No s.c.f. convergence criteria (sc_accuracy_*) were provided in control.in.
 * The run will proceed with a reasonable default guess, but please check whether.
 * the s.c.f. cycles seem to take too much or too little time.
  Calculation of forces was not defined in control.in. No forces will be calculated.
  Geometry relaxation not requested: no relaxation will be performed.
  No accuracy limit for integral partition fn. given. Defaulting to  0.1000E-14.
  No threshold value for u(r) in integrations given. Defaulting to  0.1000E-05.
  No occupation type (smearing scheme) given. Defaulting to Gaussian broadening, width =  0.1000E-01 eV.
  The width will be adjusted in iteration number     2 of the first full s.c.f. cycle only.
  S.C.F. convergence parameters will be adjusted in iteration number     2 of the first full s.c.f. cycle only.
  No accuracy for occupation numbers given. Defaulting to  0.1000E-12.
  No threshold value for occupation numbers given. Defaulting to  0.0000E+00.
  No accuracy for fermi level given. Defaulting to  0.1000E-19.
  Maximum # of iterations to find E_F not set. Defaulting to  200.
  Preferred method for the eigenvalue solver ('KS_method') not specified in 'control.in'.
  Defaulting to serial version, 'lapack_fast'.
  Will not use alltoall communication since running on < 1024 CPUs.
  Threshold for basis singularities not set.
  Default threshold for basis singularities:  0.1000E-04
  partition_type (choice of integration weights) for integrals was not specified.
  | Using a version of the partition function of Stratmann and coworkers ('stratmann_smoother').
  | At each grid point, the set of atoms used to build the partition table is smoothly restricted to
  | only those atoms whose free-atom density would be non-zero at that grid point.
  Partitioning for Hartree potential was not defined. Using partition_type for integrals.
  | Adjusted default value of keyword multip_moments_threshold to:       0.10000000E-11
  | This value may affect high angular momentum components of the Hartree potential in periodic systems.
  Spin handling was not defined in control.in. Defaulting to unpolarized case.
  No q(lm)/r^(l+1) cutoff set for long-range Hartree potential.
  | Using default value of  0.100000E-09 .
  | Verify using the multipole_threshold keyword.
  Defaulting to new monopole extrapolation.
  Density update method: automatic selection selected.
------------------------------------------------------------


------------------------------------------------------------
          Reading geometry description geometry.in.
------------------------------------------------------------
 * Warning! You did not set the 'relativistic' flag in input file 'control.in'.
 * Since you are not attempting to treat any elements beyond Ca(Z=20), FHI-aims
 * will default to 'relativistic none'.
 * You must ensure that this is really what you want!!
 * For example, DO NOT compute total-energy differences between results from
 * different settings of the 'relativistic' flag.
  Input structure read successfully.
  The structure contains        2 atoms,  and a total of         16.000 electrons.

  Input geometry:
  | No unit cell requested.
  | Atomic structure:
  |       Atom                x [A]            y [A]            z [A]
  |    1: Species O             0.00000000        0.00000000        0.00000000
  |    2: Species O             0.00000000        0.00000000        1.40000000
  |

  | The smallest distance between any two atoms is         1.40000000 AA.
  |
  | The first atom of this pair is atom number                      1 .
  | The second atom of this pair is atom number                     2 .

  Number of empty states per atom not set in control.in - providing a guess from actual geometry.
  | Total number of empty states used during s.c.f. cycle:        6
  If you use a very high smearing, use empty_states (per atom!) in control.in to increase this value.

  Structure-dependent array size parameters: 
  | Maximum number of distinct radial functions  :       11
  | Maximum number of basis functions            :       78
  | Number of Kohn-Sham states (occupied + empty):       14
------------------------------------------------------------

------------------------------------------------------------
          Preparing all fixed parts of the calculation.
------------------------------------------------------------
  Determining machine precision:
     2.2250738585072014E-308
  Setting up grids for atomic and cluster calculations.

  Creating wave function, potential, and density for free atoms.

  Species: O

  List of occupied orbitals and eigenvalues:
    n    l              occ      energy [Ha]    energy [eV]
    1    0           2.0000       -18.898576      -514.2564
    2    0           2.0000        -0.878795       -23.9132
    2    1           4.0000        -0.332075        -9.0362

  Creating fixed part of basis set: Ionic, confined, hydrogenic.

  O                    hydrogenic:

  List of hydrogenic basis orbitals: 
    n    l      effective z      eigenvalue [eV]  inner max. [A]     outer max. [A]     outer radius [A]   
    2    1         1.800000       -11.0118           1.178562           1.178562           5.432602
    3    2         7.600000       -87.3182           0.624125           0.624125           3.541477
    3    0         6.400000       -61.9209           0.061167           1.081902           4.306578
    4    3        11.600000      -114.4238           0.731631           0.731631           3.585037
    3    1         6.200000       -58.1113           0.255680           1.030270           4.306578
    3    2         5.600000       -47.4081           0.847233           0.847233           4.413171
    5    4        17.600000      -168.5799           0.749740           0.749740           3.372465
    1    0         0.750000        -7.6499           0.705284           0.705284           5.366593


  Adding cutoff potential to free-atom effective potential.
  Creating atomic-like basis functions for current effective potential.

  Species O                   :

  List of atomic basis orbitals and eigenvalues:
    n    l      energy [Ha]    energy [eV]    outer radius [A]
    1    0       -18.898576      -514.2564       1.415765
    2    0        -0.878795       -23.9132       5.048385
    2    1        -0.332075        -9.0362       5.301386

  Assembling full basis from fixed parts.
  | Species O :   atomic orbital   1 s accepted.
  | Species O :    hydro orbital   3 s accepted.
  | Species O :   atomic orbital   2 s accepted.
  | Species O :    hydro orbital   1 s accepted.
  | Species O :    hydro orbital   3 p accepted.
  | Species O :   atomic orbital   2 p accepted.
  | Species O :    hydro orbital   2 p accepted.
  | Species O :    hydro orbital   3 d accepted.
  | Species O :    hydro orbital   3 d accepted.
  | Species O :    hydro orbital   4 f accepted.
  | Species O :    hydro orbital   5 g accepted.

  Basis size parameters after reduction:
  | Total number of radial functions:       11
  | Total number of basis functions :       78

  Per-task memory consumption for arrays in subroutine allocate_ext:
  |           2.750028MB.
  Testing on-site integration grid accuracy.
  |  Species  Function  <phi|h_atom|phi> (log., in eV)  <phi|h_atom|phi> (rad., in eV)
           1        1               -514.2564144315               -514.2564099626
           1        2                 15.1726678541                 15.1726530877
           1        3                -21.5447785304                -21.5447874973
           1        4                 14.4944558459                 14.4944698284
           1        5                 20.8882174564                 20.8882178906
           1        6                 -2.4850315909                 -2.4850322289
           1        7                 13.8600193195                 13.8599826966
           1        8                 45.8243383616                 45.8243383675
           1        9                 52.1840606465                 52.1840622440
           1       10                 85.4074185510                 85.4074185819
           1       11                142.0983717302                142.0983717339

  Preparing densities etc. for the partition functions (integrals / Hartree potential).

  Preparations completed.
  max(cpu_time)          :      0.069 s.
  Wall clock time (cpu1) :      0.069 s.
------------------------------------------------------------

------------------------------------------------------------
          Begin self-consistency loop: Initialization.

          Date     :  20190508, Time     :  151845.896
------------------------------------------------------------

  Initializing index lists of integration centers etc. from given atomic structure:
  | Number of centers in hartree potential         :         2
  | Number of centers in hartree multipole         :         2
  | Number of centers in electron density summation:         2
  | Number of centers in basis integrals           :         2
  | Number of centers in integrals                 :         2
  | Number of centers in hamiltonian               :         2
  Partitioning the integration grid into batches with maxmin method.
  | Maximal weight for a single point:     1.000
  | Minimal weight for a single point:     0.000
  | Number of batches:      491
  | Maximal batch size:     161
  | Minimal batch size:      76
  | Average batch size:      82.029
  | Standard deviation of batch sizes:      15.997
  Initializing partition tables, free-atom densities, potentials, etc. across the integration grid (initialize_grid_storage).
  | initialize_grid_storage: Actual outermost partition radius vs. multipole_radius_free
  | (-- VB: in principle, multipole_radius_free should be larger, hence this output)
  | Species        1: Confinement radius =              6.000000000000000 AA, multipole_radius_free =              6.064445521808699 AA.
  | Species        1: outer_partition_radius set to              6.064445521808699 AA .
  | Original list of interatomic distances with           2 x          2 entries is created.
  | Net number of integration points:    40276
  | of which are non-zero points    :    38312
  Renormalizing the initial density to the exact electron count on the 3D integration grid.
  | Initial density: Formal number of electrons (from input files) :      16.0000000000
  | Integrated number of electrons on 3D grid     :      16.0000000332
  | Charge integration error                      :       0.0000000332
  | Normalization factor for density and gradient :       0.9999999979
  Obtaining max. number of non-zero basis functions in each batch (get_n_compute_maxes).
  | Maximal number of non-zero basis functions:       78 in task     0
  Selecting the method for density update.
  Loop over occupied states selected for charge density update.
  Allocating        0.009 MB for KS_eigenvector
  Integrating Hamiltonian matrix: batch-based integration.
  Time summed over all CPUs for integration: real work        0.158 s, elapsed        0.158 s
  Integrating overlap matrix.
  Time summed over all CPUs for integration: real work        0.070 s, elapsed        0.070 s

  Updating Kohn-Sham eigenvalues, eigenvectors, occupation numbers, and Fermi level.
  Solving generalized eigenproblem
  Updating Kohn-Sham eigenvalues and eigenfunctions.
  Transforming overlap matrix and checking for singularities.
  Overlap matrix is nonsingular:
  | Lowest eigenvalue:  0.693439E-03
  Solving real generalised eigenvalue problem by standard LAPACK (fast)

  Obtaining occupation numbers and chemical potential using ELSI.
  | Chemical potential (Fermi level):    -7.38667626eV
  Writing Kohn-Sham eigenvalues.

  State    Occupation    Eigenvalue [Ha]    Eigenvalue [eV]
      1       2.00000         -18.914113         -514.67920
      2       2.00000         -18.914105         -514.67900
      3       2.00000          -1.059357          -28.82657
      4       2.00000          -0.792665          -21.56951
      5       2.00000          -0.476633          -12.96984
      6       2.00000          -0.424388          -11.54819
      7       2.00000          -0.424388          -11.54819
      8       1.00000          -0.271455           -7.38668
      9       1.00000          -0.271455           -7.38668
     10       0.00000          -0.045461           -1.23706
     11       0.00000           0.093082            2.53289
     12       0.00000           0.134083            3.64857
     13       0.00000           0.138483            3.76832
     14       0.00000           0.138483            3.76832

  Highest occupied state (VBM) at     -7.38667626 eV
  | Occupation number:      1.00000000

  Lowest unoccupied state (CBM) at    -7.38667626 eV
  | Occupation number:      1.00000000

  Overall HOMO-LUMO gap:      0.00000000 eV.
  This system has fractional occupation numbers. Thus, it is a degenerate system
  within the approximate finite broadening function (occupation_type)
  applied to determine the occupation numbers.
  This may not be harmful. However, for some systems (free atoms), a different, non-degenerate
  ground state might exist by using a smaller broadening (see keyword occupation_type).
  Calculating total energy contributions from superposition of free atom densities.

  Total energy components:
  | Sum of eigenvalues            :         -82.55420999 Ha       -2246.41435019 eV
  | XC energy correction          :         -16.67142877 Ha        -453.65265832 eV
  | XC potential correction       :          21.42404784 Ha         582.97800319 eV
  | Free-atom electrostatic energy:         -72.39287028 Ha       -1969.91022833 eV
  | Hartree energy correction     :          -0.00000000 Ha          -0.00000000 eV
  | Entropy correction            :          -0.00020734 Ha          -0.00564190 eV
  | ---------------------------
  | Total energy                  :        -150.19446121 Ha       -4086.99923365 eV
  | Total energy, T -> 0          :        -150.19466854 Ha       -4087.00487554 eV  <-- do not rely on this value for anything but (periodic) metals
  | Electronic free energy        :        -150.19487588 Ha       -4087.01051744 eV

  Derived energy quantities:
  | Kinetic energy                :         149.49466939 Ha        4067.95692937 eV
  | Electrostatic energy          :        -283.01770183 Ha       -7701.30350470 eV
  | Energy correction for multipole
  | error in Hartree potential    :           0.00000000 Ha           0.00000000 eV
  | Sum of eigenvalues per atom                           :       -1123.20717510 eV
  | Total energy (T->0) per atom                          :       -2043.50243777 eV  <-- do not rely on this value for anything but (periodic) metals
  | Electronic free energy per atom                       :       -2043.50525872 eV
  Initialize hartree_potential_storage
  Max. number of atoms included in rho_multipole:            2

  End scf initialization - timings             :  max(cpu_time)    wall_clock(cpu1)
  | Time for scf. initialization               :        0.312 s           0.312 s
  | Boundary condition initialization          :        0.000 s           0.000 s
  | Integration                                :        0.228 s           0.228 s
  | Solution of K.-S. eqns.                    :        0.004 s           0.003 s
  | Grid partitioning                          :        0.032 s           0.032 s
  | Preloading free-atom quantities on grid    :        0.003 s           0.002 s
  | Free-atom superposition energy             :        0.028 s           0.028 s
  | Total energy evaluation                    :        0.000 s           0.000 s

  Partial memory accounting:
  | Current value for overall tracked memory usage on task 0  :           0.107 MB
  | Peak value for overall tracked memory usage on task 0     :           0.410 MB after allocating wave
  | Largest tracked array allocation on task 0 so far         :           0.100 MB  when allocating H_times_psi
  Note:  These values currently only include a subset of arrays which are explicitly tracked.
  The "true" memory usage will be greater.
------------------------------------------------------------

------------------------------------------------------------
          Begin self-consistency iteration #    1

  Date     :  20190508, Time     :  151846.208
------------------------------------------------------------
  Evaluating new KS density.
  Integration grid: deviation in total charge (<rho> - N_e) =  -7.460699E-14
  Pulay mixing of updated and previous charge densities.

  Evaluating partitioned Hartree potential by multipole expansion.
  | Analytical far-field extrapolation by fixed multipoles:
  | Hartree multipole sum: apparent total charge =   0.197507E-07
  Summing up the Hartree potential.
  Time summed over all CPUs for potential: real work        0.027 s, elapsed        0.027 s
  | RMS charge density error from multipole expansion :   0.722904E-04

  Integrating Hamiltonian matrix: batch-based integration.
  Time summed over all CPUs for integration: real work        0.156 s, elapsed        0.156 s

  Updating Kohn-Sham eigenvalues, eigenvectors, occupation numbers, and Fermi level.
  Solving generalized eigenproblem
  Updating Kohn-Sham eigenvalues and eigenfunctions.
  Solving real generalised eigenvalue problem by standard LAPACK (fast)

  Obtaining occupation numbers and chemical potential using ELSI.
  | Chemical potential (Fermi level):    -7.37395001eV
  Writing Kohn-Sham eigenvalues.

  State    Occupation    Eigenvalue [Ha]    Eigenvalue [eV]
      1       2.00000         -18.913968         -514.67527
      2       2.00000         -18.913961         -514.67506
      3       2.00000          -1.060409          -28.85519
      4       2.00000          -0.791752          -21.54468
      5       2.00000          -0.476170          -12.95724
      6       2.00000          -0.424319          -11.54630
      7       2.00000          -0.424319          -11.54630
      8       1.00000          -0.270988           -7.37395
      9       1.00000          -0.270988           -7.37395
     10       0.00000          -0.045964           -1.25074
     11       0.00000           0.093347            2.54010
     12       0.00000           0.134430            3.65802
     13       0.00000           0.138612            3.77183
     14       0.00000           0.138612            3.77183

  Highest occupied state (VBM) at     -7.37395001 eV
  | Occupation number:      1.00000000

  Lowest unoccupied state (CBM) at    -7.37395001 eV
  | Occupation number:      1.00000000

  Overall HOMO-LUMO gap:      0.00000000 eV.
  This system has fractional occupation numbers. Thus, it is a degenerate system
  within the approximate finite broadening function (occupation_type)
  applied to determine the occupation numbers.
  This may not be harmful. However, for some systems (free atoms), a different, non-degenerate
  ground state might exist by using a smaller broadening (see keyword occupation_type).

  Total energy components:
  | Sum of eigenvalues            :         -82.55176994 Ha       -2246.34795308 eV
  | XC energy correction          :         -16.67284386 Ha        -453.69116495 eV
  | XC potential correction       :          21.42589608 Ha         583.02829641 eV
  | Free-atom electrostatic energy:         -72.39287028 Ha       -1969.91022833 eV
  | Hartree energy correction     :          -0.00196981 Ha          -0.05360125 eV
  | Entropy correction            :          -0.00020734 Ha          -0.00564190 eV
  | ---------------------------
  | Total energy                  :        -150.19355782 Ha       -4086.97465120 eV
  | Total energy, T -> 0          :        -150.19376515 Ha       -4086.98029309 eV  <-- do not rely on this value for anything but (periodic) metals
  | Electronic free energy        :        -150.19397249 Ha       -4086.98593499 eV

  Derived energy quantities:
  | Kinetic energy                :         149.49410097 Ha        4067.94146184 eV
  | Electrostatic energy          :        -283.01481492 Ha       -7701.22494809 eV
  | Energy correction for multipole
  | error in Hartree potential    :          -0.00002432 Ha          -0.00066191 eV
  | Sum of eigenvalues per atom                           :       -1123.17397654 eV
  | Total energy (T->0) per atom                          :       -2043.49014655 eV  <-- do not rely on this value for anything but (periodic) metals
  | Electronic free energy per atom                       :       -2043.49296749 eV

  Self-consistency convergence accuracy:
  | Change of charge density      :  0.1702E+00
  | Change of sum of eigenvalues  :  0.6640E-01 eV
  | Change of total energy        :  0.2458E-01 eV

  End self-consistency iteration #     1       :  max(cpu_time)    wall_clock(cpu1)
  | Time for this iteration                    :        0.302 s           0.302 s
  | Charge density update                      :        0.114 s           0.114 s
  | Density mixing                             :        0.001 s           0.001 s
  | Hartree multipole update                   :        0.002 s           0.003 s
  | Hartree multipole summation                :        0.027 s           0.027 s
  | Integration                                :        0.156 s           0.156 s
  | Solution of K.-S. eqns.                    :        0.001 s           0.001 s
  | Total energy evaluation                    :        0.000 s           0.000 s

  Partial memory accounting:
  | Current value for overall tracked memory usage on task 0  :           0.107 MB
  | Peak value for overall tracked memory usage on task 0     :           0.509 MB after allocating gradient_basis_wave
  | Largest tracked array allocation on task 0 so far         :           0.301 MB  when allocating gradient_basis_wave
  Note:  These values currently only include a subset of arrays which are explicitly tracked.
  The "true" memory usage will be greater.
------------------------------------------------------------

------------------------------------------------------------
          Begin self-consistency iteration #    2

  Date     :  20190508, Time     :  151846.510
------------------------------------------------------------
  Evaluating new KS density.
  Integration grid: deviation in total charge (<rho> - N_e) =   5.684342E-14
  Pulay mixing of updated and previous charge densities.

  Evaluating partitioned Hartree potential by multipole expansion.
  | Analytical far-field extrapolation by fixed multipoles:
  | Hartree multipole sum: apparent total charge =  -0.987947E-07
  Summing up the Hartree potential.
  Time summed over all CPUs for potential: real work        0.028 s, elapsed        0.028 s
  | RMS charge density error from multipole expansion :   0.116814E-02

  Integrating Hamiltonian matrix: batch-based integration.
  Time summed over all CPUs for integration: real work        0.158 s, elapsed        0.158 s

  Updating Kohn-Sham eigenvalues, eigenvectors, occupation numbers, and Fermi level.
  Solving generalized eigenproblem
  Updating Kohn-Sham eigenvalues and eigenfunctions.
  Solving real generalised eigenvalue problem by standard LAPACK (fast)

  Obtaining occupation numbers and chemical potential using ELSI.
  | Chemical potential (Fermi level):    -7.17436241eV
  Highest occupied state (VBM) at     -7.17436241 eV
  | Occupation number:      1.00000000

  Lowest unoccupied state (CBM) at    -7.17436241 eV
  | Occupation number:      1.00000000

  Overall HOMO-LUMO gap:      0.00000000 eV.
  This system has fractional occupation numbers. Thus, it is a degenerate system
  within the approximate finite broadening function (occupation_type)
  applied to determine the occupation numbers.
  This may not be harmful. However, for some systems (free atoms), a different, non-degenerate
  ground state might exist by using a smaller broadening (see keyword occupation_type).

  Checking to see if s.c.f. parameters should be adjusted.
  Adjusted the Pulay mixing parameter (charge_mix_param) for an expected low-gap system. New value:   0.020000 .
  Adjusted the occupation broadening width for an expected low-gap system. New value:      0.05000000 eV.

  Total energy components:
  | Sum of eigenvalues            :         -82.51101605 Ha       -2245.23898314 eV
  | XC energy correction          :         -16.69850687 Ha        -454.38949091 eV
  | XC potential correction       :          21.45922002 Ha         583.93508695 eV
  | Free-atom electrostatic energy:         -72.39287028 Ha       -1969.91022833 eV
  | Hartree energy correction     :          -0.04556813 Ha          -1.23997197 eV
  | Entropy correction            :          -0.00103668 Ha          -0.02820948 eV
  | ---------------------------
  | Total energy                  :        -150.18874131 Ha       -4086.84358741 eV
  | Total energy, T -> 0          :        -150.18977799 Ha       -4086.87179689 eV  <-- do not rely on this value for anything but (periodic) metals
  | Electronic free energy        :        -150.19081467 Ha       -4086.90000637 eV

  Derived energy quantities:
  | Kinetic energy                :         149.47000547 Ha        4067.28579006 eV
  | Electrostatic energy          :        -282.96023992 Ha       -7699.73988656 eV
  | Energy correction for multipole
  | error in Hartree potential    :          -0.00039827 Ha          -0.01083747 eV
  | Sum of eigenvalues per atom                           :       -1122.61949157 eV
  | Total energy (T->0) per atom                          :       -2043.43589845 eV  <-- do not rely on this value for anything but (periodic) metals
  | Electronic free energy per atom                       :       -2043.45000319 eV

  Self-consistency convergence accuracy:
  | Change of charge density      :  0.1600E+00
  | Change of sum of eigenvalues  :  0.1109E+01 eV
  | Change of total energy        :  0.1311E+00 eV

  End self-consistency iteration #     2       :  max(cpu_time)    wall_clock(cpu1)
  | Time for this iteration                    :        0.311 s           0.312 s
  | Charge density update                      :        0.119 s           0.119 s
  | Density mixing                             :        0.002 s           0.002 s
  | Hartree multipole update                   :        0.002 s           0.002 s
  | Hartree multipole summation                :        0.029 s           0.029 s
  | Integration                                :        0.158 s           0.158 s
  | Solution of K.-S. eqns.                    :        0.001 s           0.002 s
  | Total energy evaluation                    :        0.000 s           0.000 s

  Partial memory accounting:
  | Current value for overall tracked memory usage on task 0  :           0.108 MB
  | Peak value for overall tracked memory usage on task 0     :           0.509 MB after allocating gradient_basis_wave
  | Largest tracked array allocation on task 0 so far         :           0.301 MB  when allocating gradient_basis_wave
  Note:  These values currently only include a subset of arrays which are explicitly tracked.
  The "true" memory usage will be greater.
------------------------------------------------------------

------------------------------------------------------------
          Begin self-consistency iteration #    3

  Date     :  20190508, Time     :  151846.822
------------------------------------------------------------
  Evaluating new KS density.
  Integration grid: deviation in total charge (<rho> - N_e) =   5.684342E-14
  Pulay mixing of updated and previous charge densities.

  Evaluating partitioned Hartree potential by multipole expansion.
  | Analytical far-field extrapolation by fixed multipoles:
  | Hartree multipole sum: apparent total charge =  -0.105936E-06
  Summing up the Hartree potential.
  Time summed over all CPUs for potential: real work        0.029 s, elapsed        0.029 s
  | RMS charge density error from multipole expansion :   0.136919E-02

  Integrating Hamiltonian matrix: batch-based integration.
  Time summed over all CPUs for integration: real work        0.184 s, elapsed        0.184 s

  Updating Kohn-Sham eigenvalues, eigenvectors, occupation numbers, and Fermi level.
  Solving generalized eigenproblem
  Updating Kohn-Sham eigenvalues and eigenfunctions.
  Solving real generalised eigenvalue problem by standard LAPACK (fast)

  Obtaining occupation numbers and chemical potential using ELSI.
  | Chemical potential (Fermi level):    -7.07591058eV
  Highest occupied state (VBM) at     -7.07591058 eV
  | Occupation number:      1.00000000

  Lowest unoccupied state (CBM) at    -7.07591058 eV
  | Occupation number:      1.00000000

  Overall HOMO-LUMO gap:      0.00000000 eV.
  This system has fractional occupation numbers. Thus, it is a degenerate system
  within the approximate finite broadening function (occupation_type)
  applied to determine the occupation numbers.
  This may not be harmful. However, for some systems (free atoms), a different, non-degenerate
  ground state might exist by using a smaller broadening (see keyword occupation_type).

  Total energy components:
  | Sum of eigenvalues            :         -82.45370102 Ha       -2243.67936196 eV
  | XC energy correction          :         -16.70015556 Ha        -454.43435415 eV
  | XC potential correction       :          21.46143223 Ha         583.99528446 eV
  | Free-atom electrostatic energy:         -72.39287028 Ha       -1969.91022833 eV
  | Hartree energy correction     :          -0.10304826 Ha          -2.80408570 eV
  | Entropy correction            :          -0.00103668 Ha          -0.02820948 eV
  | ---------------------------
  | Total energy                  :        -150.18834289 Ha       -4086.83274568 eV
  | Total energy, T -> 0          :        -150.18937956 Ha       -4086.86095516 eV  <-- do not rely on this value for anything but (periodic) metals
  | Electronic free energy        :        -150.19041624 Ha       -4086.88916464 eV

  Derived energy quantities:
  | Kinetic energy                :         149.44970455 Ha        4066.73337391 eV
  | Electrostatic energy          :        -282.93789188 Ha       -7699.13176544 eV
  | Energy correction for multipole
  | error in Hartree potential    :          -0.00052834 Ha          -0.01437698 eV
  | Sum of eigenvalues per atom                           :       -1121.83968098 eV
  | Total energy (T->0) per atom                          :       -2043.43047758 eV  <-- do not rely on this value for anything but (periodic) metals
  | Electronic free energy per atom                       :       -2043.44458232 eV

  Self-consistency convergence accuracy:
  | Change of charge density      :  0.3173E-01
  | Change of sum of eigenvalues  :  0.1560E+01 eV
  | Change of total energy        :  0.1084E-01 eV

  End self-consistency iteration #     3       :  max(cpu_time)    wall_clock(cpu1)
  | Time for this iteration                    :        0.345 s           0.345 s
  | Charge density update                      :        0.124 s           0.124 s
  | Density mixing                             :        0.003 s           0.002 s
  | Hartree multipole update                   :        0.003 s           0.003 s
  | Hartree multipole summation                :        0.030 s           0.030 s
  | Integration                                :        0.185 s           0.184 s
  | Solution of K.-S. eqns.                    :        0.001 s           0.001 s
  | Total energy evaluation                    :        0.000 s           0.001 s

  Partial memory accounting:
  | Current value for overall tracked memory usage on task 0  :           0.108 MB
  | Peak value for overall tracked memory usage on task 0     :           0.510 MB after allocating gradient_basis_wave
  | Largest tracked array allocation on task 0 so far         :           0.301 MB  when allocating gradient_basis_wave
  Note:  These values currently only include a subset of arrays which are explicitly tracked.
  The "true" memory usage will be greater.
------------------------------------------------------------

------------------------------------------------------------
          Begin self-consistency iteration #    4

  Date     :  20190508, Time     :  151847.167
------------------------------------------------------------
  Evaluating new KS density.
  Integration grid: deviation in total charge (<rho> - N_e) =   1.421085E-14
  Pulay mixing of updated and previous charge densities.

  Evaluating partitioned Hartree potential by multipole expansion.
  | Analytical far-field extrapolation by fixed multipoles:
  | Hartree multipole sum: apparent total charge =  -0.114451E-06
  Summing up the Hartree potential.
  Time summed over all CPUs for potential: real work        0.031 s, elapsed        0.031 s
  | RMS charge density error from multipole expansion :   0.143778E-02

  Integrating Hamiltonian matrix: batch-based integration.
  Time summed over all CPUs for integration: real work        0.177 s, elapsed        0.177 s

  Updating Kohn-Sham eigenvalues, eigenvectors, occupation numbers, and Fermi level.
  Solving generalized eigenproblem
  Updating Kohn-Sham eigenvalues and eigenfunctions.
  Solving real generalised eigenvalue problem by standard LAPACK (fast)

  Obtaining occupation numbers and chemical potential using ELSI.
  | Chemical potential (Fermi level):    -7.06917529eV
  Highest occupied state (VBM) at     -7.06917529 eV
  | Occupation number:      1.00000000

  Lowest unoccupied state (CBM) at    -7.06917529 eV
  | Occupation number:      1.00000000

  Overall HOMO-LUMO gap:      0.00000000 eV.
  This system has fractional occupation numbers. Thus, it is a degenerate system
  within the approximate finite broadening function (occupation_type)
  applied to determine the occupation numbers.
  This may not be harmful. However, for some systems (free atoms), a different, non-degenerate
  ground state might exist by using a smaller broadening (see keyword occupation_type).

  Total energy components:
  | Sum of eigenvalues            :         -82.45574003 Ha       -2243.73484613 eV
  | XC energy correction          :         -16.70211161 Ha        -454.48758090 eV
  | XC potential correction       :          21.46394786 Ha         584.06373805 eV
  | Free-atom electrostatic energy:         -72.39287028 Ha       -1969.91022833 eV
  | Hartree energy correction     :          -0.10155377 Ha          -2.76341882 eV
  | Entropy correction            :          -0.00103668 Ha          -0.02820948 eV
  | ---------------------------
  | Total energy                  :        -150.18832783 Ha       -4086.83233612 eV
  | Total energy, T -> 0          :        -150.18936451 Ha       -4086.86054560 eV  <-- do not rely on this value for anything but (periodic) metals
  | Electronic free energy        :        -150.19040119 Ha       -4086.88875508 eV

  Derived energy quantities:
  | Kinetic energy                :         149.44721378 Ha        4066.66559656 eV
  | Electrostatic energy          :        -282.93343001 Ha       -7699.01035177 eV
  | Energy correction for multipole
  | error in Hartree potential    :          -0.00054801 Ha          -0.01491218 eV
  | Sum of eigenvalues per atom                           :       -1121.86742306 eV
  | Total energy (T->0) per atom                          :       -2043.43027280 eV  <-- do not rely on this value for anything but (periodic) metals
  | Electronic free energy per atom                       :       -2043.44437754 eV

  Self-consistency convergence accuracy:
  | Change of charge density      :  0.8538E-02
  | Change of sum of eigenvalues  : -0.5548E-01 eV
  | Change of total energy        :  0.4096E-03 eV

  End self-consistency iteration #     4       :  max(cpu_time)    wall_clock(cpu1)
  | Time for this iteration                    :        0.333 s           0.333 s
  | Charge density update                      :        0.118 s           0.117 s
  | Density mixing                             :        0.003 s           0.003 s
  | Hartree multipole update                   :        0.003 s           0.003 s
  | Hartree multipole summation                :        0.031 s           0.031 s
  | Integration                                :        0.177 s           0.177 s
  | Solution of K.-S. eqns.                    :        0.002 s           0.002 s
  | Total energy evaluation                    :        0.000 s           0.000 s

  Partial memory accounting:
  | Current value for overall tracked memory usage on task 0  :           0.109 MB
  | Peak value for overall tracked memory usage on task 0     :           0.510 MB after allocating gradient_basis_wave
  | Largest tracked array allocation on task 0 so far         :           0.301 MB  when allocating gradient_basis_wave
  Note:  These values currently only include a subset of arrays which are explicitly tracked.
  The "true" memory usage will be greater.
------------------------------------------------------------

------------------------------------------------------------
          Begin self-consistency iteration #    5

  Date     :  20190508, Time     :  151847.500
------------------------------------------------------------
  Evaluating new KS density.
  Integration grid: deviation in total charge (<rho> - N_e) =   7.815970E-14
  Pulay mixing of updated and previous charge densities.

  Evaluating partitioned Hartree potential by multipole expansion.
  | Analytical far-field extrapolation by fixed multipoles:
  | Hartree multipole sum: apparent total charge =  -0.111807E-06
  Summing up the Hartree potential.
  Time summed over all CPUs for potential: real work        0.031 s, elapsed        0.031 s
  | RMS charge density error from multipole expansion :   0.142759E-02

  Integrating Hamiltonian matrix: batch-based integration.
  Time summed over all CPUs for integration: real work        0.177 s, elapsed        0.177 s

  Updating Kohn-Sham eigenvalues, eigenvectors, occupation numbers, and Fermi level.
  Solving generalized eigenproblem
  Updating Kohn-Sham eigenvalues and eigenfunctions.
  Solving real generalised eigenvalue problem by standard LAPACK (fast)

  Obtaining occupation numbers and chemical potential using ELSI.
  | Chemical potential (Fermi level):    -7.11038366eV
  Highest occupied state (VBM) at     -7.11038366 eV
  | Occupation number:      1.00000000

  Lowest unoccupied state (CBM) at    -7.11038366 eV
  | Occupation number:      1.00000000

  Overall HOMO-LUMO gap:      0.00000000 eV.
  This system has fractional occupation numbers. Thus, it is a degenerate system
  within the approximate finite broadening function (occupation_type)
  applied to determine the occupation numbers.
  This may not be harmful. However, for some systems (free atoms), a different, non-degenerate
  ground state might exist by using a smaller broadening (see keyword occupation_type).

  Total energy components:
  | Sum of eigenvalues            :         -82.48355891 Ha       -2244.49183634 eV
  | XC energy correction          :         -16.69773995 Ha        -454.36862203 eV
  | XC potential correction       :          21.45823687 Ha         583.90833407 eV
  | Free-atom electrostatic energy:         -72.39287028 Ha       -1969.91022833 eV
  | Hartree energy correction     :          -0.07238132 Ha          -1.96959585 eV
  | Entropy correction            :          -0.00103668 Ha          -0.02820948 eV
  | ---------------------------
  | Total energy                  :        -150.18831359 Ha       -4086.83194848 eV
  | Total energy, T -> 0          :        -150.18935027 Ha       -4086.86015796 eV  <-- do not rely on this value for anything but (periodic) metals
  | Electronic free energy        :        -150.19038695 Ha       -4086.88836744 eV

  Derived energy quantities:
  | Kinetic energy                :         149.42120202 Ha        4065.95778066 eV
  | Electrostatic energy          :        -282.91177566 Ha       -7698.42110712 eV
  | Energy correction for multipole
  | error in Hartree potential    :          -0.00054344 Ha          -0.01478769 eV
  | Sum of eigenvalues per atom                           :       -1122.24591817 eV
  | Total energy (T->0) per atom                          :       -2043.43007898 eV  <-- do not rely on this value for anything but (periodic) metals
  | Electronic free energy per atom                       :       -2043.44418372 eV

  Self-consistency convergence accuracy:
  | Change of charge density      :  0.5588E-02
  | Change of sum of eigenvalues  : -0.7570E+00 eV
  | Change of total energy        :  0.3876E-03 eV

  End self-consistency iteration #     5       :  max(cpu_time)    wall_clock(cpu1)
  | Time for this iteration                    :        0.329 s           0.329 s
  | Charge density update                      :        0.114 s           0.114 s
  | Density mixing                             :        0.004 s           0.003 s
  | Hartree multipole update                   :        0.003 s           0.003 s
  | Hartree multipole summation                :        0.031 s           0.031 s
  | Integration                                :        0.177 s           0.177 s
  | Solution of K.-S. eqns.                    :        0.001 s           0.001 s
  | Total energy evaluation                    :        0.000 s           0.000 s

  Partial memory accounting:
  | Current value for overall tracked memory usage on task 0  :           0.109 MB
  | Peak value for overall tracked memory usage on task 0     :           0.511 MB after allocating gradient_basis_wave
  | Largest tracked array allocation on task 0 so far         :           0.301 MB  when allocating gradient_basis_wave
  Note:  These values currently only include a subset of arrays which are explicitly tracked.
  The "true" memory usage will be greater.
------------------------------------------------------------

------------------------------------------------------------
          Begin self-consistency iteration #    6

  Date     :  20190508, Time     :  151847.830
------------------------------------------------------------
  Evaluating new KS density.
  Integration grid: deviation in total charge (<rho> - N_e) =  -9.059420E-14
  Pulay mixing of updated and previous charge densities.

  Evaluating partitioned Hartree potential by multipole expansion.
  | Analytical far-field extrapolation by fixed multipoles:
  | Hartree multipole sum: apparent total charge =  -0.112451E-06
  Summing up the Hartree potential.
  Time summed over all CPUs for potential: real work        0.027 s, elapsed        0.027 s
  | RMS charge density error from multipole expansion :   0.143371E-02

  Integrating Hamiltonian matrix: batch-based integration.
  Time summed over all CPUs for integration: real work        0.153 s, elapsed        0.153 s

  Updating Kohn-Sham eigenvalues, eigenvectors, occupation numbers, and Fermi level.
  Solving generalized eigenproblem
  Updating Kohn-Sham eigenvalues and eigenfunctions.
  Solving real generalised eigenvalue problem by standard LAPACK (fast)

  Obtaining occupation numbers and chemical potential using ELSI.
  | Chemical potential (Fermi level):    -7.11137049eV
  Highest occupied state (VBM) at     -7.11137049 eV
  | Occupation number:      1.00000000

  Lowest unoccupied state (CBM) at    -7.11137049 eV
  | Occupation number:      1.00000000

  Overall HOMO-LUMO gap:      0.00000000 eV.
  This system has fractional occupation numbers. Thus, it is a degenerate system
  within the approximate finite broadening function (occupation_type)
  applied to determine the occupation numbers.
  This may not be harmful. However, for some systems (free atoms), a different, non-degenerate
  ground state might exist by using a smaller broadening (see keyword occupation_type).

  Total energy components:
  | Sum of eigenvalues            :         -82.48492536 Ha       -2244.52901933 eV
  | XC energy correction          :         -16.69776931 Ha        -454.36942103 eV
  | XC potential correction       :          21.45827139 Ha         583.90927340 eV
  | Free-atom electrostatic energy:         -72.39287028 Ha       -1969.91022833 eV
  | Hartree energy correction     :          -0.07102050 Ha          -1.93256606 eV
  | Entropy correction            :          -0.00103668 Ha          -0.02820948 eV
  | ---------------------------
  | Total energy                  :        -150.18831406 Ha       -4086.83196134 eV
  | Total energy, T -> 0          :        -150.18935074 Ha       -4086.86017082 eV  <-- do not rely on this value for anything but (periodic) metals
  | Electronic free energy        :        -150.19038742 Ha       -4086.88838030 eV

  Derived energy quantities:
  | Kinetic energy                :         149.41988505 Ha        4065.92194402 eV
  | Electrostatic energy          :        -282.91042980 Ha       -7698.38448433 eV
  | Energy correction for multipole
  | error in Hartree potential    :          -0.00054528 Ha          -0.01483780 eV
  | Sum of eigenvalues per atom                           :       -1122.26450966 eV
  | Total energy (T->0) per atom                          :       -2043.43008541 eV  <-- do not rely on this value for anything but (periodic) metals
  | Electronic free energy per atom                       :       -2043.44419015 eV

  Self-consistency convergence accuracy:
  | Change of charge density      :  0.1057E-02
  | Change of sum of eigenvalues  : -0.3718E-01 eV
  | Change of total energy        : -0.1287E-04 eV

  End self-consistency iteration #     6       :  max(cpu_time)    wall_clock(cpu1)
  | Time for this iteration                    :        0.316 s           0.316 s
  | Charge density update                      :        0.128 s           0.128 s
  | Density mixing                             :        0.004 s           0.003 s
  | Hartree multipole update                   :        0.002 s           0.003 s
  | Hartree multipole summation                :        0.027 s           0.027 s
  | Integration                                :        0.153 s           0.153 s
  | Solution of K.-S. eqns.                    :        0.001 s           0.001 s
  | Total energy evaluation                    :        0.000 s           0.001 s

  Partial memory accounting:
  | Current value for overall tracked memory usage on task 0  :           0.109 MB
  | Peak value for overall tracked memory usage on task 0     :           0.511 MB after allocating gradient_basis_wave
  | Largest tracked array allocation on task 0 so far         :           0.301 MB  when allocating gradient_basis_wave
  Note:  These values currently only include a subset of arrays which are explicitly tracked.
  The "true" memory usage will be greater.
------------------------------------------------------------

------------------------------------------------------------
          Begin self-consistency iteration #    7

  Date     :  20190508, Time     :  151848.146
------------------------------------------------------------
  Evaluating new KS density.
  Integration grid: deviation in total charge (<rho> - N_e) =   7.815970E-14
  Pulay mixing of updated and previous charge densities.

  Evaluating partitioned Hartree potential by multipole expansion.
  | Analytical far-field extrapolation by fixed multipoles:
  | Hartree multipole sum: apparent total charge =  -0.108624E-06
  Summing up the Hartree potential.
  Time summed over all CPUs for potential: real work        0.031 s, elapsed        0.031 s
  | RMS charge density error from multipole expansion :   0.143272E-02

  Integrating Hamiltonian matrix: batch-based integration.
  Time summed over all CPUs for integration: real work        0.174 s, elapsed        0.174 s

  Updating Kohn-Sham eigenvalues, eigenvectors, occupation numbers, and Fermi level.
  Solving generalized eigenproblem
  Updating Kohn-Sham eigenvalues and eigenfunctions.
  Solving real generalised eigenvalue problem by standard LAPACK (fast)

  Obtaining occupation numbers and chemical potential using ELSI.
  | Chemical potential (Fermi level):    -7.10582454eV
  Highest occupied state (VBM) at     -7.10582454 eV
  | Occupation number:      1.00000001

  Lowest unoccupied state (CBM) at    -7.10582454 eV
  | Occupation number:      0.99999999

  Overall HOMO-LUMO gap:      0.00000000 eV.
  This system has fractional occupation numbers. Thus, it is a degenerate system
  within the approximate finite broadening function (occupation_type)
  applied to determine the occupation numbers.
  This may not be harmful. However, for some systems (free atoms), a different, non-degenerate
  ground state might exist by using a smaller broadening (see keyword occupation_type).

  Total energy components:
  | Sum of eigenvalues            :         -82.47911845 Ha       -2244.37100530 eV
  | XC energy correction          :         -16.69844623 Ha        -454.38784094 eV
  | XC potential correction       :          21.45914948 Ha         583.93316753 eV
  | Free-atom electrostatic energy:         -72.39287028 Ha       -1969.91022833 eV
  | Hartree energy correction     :          -0.07702760 Ha          -2.09602752 eV
  | Entropy correction            :          -0.00103668 Ha          -0.02820948 eV
  | ---------------------------
  | Total energy                  :        -150.18831308 Ha       -4086.83193456 eV
  | Total energy, T -> 0          :        -150.18934976 Ha       -4086.86014404 eV  <-- do not rely on this value for anything but (periodic) metals
  | Electronic free energy        :        -150.19038644 Ha       -4086.88835352 eV

  Derived energy quantities:
  | Kinetic energy                :         149.42831999 Ha        4066.15147055 eV
  | Electrostatic energy          :        -282.91818684 Ha       -7698.59556418 eV
  | Energy correction for multipole
  | error in Hartree potential    :          -0.00053729 Ha          -0.01462045 eV
  | Sum of eigenvalues per atom                           :       -1122.18550265 eV
  | Total energy (T->0) per atom                          :       -2043.43007202 eV  <-- do not rely on this value for anything but (periodic) metals
  | Electronic free energy per atom                       :       -2043.44417676 eV

  Self-consistency convergence accuracy:
  | Change of charge density      :  0.1338E-02
  | Change of sum of eigenvalues  :  0.1580E+00 eV
  | Change of total energy        :  0.2678E-04 eV

  End self-consistency iteration #     7       :  max(cpu_time)    wall_clock(cpu1)
  | Time for this iteration                    :        0.325 s           0.325 s
  | Charge density update                      :        0.112 s           0.111 s
  | Density mixing                             :        0.004 s           0.005 s
  | Hartree multipole update                   :        0.002 s           0.002 s
  | Hartree multipole summation                :        0.031 s           0.031 s
  | Integration                                :        0.174 s           0.174 s
  | Solution of K.-S. eqns.                    :        0.002 s           0.002 s
  | Total energy evaluation                    :        0.000 s           0.000 s

  Partial memory accounting:
  | Current value for overall tracked memory usage on task 0  :           0.110 MB
  | Peak value for overall tracked memory usage on task 0     :           0.511 MB after allocating gradient_basis_wave
  | Largest tracked array allocation on task 0 so far         :           0.301 MB  when allocating gradient_basis_wave
  Note:  These values currently only include a subset of arrays which are explicitly tracked.
  The "true" memory usage will be greater.
------------------------------------------------------------

------------------------------------------------------------
          Begin self-consistency iteration #    8

  Date     :  20190508, Time     :  151848.471
------------------------------------------------------------
  Evaluating new KS density.
  Integration grid: deviation in total charge (<rho> - N_e) =  -4.973799E-14
  Pulay mixing of updated and previous charge densities.

  Evaluating partitioned Hartree potential by multipole expansion.
  | Analytical far-field extrapolation by fixed multipoles:
  | Hartree multipole sum: apparent total charge =  -0.108653E-06
  Summing up the Hartree potential.
  Time summed over all CPUs for potential: real work        0.027 s, elapsed        0.027 s
  | RMS charge density error from multipole expansion :   0.143270E-02

  Integrating Hamiltonian matrix: batch-based integration.
  Time summed over all CPUs for integration: real work        0.177 s, elapsed        0.177 s

  Updating Kohn-Sham eigenvalues, eigenvectors, occupation numbers, and Fermi level.
  Solving generalized eigenproblem
  Updating Kohn-Sham eigenvalues and eigenfunctions.
  Solving real generalised eigenvalue problem by standard LAPACK (fast)

  Obtaining occupation numbers and chemical potential using ELSI.
  | Chemical potential (Fermi level):    -7.10567303eV
  Highest occupied state (VBM) at     -7.10567303 eV
  | Occupation number:      1.00000001

  Lowest unoccupied state (CBM) at    -7.10567303 eV
  | Occupation number:      0.99999999

  Overall HOMO-LUMO gap:      0.00000000 eV.
  This system has fractional occupation numbers. Thus, it is a degenerate system
  within the approximate finite broadening function (occupation_type)
  applied to determine the occupation numbers.
  This may not be harmful. However, for some systems (free atoms), a different, non-degenerate
  ground state might exist by using a smaller broadening (see keyword occupation_type).

  Total energy components:
  | Sum of eigenvalues            :         -82.47900642 Ha       -2244.36795679 eV
  | XC energy correction          :         -16.69846087 Ha        -454.38823939 eV
  | XC potential correction       :          21.45916865 Ha         583.93368914 eV
  | Free-atom electrostatic energy:         -72.39287028 Ha       -1969.91022833 eV
  | Hartree energy correction     :          -0.07714415 Ha          -2.09919918 eV
  | Entropy correction            :          -0.00103668 Ha          -0.02820948 eV
  | ---------------------------
  | Total energy                  :        -150.18831308 Ha       -4086.83193455 eV
  | Total energy, T -> 0          :        -150.18934976 Ha       -4086.86014403 eV  <-- do not rely on this value for anything but (periodic) metals
  | Electronic free energy        :        -150.19038644 Ha       -4086.88835351 eV

  Derived energy quantities:
  | Kinetic energy                :         149.42842244 Ha        4066.15425836 eV
  | Electrostatic energy          :        -282.91827465 Ha       -7698.59795352 eV
  | Energy correction for multipole
  | error in Hartree potential    :          -0.00053728 Ha          -0.01462002 eV
  | Sum of eigenvalues per atom                           :       -1122.18397839 eV
  | Total energy (T->0) per atom                          :       -2043.43007202 eV  <-- do not rely on this value for anything but (periodic) metals
  | Electronic free energy per atom                       :       -2043.44417676 eV

  Self-consistency convergence accuracy:
  | Change of charge density      :  0.1927E-04
  | Change of sum of eigenvalues  :  0.3049E-02 eV
  | Change of total energy        :  0.7796E-08 eV

  End self-consistency iteration #     8       :  max(cpu_time)    wall_clock(cpu1)
  | Time for this iteration                    :        0.335 s           0.335 s
  | Charge density update                      :        0.123 s           0.123 s
  | Density mixing                             :        0.005 s           0.004 s
  | Hartree multipole update                   :        0.002 s           0.003 s
  | Hartree multipole summation                :        0.027 s           0.027 s
  | Integration                                :        0.177 s           0.177 s
  | Solution of K.-S. eqns.                    :        0.001 s           0.001 s
  | Total energy evaluation                    :        0.000 s           0.000 s

  Partial memory accounting:
  | Current value for overall tracked memory usage on task 0  :           0.110 MB
  | Peak value for overall tracked memory usage on task 0     :           0.511 MB after allocating gradient_basis_wave
  | Largest tracked array allocation on task 0 so far         :           0.301 MB  when allocating gradient_basis_wave
  Note:  These values currently only include a subset of arrays which are explicitly tracked.
  The "true" memory usage will be greater.
------------------------------------------------------------

------------------------------------------------------------
          Begin self-consistency iteration #    9

  Date     :  20190508, Time     :  151848.806
------------------------------------------------------------
  Evaluating new KS density.
  Integration grid: deviation in total charge (<rho> - N_e) =  -1.083578E-13
  Pulay mixing of updated and previous charge densities.

  Evaluating partitioned Hartree potential by multipole expansion.
  | Analytical far-field extrapolation by fixed multipoles:
  | Hartree multipole sum: apparent total charge =  -0.108380E-06
  Summing up the Hartree potential.
  Time summed over all CPUs for potential: real work        0.027 s, elapsed        0.027 s
  | RMS charge density error from multipole expansion :   0.143284E-02

  Integrating Hamiltonian matrix: batch-based integration.
  Time summed over all CPUs for integration: real work        0.161 s, elapsed        0.161 s

  Updating Kohn-Sham eigenvalues, eigenvectors, occupation numbers, and Fermi level.
  Solving generalized eigenproblem
  Updating Kohn-Sham eigenvalues and eigenfunctions.
  Solving real generalised eigenvalue problem by standard LAPACK (fast)

  Obtaining occupation numbers and chemical potential using ELSI.
  | Chemical potential (Fermi level):    -7.10609735eV
  Highest occupied state (VBM) at     -7.10609735 eV
  | Occupation number:      1.00000005

  Lowest unoccupied state (CBM) at    -7.10609735 eV
  | Occupation number:      0.99999995

  Overall HOMO-LUMO gap:      0.00000000 eV.
  This system has fractional occupation numbers. Thus, it is a degenerate system
  within the approximate finite broadening function (occupation_type)
  applied to determine the occupation numbers.
  This may not be harmful. However, for some systems (free atoms), a different, non-degenerate
  ground state might exist by using a smaller broadening (see keyword occupation_type).

  Total energy components:
  | Sum of eigenvalues            :         -82.47927632 Ha       -2244.37530132 eV
  | XC energy correction          :         -16.69843002 Ha        -454.38739977 eV
  | XC potential correction       :          21.45912772 Ha         583.93257541 eV
  | Free-atom electrostatic energy:         -72.39287028 Ha       -1969.91022833 eV
  | Hartree energy correction     :          -0.07686417 Ha          -2.09158053 eV
  | Entropy correction            :          -0.00103668 Ha          -0.02820948 eV
  | ---------------------------
  | Total energy                  :        -150.18831308 Ha       -4086.83193454 eV
  | Total energy, T -> 0          :        -150.18934976 Ha       -4086.86014402 eV  <-- do not rely on this value for anything but (periodic) metals
  | Electronic free energy        :        -150.19038644 Ha       -4086.88835350 eV

  Derived energy quantities:
  | Kinetic energy                :         149.42837049 Ha        4066.15284457 eV
  | Electrostatic energy          :        -282.91825355 Ha       -7698.59737935 eV
  | Energy correction for multipole
  | error in Hartree potential    :          -0.00053714 Ha          -0.01461633 eV
  | Sum of eigenvalues per atom                           :       -1122.18765066 eV
  | Total energy (T->0) per atom                          :       -2043.43007201 eV  <-- do not rely on this value for anything but (periodic) metals
  | Electronic free energy per atom                       :       -2043.44417675 eV

  Self-consistency convergence accuracy:
  | Change of charge density      :  0.2814E-04
  | Change of sum of eigenvalues  : -0.7345E-02 eV
  | Change of total energy        :  0.1556E-07 eV

  End self-consistency iteration #     9       :  max(cpu_time)    wall_clock(cpu1)
  | Time for this iteration                    :        0.308 s           0.310 s
  | Charge density update                      :        0.112 s           0.112 s
  | Density mixing                             :        0.005 s           0.005 s
  | Hartree multipole update                   :        0.002 s           0.002 s
  | Hartree multipole summation                :        0.027 s           0.028 s
  | Integration                                :        0.161 s           0.161 s
  | Solution of K.-S. eqns.                    :        0.002 s           0.001 s
  | Total energy evaluation                    :        0.000 s           0.001 s

  Partial memory accounting:
  | Current value for overall tracked memory usage on task 0  :           0.110 MB
  | Peak value for overall tracked memory usage on task 0     :           0.512 MB after allocating gradient_basis_wave
  | Largest tracked array allocation on task 0 so far         :           0.301 MB  when allocating gradient_basis_wave
  Note:  These values currently only include a subset of arrays which are explicitly tracked.
  The "true" memory usage will be greater.
------------------------------------------------------------

------------------------------------------------------------
          Begin self-consistency iteration #   10

  Date     :  20190508, Time     :  151849.116
------------------------------------------------------------
  Evaluating new KS density.
  Integration grid: deviation in total charge (<rho> - N_e) =  -2.131628E-14
  Pulay mixing of updated and previous charge densities.

  Evaluating partitioned Hartree potential by multipole expansion.
  | Analytical far-field extrapolation by fixed multipoles:
  | Hartree multipole sum: apparent total charge =  -0.108389E-06
  Summing up the Hartree potential.
  Time summed over all CPUs for potential: real work        0.027 s, elapsed        0.027 s
  | RMS charge density error from multipole expansion :   0.143283E-02

  Integrating Hamiltonian matrix: batch-based integration.
  Time summed over all CPUs for integration: real work        0.163 s, elapsed        0.163 s

  Updating Kohn-Sham eigenvalues, eigenvectors, occupation numbers, and Fermi level.
  Solving generalized eigenproblem
  Updating Kohn-Sham eigenvalues and eigenfunctions.
  Solving real generalised eigenvalue problem by standard LAPACK (fast)

  Obtaining occupation numbers and chemical potential using ELSI.
  | Chemical potential (Fermi level):    -7.10608111eV
  Highest occupied state (VBM) at     -7.10608112 eV
  | Occupation number:      1.00000025

  Lowest unoccupied state (CBM) at    -7.10608110 eV
  | Occupation number:      0.99999975

  Overall HOMO-LUMO gap:      0.00000002 eV.
  This system has fractional occupation numbers. Thus, it is a degenerate system
  within the approximate finite broadening function (occupation_type)
  applied to determine the occupation numbers.
  This may not be harmful. However, for some systems (free atoms), a different, non-degenerate
  ground state might exist by using a smaller broadening (see keyword occupation_type).

  Total energy components:
  | Sum of eigenvalues            :         -82.47926537 Ha       -2244.37500331 eV
  | XC energy correction          :         -16.69843087 Ha        -454.38742295 eV
  | XC potential correction       :          21.45912886 Ha         583.93260655 eV
  | Free-atom electrostatic energy:         -72.39287028 Ha       -1969.91022833 eV
  | Hartree energy correction     :          -0.07687542 Ha          -2.09188651 eV
  | Entropy correction            :          -0.00103668 Ha          -0.02820948 eV
  | ---------------------------
  | Total energy                  :        -150.18831308 Ha       -4086.83193454 eV
  | Total energy, T -> 0          :        -150.18934976 Ha       -4086.86014402 eV  <-- do not rely on this value for anything but (periodic) metals
  | Electronic free energy        :        -150.19038644 Ha       -4086.88835350 eV

  Derived energy quantities:
  | Kinetic energy                :         149.42837055 Ha        4066.15284635 eV
  | Electrostatic energy          :        -282.91825276 Ha       -7698.59735795 eV
  | Energy correction for multipole
  | error in Hartree potential    :          -0.00053715 Ha          -0.01461653 eV
  | Sum of eigenvalues per atom                           :       -1122.18750165 eV
  | Total energy (T->0) per atom                          :       -2043.43007201 eV  <-- do not rely on this value for anything but (periodic) metals
  | Electronic free energy per atom                       :       -2043.44417675 eV

  Self-consistency convergence accuracy:
  | Change of charge density      :  0.2101E-05
  | Change of sum of eigenvalues  :  0.2980E-03 eV
  | Change of total energy        : -0.9265E-09 eV

  End self-consistency iteration #    10       :  max(cpu_time)    wall_clock(cpu1)
  | Time for this iteration                    :        0.320 s           0.321 s
  | Charge density update                      :        0.122 s           0.122 s
  | Density mixing                             :        0.005 s           0.005 s
  | Hartree multipole update                   :        0.002 s           0.002 s
  | Hartree multipole summation                :        0.027 s           0.027 s
  | Integration                                :        0.162 s           0.163 s
  | Solution of K.-S. eqns.                    :        0.002 s           0.002 s
  | Total energy evaluation                    :        0.000 s           0.000 s

  Partial memory accounting:
  | Current value for overall tracked memory usage on task 0  :           0.110 MB
  | Peak value for overall tracked memory usage on task 0     :           0.512 MB after allocating gradient_basis_wave
  | Largest tracked array allocation on task 0 so far         :           0.301 MB  when allocating gradient_basis_wave
  Note:  These values currently only include a subset of arrays which are explicitly tracked.
  The "true" memory usage will be greater.
------------------------------------------------------------

------------------------------------------------------------
          Begin self-consistency iteration #   11

  Date     :  20190508, Time     :  151849.437
------------------------------------------------------------
  Evaluating new KS density.
  Integration grid: deviation in total charge (<rho> - N_e) =  -6.039613E-14
  Pulay mixing of updated and previous charge densities.

  Evaluating partitioned Hartree potential by multipole expansion.
  | Analytical far-field extrapolation by fixed multipoles:
  | Hartree multipole sum: apparent total charge =  -0.108383E-06
  Summing up the Hartree potential.
  Time summed over all CPUs for potential: real work        0.028 s, elapsed        0.028 s
  | RMS charge density error from multipole expansion :   0.143284E-02

  Integrating Hamiltonian matrix: batch-based integration.
  Time summed over all CPUs for integration: real work        0.167 s, elapsed        0.167 s

  Updating Kohn-Sham eigenvalues, eigenvectors, occupation numbers, and Fermi level.
  Solving generalized eigenproblem
  Updating Kohn-Sham eigenvalues and eigenfunctions.
  Solving real generalised eigenvalue problem by standard LAPACK (fast)

  Obtaining occupation numbers and chemical potential using ELSI.
  | Chemical potential (Fermi level):    -7.10609633eV
  Highest occupied state (VBM) at     -7.10609635 eV
  | Occupation number:      1.00000041

  Lowest unoccupied state (CBM) at    -7.10609631 eV
  | Occupation number:      0.99999959

  Overall HOMO-LUMO gap:      0.00000004 eV.
  This system has fractional occupation numbers. Thus, it is a degenerate system
  within the approximate finite broadening function (occupation_type)
  applied to determine the occupation numbers.
  This may not be harmful. However, for some systems (free atoms), a different, non-degenerate
  ground state might exist by using a smaller broadening (see keyword occupation_type).

  Total energy components:
  | Sum of eigenvalues            :         -82.47927573 Ha       -2244.37528512 eV
  | XC energy correction          :         -16.69842937 Ha        -454.38738222 eV
  | XC potential correction       :          21.45912690 Ha         583.93255322 eV
  | Free-atom electrostatic energy:         -72.39287028 Ha       -1969.91022833 eV
  | Hartree energy correction     :          -0.07686460 Ha          -2.09159209 eV
  | Entropy correction            :          -0.00103668 Ha          -0.02820948 eV
  | ---------------------------
  | Total energy                  :        -150.18831308 Ha       -4086.83193454 eV
  | Total energy, T -> 0          :        -150.18934976 Ha       -4086.86014402 eV  <-- do not rely on this value for anything but (periodic) metals
  | Electronic free energy        :        -150.19038644 Ha       -4086.88835350 eV

  Derived energy quantities:
  | Kinetic energy                :         149.42836171 Ha        4066.15260571 eV
  | Electrostatic energy          :        -282.91824541 Ha       -7698.59715803 eV
  | Energy correction for multipole
  | error in Hartree potential    :          -0.00053715 Ha          -0.01461658 eV
  | Sum of eigenvalues per atom                           :       -1122.18764256 eV
  | Total energy (T->0) per atom                          :       -2043.43007201 eV  <-- do not rely on this value for anything but (periodic) metals
  | Electronic free energy per atom                       :       -2043.44417675 eV

  Self-consistency convergence accuracy:
  | Change of charge density      :  0.1441E-05
  | Change of sum of eigenvalues  : -0.2818E-03 eV
  | Change of total energy        : -0.7355E-09 eV

  End self-consistency iteration #    11       :  max(cpu_time)    wall_clock(cpu1)
  | Time for this iteration                    :        0.330 s           0.330 s
  | Charge density update                      :        0.126 s           0.126 s
  | Density mixing                             :        0.005 s           0.005 s
  | Hartree multipole update                   :        0.003 s           0.003 s
  | Hartree multipole summation                :        0.028 s           0.028 s
  | Integration                                :        0.166 s           0.167 s
  | Solution of K.-S. eqns.                    :        0.002 s           0.001 s
  | Total energy evaluation                    :        0.000 s           0.000 s

  Partial memory accounting:
  | Current value for overall tracked memory usage on task 0  :           0.110 MB
  | Peak value for overall tracked memory usage on task 0     :           0.512 MB after allocating gradient_basis_wave
  | Largest tracked array allocation on task 0 so far         :           0.301 MB  when allocating gradient_basis_wave
  Note:  These values currently only include a subset of arrays which are explicitly tracked.
  The "true" memory usage will be greater.
------------------------------------------------------------

------------------------------------------------------------
          Begin self-consistency iteration #   12

  Date     :  20190508, Time     :  151849.768
------------------------------------------------------------
  Evaluating new KS density.
  Integration grid: deviation in total charge (<rho> - N_e) =  -2.309264E-14
  Pulay mixing of updated and previous charge densities.

  Evaluating partitioned Hartree potential by multipole expansion.
  | Analytical far-field extrapolation by fixed multipoles:
  | Hartree multipole sum: apparent total charge =  -0.108383E-06
  Summing up the Hartree potential.
  Time summed over all CPUs for potential: real work        0.028 s, elapsed        0.028 s
  | RMS charge density error from multipole expansion :   0.143284E-02

  Integrating Hamiltonian matrix: batch-based integration.
  Time summed over all CPUs for integration: real work        0.170 s, elapsed        0.170 s

  Updating Kohn-Sham eigenvalues, eigenvectors, occupation numbers, and Fermi level.
  Solving generalized eigenproblem
  Updating Kohn-Sham eigenvalues and eigenfunctions.
  Solving real generalised eigenvalue problem by standard LAPACK (fast)

  Obtaining occupation numbers and chemical potential using ELSI.
  | Chemical potential (Fermi level):    -7.10609482eV
  Highest occupied state (VBM) at     -7.10609482 eV
  | Occupation number:      1.00000000

  Lowest unoccupied state (CBM) at    -7.10609482 eV
  | Occupation number:      1.00000000

  Overall HOMO-LUMO gap:      0.00000000 eV.
  This system has fractional occupation numbers. Thus, it is a degenerate system
  within the approximate finite broadening function (occupation_type)
  applied to determine the occupation numbers.
  This may not be harmful. However, for some systems (free atoms), a different, non-degenerate
  ground state might exist by using a smaller broadening (see keyword occupation_type).

  Total energy components:
  | Sum of eigenvalues            :         -82.47927480 Ha       -2244.37525973 eV
  | XC energy correction          :         -16.69842948 Ha        -454.38738515 eV
  | XC potential correction       :          21.45912705 Ha         583.93255711 eV
  | Free-atom electrostatic energy:         -72.39287028 Ha       -1969.91022833 eV
  | Hartree energy correction     :          -0.07686556 Ha          -2.09161843 eV
  | Entropy correction            :          -0.00103668 Ha          -0.02820948 eV
  | ---------------------------
  | Total energy                  :        -150.18831308 Ha       -4086.83193454 eV
  | Total energy, T -> 0          :        -150.18934976 Ha       -4086.86014402 eV  <-- do not rely on this value for anything but (periodic) metals
  | Electronic free energy        :        -150.19038644 Ha       -4086.88835350 eV

  Derived energy quantities:
  | Kinetic energy                :         149.42836172 Ha        4066.15260604 eV
  | Electrostatic energy          :        -282.91824532 Ha       -7698.59715543 eV
  | Energy correction for multipole
  | error in Hartree potential    :          -0.00053715 Ha          -0.01461660 eV
  | Sum of eigenvalues per atom                           :       -1122.18762986 eV
  | Total energy (T->0) per atom                          :       -2043.43007201 eV  <-- do not rely on this value for anything but (periodic) metals
  | Electronic free energy per atom                       :       -2043.44417675 eV

  Self-consistency convergence accuracy:
  | Change of charge density      :  0.1847E-06
  | Change of sum of eigenvalues  :  0.2539E-04 eV
  | Change of total energy        :  0.3480E-10 eV

  Writing Kohn-Sham eigenvalues.

  State    Occupation    Eigenvalue [Ha]    Eigenvalue [eV]
      1       2.00000         -18.912561         -514.63696
      2       2.00000         -18.912554         -514.63677
      3       2.00000          -1.069303          -29.09722
      4       2.00000          -0.777742          -21.16344
      5       2.00000          -0.468389          -12.74552
      6       2.00000          -0.418972          -11.40081
      7       2.00000          -0.418972          -11.40081
      8       1.00000          -0.261144           -7.10609
      9       1.00000          -0.261144           -7.10609
     10       0.00000          -0.048980           -1.33282
     11       0.00000           0.098359            2.67648
     12       0.00000           0.140073            3.81157
     13       0.00000           0.142254            3.87093
     14       0.00000           0.142254            3.87093

  Highest occupied state (VBM) at     -7.10609482 eV
  | Occupation number:      1.00000000

  Lowest unoccupied state (CBM) at    -7.10609482 eV
  | Occupation number:      1.00000000

  Overall HOMO-LUMO gap:      0.00000000 eV.
  This system has fractional occupation numbers. Thus, it is a degenerate system
  within the approximate finite broadening function (occupation_type)
  applied to determine the occupation numbers.
  This may not be harmful. However, for some systems (free atoms), a different, non-degenerate
  ground state might exist by using a smaller broadening (see keyword occupation_type).

  Self-consistency cycle converged.

  End self-consistency iteration #    12       :  max(cpu_time)    wall_clock(cpu1)
  | Time for this iteration                    :        0.329 s           0.329 s
  | Charge density update                      :        0.123 s           0.122 s
  | Density mixing                             :        0.005 s           0.005 s
  | Hartree multipole update                   :        0.002 s           0.002 s
  | Hartree multipole summation                :        0.027 s           0.028 s
  | Integration                                :        0.170 s           0.170 s
  | Solution of K.-S. eqns.                    :        0.001 s           0.002 s
  | Total energy evaluation                    :        0.000 s           0.000 s

  Partial memory accounting:
  | Current value for overall tracked memory usage on task 0  :           0.110 MB
  | Peak value for overall tracked memory usage on task 0     :           0.512 MB after allocating gradient_basis_wave
  | Largest tracked array allocation on task 0 so far         :           0.301 MB  when allocating gradient_basis_wave
  Note:  These values currently only include a subset of arrays which are explicitly tracked.
  The "true" memory usage will be greater.
------------------------------------------------------------
  ------------------------------------------------------------
   Computing monopole / dipole moments for complete molecule:
  | Total electronic charge [e]         :          0.159999999999999E+02
  | Total ionic charge [e]              :          0.160000000000000E+02
  | Total charge [e]                    :          0.675015598972095E-13
  | Total dipole moment [eAng]          :         -0.468672080787445E-14         0.172074019650835E-14        -0.319978572143498E-10
  | Absolute dipole moment              :          0.319978576038493E-10 eAng              /                   0.153668307341219E-09 Debye  .

  Energy and forces in a compact form:
  | Total energy uncorrected      :         -0.408683193453996E+04 eV
  | Total energy corrected        :         -0.408686014401956E+04 eV  <-- do not rely on this value for anything but (periodic) metals
  | Electronic free energy        :         -0.408688835349916E+04 eV

  ------------------------------------ 
  Start decomposition of the XC Energy 
  ------------------------------------ 
  X and C from original XC functional choice 
  Hartree-Fock Energy :          0.000000000 Ha              0.000000000 eV
  X Energy            :        -16.176229408 Ha           -440.177598189 eV
  C Energy            :         -0.522200073 Ha            -14.209786962 eV
  Total XC Energy     :        -16.698429481 Ha           -454.387385151 eV
  ------------------------------------ 
  LDA X and C from self-consistent density 
  X Energy LDA        :        -14.663334900 Ha           -399.009644026 eV
  C Energy LDA        :         -1.105425403 Ha            -30.080155674 eV
  ------------------------------------ 
  End decomposition of the XC Energy 
  ------------------------------------ 

------------------------------------------------------------

------------------------------------------------------------------------------
  Final output of selected total energy values:

  The following output summarizes some interesting total energy values
  at the end of a run (AFTER all relaxation, molecular dynamics, etc.).

  | Total energy of the DFT / Hartree-Fock s.c.f. calculation      :          -4086.831934540 eV
  | Final zero-broadening corrected energy (caution - metals only) :          -4086.860144020 eV
  | For reference only, the value of 1 Hartree used in FHI-aims is :             27.211384500 eV

  Before relying on these values, please be sure to understand exactly which
  total energy value is referred to by a given number. Different objects may
  all carry the same name 'total energy'. Definitions:

  Total energy of the DFT / Hartree-Fock s.c.f. calculation:
  | Note that this energy does not include ANY quantities calculated after the
  | s.c.f. cycle, in particular not ANY RPA, MP2, etc. many-body perturbation terms.

  Final zero-broadening corrected energy:
  | For metallic systems only, a broadening of the occupation numbers at the Fermi
  | level can be extrapolated back to zero broadening by an electron-gas inspired
  | formula. For all systems that are not real metals, this value can be
  | meaningless and should be avoided.

------------------------------------------------------------------------------
  Methods described in the following list of references were used in this FHI-aims run.
  If you publish the results, please make sure to cite these reference if they apply.
  FHI-aims is an academic code, and for our developers (often, Ph.D. students
  and postdocs), scientific credit in the community is essential.
  Thank you for helping us!

  For any use of FHI-aims, please cite:

    Volker Blum, Ralf Gehrke, Felix Hanke, Paula Havu, Ville Havu,
    Xinguo Ren, Karsten Reuter, and Matthias Scheffler
    'Ab initio molecular simulations with numeric atom-centered orbitals'
    Computer Physics Communications 180, 2175-2196 (2009)
    http://dx.doi.org/10.1016/j.cpc.2009.06.022


  For the real-space grid partitioning and parallelization used in this calculation, please cite:

    Ville Havu, Volker Blum, Paula Havu, and Matthias Scheffler,
    'Efficient O(N) integration for all-electron electronic structure calculation'
    'using numerically tabulated basis functions'
    Journal of Computational Physics 228, 8367-8379 (2009).
    http://dx.doi.org/10.1016/j.jcp.2009.08.008

  Of course, there are many other important community references, e.g., those cited in the
  above references. Our list is limited to references that describe implementations in the
  FHI-aims code. The reason is purely practical (length of this list) - please credit others as well.

------------------------------------------------------------
          Leaving FHI-aims.
          Date     :  20190508, Time     :  151850.132

          Computational steps:
          | Number of self-consistency cycles          :           12
          | Number of SCF (re)initializations          :            1

          Detailed time accounting                     :  max(cpu_time)    wall_clock(cpu1)
          | Total time                                 :        4.303 s           4.306 s
          | Preparation time                           :        0.069 s           0.069 s
          | Boundary condition initalization           :        0.000 s           0.000 s
          | Grid partitioning                          :        0.032 s           0.032 s
          | Preloading free-atom quantities on grid    :        0.003 s           0.002 s
          | Free-atom superposition energy             :        0.028 s           0.028 s
          | Total time for integrations                :        2.244 s           2.245 s
          | Total time for solution of K.-S. equations :        0.021 s           0.020 s
          | Total time for density update              :        1.433 s           1.432 s
          | Total time for mixing                      :        0.044 s           0.043 s
          | Total time for Hartree multipole update    :        0.028 s           0.031 s
          | Total time for Hartree multipole sum       :        0.343 s           0.344 s
          | Total time for total energy evaluation     :        0.001 s           0.003 s

 This is a stub MPI_ALLREDUCE call.
 You should not be here. Check your
 setting on the use_mpi variable, or
 link against true MPI-libraries.
