------------------------------------------------------------
          Invoking FHI-aims ...
          Version 171221_1
          Compiled on 2019/05/06 at 14:26:40 on host ffph0xx.

          When using FHI-aims, please cite the following reference:

          Volker Blum, Ralf Gehrke, Felix Hanke, Paula Havu,
          Ville Havu, Xinguo Ren, Karsten Reuter, and Matthias Scheffler,
          'Ab Initio Molecular Simulations with Numeric Atom-Centered Orbitals',
          Computer Physics Communications 180, 2175-2196 (2009)

          For any questions about FHI-aims, please visit the aimsclub website
          with its forums and wiki. Contributions to both the forums and the
          wiki are warmly encouraged - they are for you, and everyone is welcome there.

------------------------------------------------------------



  Date     :  20190514, Time     :  123658.546
  Time zero on CPU 1             :   0.723000000000000E-03  s.
  Internal wall clock time zero  :           327069418.546  s.

  FHI-aims created a unique identifier for this run for later identification
  aims_uuid : 4F0ED541-31E7-4BA4-A77A-F1C8B32FF351


  Performing system and environment tests:
  *** Environment variable OMP_NUM_THREADS is not set
  *** For performance reasons you might want to set it to 1
  | Stacksize not measured: no C compiler

  Obtaining array dimensions for all initial allocations:
  
  -----------------------------------------------------------------------
  Parsing control.in (first pass over file, find array dimensions only).
  The contents of control.in will be repeated verbatim below
  unless switched off by setting 'verbatim_writeout .false.' .
  in the first line of control.in .
  -----------------------------------------------------------------------
  
  #--- method ---
  xc pw-lda
  spin none
  relativistic atomic_zora scalar
  #---
  
  #--- k-grid settings ---
  k_grid 12 12 12
  #---
  
  
  
  
  
  
  
  
  
  
  
  #-------------------------------------------------------------------------------
  #--- Species defaults for Si
  #-------------------------------------------------------------------------------
  
  ################################################################################
  #
  #  FHI-aims code project
  #  VB, Fritz-Haber Institut, 2009
  #
  #  Suggested "light" defaults for Si atom (to be pasted into control.in file)
  #  Be sure to double-check any results obtained with these settings for post-processing,
  #  e.g., with the "tight" defaults and larger basis sets.
  #
  ################################################################################
    species        Si
  #     global species definitions
      nucleus             14
      mass                28.0855
  #
      l_hartree           4
  #
      cut_pot             3.5          1.5  1.0
      basis_dep_cutoff    1e-4
  #
      radial_base         42 5.0
      radial_multiplier   1
      angular_grids       specified
        division   0.5866   50
        division   0.9616  110
        division   1.2249  194
        division   1.3795  302
  #      division   1.4810  434
  #      division   1.5529  590
  #      division   1.6284  770
  #      division   1.7077  974
  #      division   2.4068 1202
  #      outer_grid   974
        outer_grid 302
  ################################################################################
  #
  #  Definition of "minimal" basis
  #
  ################################################################################
  #     valence basis states
      valence      3  s   2.
      valence      3  p   2.
  #     ion occupancy
      ion_occ      3  s   1.
      ion_occ      3  p   1.
  ################################################################################
  #
  #  Suggested additional basis functions. For production calculations,
  #  uncomment them one after another (the most important basis functions are
  #  listed first).
  #
  #  Constructed for dimers: 1.75 A, 2.0 A, 2.25 A, 2.75 A, 3.75 A
  #
  ################################################################################
  #  "First tier" - improvements: -571.96 meV to -37.03 meV
       hydro 3 d 4.2
       hydro 2 p 1.4
  #     hydro 4 f 6.2
       ionic 3 s auto
  #  "Second tier" - improvements: -16.76 meV to -3.03 meV
  #     hydro 3 d 9
  #     hydro 5 g 9.4
  #     hydro 4 p 4
  #     hydro 1 s 0.65
  #  "Third tier" - improvements: -3.89 meV to -0.60 meV
  #     ionic 3 d auto
  #     hydro 3 s 2.6
  #     hydro 4 f 8.4
  #     hydro 3 d 3.4
  #     hydro 3 p 7.8
  #  "Fourth tier" - improvements: -0.33 meV to -0.11 meV
  #     hydro 2 p 1.6
  #     hydro 5 g 10.8
  #     hydro 5 f 11.2
  #     hydro 3 d 1
  #     hydro 4 s 4.5
  #  Further basis functions that fell out of the optimization - noise
  #  level... < -0.08 meV
  #     hydro 4 d 6.6
  #     hydro 5 g 16.4
  #     hydro 4 d 9
  
  -----------------------------------------------------------------------
  Completed first pass over input file control.in .
  -----------------------------------------------------------------------
  
  
  -----------------------------------------------------------------------
  Parsing geometry.in (first pass over file, find array dimensions only).
  The contents of geometry.in will be repeated verbatim below
  unless switched off by setting 'verbatim_writeout .false.' .
  in the first line of geometry.in .
  -----------------------------------------------------------------------
  
  lattice_vector   0.000000   3.150000   3.150000
  lattice_vector   3.150000   0.000000   3.150000
  lattice_vector   3.150000   3.150000   0.000000
  atom_frac   0.000000   0.000000   0.000000 Si
  
  -----------------------------------------------------------------------
  Completed first pass over input file geometry.in .
  -----------------------------------------------------------------------
  

  Basic array size parameters:
  | Number of species                 :        1
  | Number of atoms                   :        1
  | Number of lattice vectors         :        3
  | Max. basis fn. angular momentum   :        2
  | Max. atomic/ionic basis occupied n:        3
  | Max. number of basis fn. types    :        3
  | Max. radial fns per species/type  :        5
  | Max. logarithmic grid size        :     1346
  | Max. radial integration grid size :       42
  | Max. angular integration grid size:      302
  | Max. angular grid division number :        8
  | Radial grid for Hartree potential :     1346
  | Number of spin channels           :        1

------------------------------------------------------------
          Reading file control.in.
------------------------------------------------------------
  XC: Using Perdew-Wang parametrisation of Ceperley-Alder LDA.
  Spin treatment: No spin polarisation.
  Scalar relativistic treatment of kinetic energy: on-site free-atom approximation to ZORA.
  Found k-point grid:        12        12        12

  Reading configuration options for species Si                  .
  | Found nuclear charge :  14.0000
  | Found atomic mass :    28.085500000000000      amu
  | Found l_max for Hartree potential  :   4
  | Found cutoff potl. onset [A], width [A], scale factor :    3.50000    1.50000    1.00000
  | Threshold for basis-dependent cutoff potential is   0.100000E-03
  | Found data for basic radial integration grid :    42 points, outermost radius =    5.000 A
  | Found multiplier for basic radial grid :   1
  | Found angular grid specification: user-specified.
  | Specified grid contains     5 separate shells.
  | Check grid settings after all constraints further below.
  | Found free-atom valence shell :  3 s   2.000
  | Found free-atom valence shell :  3 p   2.000
  | Found free-ion valence shell :  3 s   1.000
  | Found free-ion valence shell :  3 p   1.000
  | Found hydrogenic basis function :  3 d   4.200
  | Found hydrogenic basis function :  2 p   1.400
  | Found ionic basis function :  3 s , default cutoff radius.
  Species Si                  : Missing cutoff potential type.
  Defaulting to exp(1/x)/(1-x)^2 type cutoff potential.
  Species Si: No 'logarithmic' tag. Using default grid for free atom:
  | Default logarithmic grid data [bohr] : 0.1000E-03 0.1000E+03 0.1012E+01
  | Will include ionic basis functions of  2.0-fold positive Si                   ion.
  Species Si: On-site basis accuracy parameter (for Gram-Schmidt orthonormalisation) not specified.
  Using default value basis_acc =  0.1000000E-03.
  Species Si                  : Using default innermost maximum threshold i_radial=  2 for radial functions.
  Species Si                  : Default cutoff onset for free atom density etc. : 0.35000000E+01 AA.
  Species Si                  : Basic radial grid will be enhanced according to radial_multiplier =   1, to contain    42 grid points.

  Finished reading input file 'control.in'. Consistency checks are next.

  MPI_IN_PLACE appears to work with this MPI implementation.
  | Keeping use_mpi_in_place .true. (see manual).
  Target number of points in a grid batch is not set. Defaulting to  100
  Method for grid partitioning is not set. Defaulting to 'maxmin' partitioning.
  Batch size limit is not set. Defaulting to    200
  By default, will store active basis functions for each batch.
  If in need of memory, prune_basis_once .false. can be used to disable this option.
  communication_type for Hartree potential was not specified.
  Defaulting to calc_hartree .
 * Attention: 
 * You may want to set distributed_spline_storage to .true. in order to save memory.
 * This doesn't harm performance and is perfectly ok unless:
 * - you get error messages in postprocessing (about missing atoms in get_rho_multipole_spl)
 * - you need full spline storage in hirshfeld_analysis
  Defaulting to Pulay charge density mixer.
  Pulay mixer: Number of relevant iterations not set.
  Defaulting to    8 iterations.
  Pulay mixer: Number of initial linear mixing iterations not set.
  Defaulting to    0 iterations.
  Work space size for distributed Hartree potential not set.
  Defaulting to   0.200000E+03 MB.
  Mixing parameter for charge density mixing has not been set.
  Using default: charge_mix_param =     0.0500.
  The mixing parameter will be adjusted in iteration number     2 of the first full s.c.f. cycle only.
  Algorithm-dependent basis array size parameters:
  | n_max_pulay                         :        8
 * Notice: The s.c.f. convergence criterion sc_accuracy_rho was not provided.
 * We used to stop in this case, and ask the user to provide reasonable
 * scf convergence criteria. However, this led some users to employ criteria
 * that led to extremely long run times, e.g., for simple relaxation.
 * We now preset a default value for sc_accuracy_rho if it is not set.
 * You may still wish to check if this setting is too tight or too loose for your needs.
 * Based on n_atoms, FHI-aims chose sc_accuracy_rho =  0.100000E-05 .
  Maximum number of self-consistency iterations not provided.
  Presetting  1000 iterations.
  Presetting      1001 iterations before the initial mixing cycle
  is restarted anyway using the sc_init_iter criterion / keyword.
  Presetting a factor      1.000 between actual scf density residual
  and density convergence criterion sc_accuracy_rho below which sc_init_iter
  takes no effect.
 * No s.c.f. convergence criteria (sc_accuracy_*) were provided in control.in.
 * The run will proceed with a reasonable default guess, but please check whether.
 * the s.c.f. cycles seem to take too much or too little time.
  Calculation of forces was not defined in control.in. No forces will be calculated.
  Geometry relaxation not requested: no relaxation will be performed.
  No accuracy limit for integral partition fn. given. Defaulting to  0.1000E-14.
  No threshold value for u(r) in integrations given. Defaulting to  0.1000E-05.
  No occupation type (smearing scheme) given. Defaulting to Gaussian broadening, width =  0.1000E-01 eV.
  The width will be adjusted in iteration number     2 of the first full s.c.f. cycle only.
  S.C.F. convergence parameters will be adjusted in iteration number     2 of the first full s.c.f. cycle only.
  No accuracy for occupation numbers given. Defaulting to  0.1000E-12.
  No threshold value for occupation numbers given. Defaulting to  0.0000E+00.
  No accuracy for fermi level given. Defaulting to  0.1000E-19.
  Maximum # of iterations to find E_F not set. Defaulting to  200.
  Preferred method for the eigenvalue solver ('KS_method') not specified in 'control.in'.
  Defaulting to serial version, 'lapack_fast'.
  Will not use alltoall communication since running on < 1024 CPUs.
  Threshold for basis singularities not set.
  Default threshold for basis singularities:  0.1000E-04
  partition_type (choice of integration weights) for integrals was not specified.
  | Using a version of the partition function of Stratmann and coworkers ('stratmann_smoother').
  | At each grid point, the set of atoms used to build the partition table is smoothly restricted to
  | only those atoms whose free-atom density would be non-zero at that grid point.
  Partitioning for Hartree potential was not defined. Using partition_type for integrals.
  | Adjusted default value of keyword multip_moments_threshold to:       0.10000000E-11
  | This value may affect high angular momentum components of the Hartree potential in periodic systems.
  Angular momentum expansion for Kerker preconditioner not set explicitly.
  | Using default value of   0
  No explicit requirement for turning off preconditioner.
  | By default, it will be turned off when the charge convergence reaches
  | sc_accuracy_rho  =   0.100000E-05
  No special mixing parameter while Kerker preconditioner is on.
  Using default: charge_mix_param =     0.0500.
  No q(lm)/r^(l+1) cutoff set for long-range Hartree potential.
  | Using default value of  0.100000E-09 .
  | Verify using the multipole_threshold keyword.
  Defaulting to new monopole extrapolation.
  Density update method: automatic selection selected.
  Using density matrix based charge density update.
  Using density matrix based charge density update.
  Using packed matrix style: index .
  Defaulting to use time-reversal symmetry for k-point grid.
------------------------------------------------------------


------------------------------------------------------------
          Reading geometry description geometry.in.
------------------------------------------------------------
  Input structure read successfully.
  The structure contains        1 atoms,  and a total of         14.000 electrons.

  Input geometry:
  | Unit cell:
  |        0.00000000        3.15000000        3.15000000
  |        3.15000000        0.00000000        3.15000000
  |        3.15000000        3.15000000        0.00000000
  | Atomic structure:
  |       Atom                x [A]            y [A]            z [A]
  |    1: Species Si            0.00000000        0.00000000        0.00000000

  Lattice parameters for 3D lattice (in Angstroms) :     4.454773    4.454773    4.454773
  Angle(s) between unit vectors (in degrees)      :    60.000000   60.000000   60.000000

  |

  | The smallest distance between any two atoms is         4.45477272 AA.
  |
  | The first atom of this pair is atom number                      1 .
  | The second atom of this pair is atom number                     1 .
  | Wigner-Seitz cell of the first atom image          -1     0     1 .
  | (The Wigner-Seitz cell of the second atom is 0 0 0  by definition.)

  Quantities derived from the lattice vectors:
  | Reciprocal lattice vector 1: -0.997331  0.997331  0.997331
  | Reciprocal lattice vector 2:  0.997331 -0.997331  0.997331
  | Reciprocal lattice vector 3:  0.997331  0.997331 -0.997331
  | Unit cell volume                               :   0.625118E+02  A^3

  Range separation radius for Ewald summation (hartree_convergence_parameter):      5.00000000 bohr.

  Fractional coordinates:
                         L1                L2                L3
       atom_frac         0.00000000        0.00000000        0.00000000  Si

  Number of empty states per atom not set in control.in - providing a guess from actual geometry.
  | Total number of empty states used during s.c.f. cycle:        3
  If you use a very high smearing, use empty_states (per atom!) in control.in to increase this value.

  Structure-dependent array size parameters: 
  | Maximum number of distinct radial functions  :        8
  | Maximum number of basis functions            :       18
  | Number of Kohn-Sham states (occupied + empty):       10
------------------------------------------------------------

------------------------------------------------------------
          Preparing all fixed parts of the calculation.
------------------------------------------------------------
  Determining machine precision:
     2.2250738585072014E-308
  Setting up grids for atomic and cluster calculations.

  Creating wave function, potential, and density for free atoms.

  Species: Si

  List of occupied orbitals and eigenvalues:
    n    l              occ      energy [Ha]    energy [eV]
    1    0           2.0000       -65.491668     -1782.1190
    2    0           2.0000        -5.087967      -138.4506
    3    0           2.0000        -0.391471       -10.6525
    2    1           6.0000        -3.502246       -95.3010
    3    1           2.0000        -0.143943        -3.9169

  Creating fixed part of basis set: Ionic, confined, hydrogenic.

  Si                   ion:

  List of free ionic orbitals and eigenvalues:
    n    l      energy [Ha]    energy [eV]
    1    0       -66.364436     -1805.8682
    2    0        -5.935799      -161.5213
    3    0        -1.078166       -29.3384
    2    1        -4.351123      -118.4001
    3    1        -0.781733       -21.2720


  List of ionic basis orbitals and eigenvalues:
    n    l      energy [Ha]    energy [eV]    outer radius [A]
    3    0        -1.078146       -29.3378       4.214062


  Si                   hydrogenic:

  List of hydrogenic basis orbitals: 
    n    l      effective z      eigenvalue [eV]  inner max. [A]     outer max. [A]     outer radius [A]   
    3    2         4.200000       -26.6624           1.139231           1.139231           4.534782
    2    1         1.400000        -6.4613           1.472672           1.472672           4.590560


  Adding cutoff potential to free-atom effective potential.
  Creating atomic-like basis functions for current effective potential.

  Species Si                  :

  List of atomic basis orbitals and eigenvalues:
    n    l      energy [Ha]    energy [eV]    outer radius [A]
    1    0       -65.491668     -1782.1190       0.789468
    2    0        -5.087967      -138.4506       2.815114
    3    0        -0.391471       -10.6525       4.534782
    2    1        -3.502246       -95.3010       3.259919
    3    1        -0.143943        -3.9169       4.590560

  Assembling full basis from fixed parts.
  | Species Si :   atomic orbital   1 s accepted.
  | Species Si :   atomic orbital   2 s accepted.
  | Species Si :    ionic orbital   3 s accepted.
  | Species Si :   atomic orbital   3 s accepted.
  | Species Si :   atomic orbital   2 p accepted.
  | Species Si :   atomic orbital   3 p accepted.
  | Species Si :    hydro orbital   2 p accepted.
  | Species Si :    hydro orbital   3 d accepted.

  Basis size parameters after reduction:
  | Total number of radial functions:        8
  | Total number of basis functions :       18

  Per-task memory consumption for arrays in subroutine allocate_ext:
  |           2.757468MB.
  Testing on-site integration grid accuracy.
  |  Species  Function  <phi|h_atom|phi> (log., in eV)  <phi|h_atom|phi> (rad., in eV)
           1        1              -1782.1189727076              -1782.1182429251
           1        2               -138.4506350693               -138.4506310079
           1        3                -10.3030408815                -10.3029120678
           1        4                  5.0238999146                  4.9457540310 ***
           1        5                -95.3009689499                -95.3009689315
           1        6                 -3.9266496564                 -3.9420918374
           1        7                  6.3453628447                  6.1632372158 ***
           1        8                  6.2883050744                  6.2861881409
 * Note: Onsite integrals marked "***" above are less accurate than
 * onsite_accuracy_threshold =    0.03000 eV. Usually, this is harmless.
 * When in doubt, tighten the "radial" and/or "radial_multiplier" flags to check.

  Preparing densities etc. for the partition functions (integrals / Hartree potential).

  Preparations completed.
  max(cpu_time)          :      0.093 s.
  Wall clock time (cpu1) :      0.094 s.
------------------------------------------------------------

------------------------------------------------------------
          Begin self-consistency loop: Initialization.

          Date     :  20190514, Time     :  123658.641
------------------------------------------------------------

  Initializing index lists of integration centers etc. from given atomic structure:
  Mapping all atomic coordinates to central unit cell.

  Initializing the k-points
          Using symmetry for reducing the k-points
  | k-points reduced from:     1728 to      868
  | Number of k-points                             :       868
  The eigenvectors in the calculations are COMPLEX.
  | K-points in task   0:       868
  | Number of basis functions in the Hamiltonian integrals :       414
  | Number of basis functions in a single unit cell        :        18
  | Number of centers in hartree potential         :       321
  | Number of centers in hartree multipole         :        79
  | Number of centers in electron density summation:        55
  | Number of centers in basis integrals           :        55
  | Number of centers in integrals                 :        25
  | Number of centers in hamiltonian               :        55
  | Consuming        759 KiB for k_phase.
  | Number of super-cells (origin) [n_cells]                     :        2197
  | Number of super-cells (after PM_index) [n_cells]             :          56
  | Number of super-cells in hamiltonian [n_cells_in_hamiltonian]:          56
  | Size of matrix packed + index [n_hamiltonian_matrix_size] :        7600
  Partitioning the integration grid into batches with maxmin method.
  | Maximal weight for a single point:     1.000
  | Minimal weight for a single point:     0.389
  | Number of batches:       64
  | Maximal batch size:      90
  | Minimal batch size:      85
  | Average batch size:      87.562
  | Standard deviation of batch sizes:       1.499
  Initializing partition tables, free-atom densities, potentials, etc. across the integration grid (initialize_grid_storage).
  | initialize_grid_storage: Actual outermost partition radius vs. multipole_radius_free
  | (-- VB: in principle, multipole_radius_free should be larger, hence this output)
  | Species        1: Confinement radius =              4.999999999999999 AA, multipole_radius_free =              5.000694715736543 AA.
  | Species        1: outer_partition_radius set to              5.000694715736543 AA .
  | Original list of interatomic distances with          55 x         55 entries is created.
  | Net number of integration points:     5604
  | of which are non-zero points    :     5388
  | Numerical average free-atom electrostatic potential    :     -4.20845626 eV
  Renormalizing the initial density to the exact electron count on the 3D integration grid.
  | Initial density: Formal number of electrons (from input files) :      14.0000000000
  | Integrated number of electrons on 3D grid     :      14.0003009187
  | Charge integration error                      :       0.0003009187
  | Normalization factor for density and gradient :       0.9999785063
  Obtaining max. number of non-zero basis functions in each batch (get_n_compute_maxes).
  | Maximal number of non-zero basis functions:      201 in task     0
  Allocating        2.500 MB for KS_eigenvector_complex
  Integrating Hamiltonian matrix: batch-based integration.
  Time summed over all CPUs for integration: real work        0.055 s, elapsed        0.055 s
  Integrating overlap matrix.
  Time summed over all CPUs for integration: real work        0.037 s, elapsed        0.037 s
  Decreasing sparse matrix size:
   Tolerance:   9.9999998245167004E-014
   Hamiltonian matrix
  | Array has     5053 nonzero elements out of     7600 elements
  | Sparsity factor is 0.335
   Overlap matrix
  | Array has     4545 nonzero elements out of     7600 elements
  | Sparsity factor is 0.402
  New size of hamiltonian matrix:        5192

  Updating Kohn-Sham eigenvalues, eigenvectors, occupation numbers, and Fermi level.
  Solving generalized eigenproblem
  Transforming overlap matrix and checking for singularities.
  Overlap matrix is nonsingular at first k-point:
  | Lowest eigenvalue:  0.111876E+00

  Obtaining occupation numbers and chemical potential using ELSI.
  | Chemical potential (Fermi level):    -4.41489497eV
  Writing Kohn-Sham eigenvalues.
  K-point:       1 at    0.000000    0.000000    0.000000 (in units of recip. lattice)

  State    Occupation    Eigenvalue [Ha]    Eigenvalue [eV]
      1       2.00000         -65.491631        -1782.11796
      2       2.00000          -5.087956         -138.45033
      3       2.00000          -3.502235          -95.30066
      4       2.00000          -3.502235          -95.30066
      5       2.00000          -3.502235          -95.30066
      6       2.00000          -0.422088          -11.48560
      7       0.00000          -0.096114           -2.61540
      8       0.00000          -0.096114           -2.61540
      9       0.00000          -0.096114           -2.61540
     10       0.00000           0.053398            1.45302

  What follows are estimated values for band gap, HOMO, LUMO, etc.
  | They are estimated on a discrete k-point grid and not necessarily exact.
  | For converged numbers, create a DOS and/or band structure plot on a denser k-grid.

  Highest occupied state (VBM) at     -4.42330052 eV (relative to internal zero)
  | Occupation number:      1.76545221
  | K-point:     312 at    0.250000    0.166667    0.333333 (in units of recip. lattice)

  Lowest unoccupied state (CBM) at    -4.41090221 eV (relative to internal zero)
  | Occupation number:      0.57230451
  | K-point:     218 at    0.166667    0.250000    0.916667 (in units of recip. lattice)

  ESTIMATED overall HOMO-LUMO gap:      0.01239831 eV between HOMO at k-point 312 and LUMO at k-point 218
  | This appears to be an indirect band gap.
  | Smallest direct gap :      0.71123607 eV for k_point 647 at    0.166667    0.250000    0.916667 (in units of recip. lattice)
  However, this system has fractional occupation numbers. Since we use a finite k-point grid,
  this material is metallic within the approximate finite broadening function (occupation_type)
  applied to determine the occupation numbers.
  Calculating total energy contributions from superposition of free atom densities.

  Total energy components:
  | Sum of eigenvalues            :        -163.32999208 Ha       -4444.43521493 eV
  | XC energy correction          :         -19.63417555 Ha        -534.27310033 eV
  | XC potential correction       :          25.94195206 Ha         705.91643228 eV
  | Free-atom electrostatic energy:        -132.20495504 Ha       -3597.47986433 eV
  | Hartree energy correction     :          -0.00000000 Ha          -0.00000000 eV
  | Entropy correction            :          -0.00000274 Ha          -0.00007468 eV
  | ---------------------------
  | Total energy                  :        -289.22717061 Ha       -7870.27174731 eV
  | Total energy, T -> 0          :        -289.22717335 Ha       -7870.27182199 eV  <-- do not rely on this value for anything but (periodic) metals
  | Electronic free energy        :        -289.22717610 Ha       -7870.27189667 eV

  Derived energy quantities:
  | Kinetic energy                :         289.55065128 Ha        7879.07410429 eV
  | Electrostatic energy          :        -559.14364634 Ha      -15215.07275127 eV
  | Energy correction for multipole
  | error in Hartree potential    :           0.00000000 Ha           0.00000000 eV
  | Sum of eigenvalues per atom                           :       -4444.43521493 eV
  | Total energy (T->0) per atom                          :       -7870.27182199 eV  <-- do not rely on this value for anything but (periodic) metals
  | Electronic free energy per atom                       :       -7870.27189667 eV
  Initialize hartree_potential_storage
  Max. number of atoms included in rho_multipole:            1

  End scf initialization - timings             :  max(cpu_time)    wall_clock(cpu1)
  | Time for scf. initialization               :        0.362 s           0.361 s
  | Boundary condition initialization          :        0.028 s           0.028 s
  | Integration                                :        0.092 s           0.092 s
  | Solution of K.-S. eqns.                    :        0.211 s           0.211 s
  | Grid partitioning                          :        0.008 s           0.008 s
  | Preloading free-atom quantities on grid    :        0.001 s           0.001 s
  | Free-atom superposition energy             :        0.006 s           0.006 s
  | Total energy evaluation                    :        0.000 s           0.000 s

  Partial memory accounting:
  | Current value for overall tracked memory usage on task 0  :           2.604 MB
  | Peak value for overall tracked memory usage on task 0     :           3.409 MB after allocating wave
  | Largest tracked array allocation on task 0 so far         :           2.500 MB  when allocating +KS_eigenvector_complex
  Note:  These values currently only include a subset of arrays which are explicitly tracked.
  The "true" memory usage will be greater.
------------------------------------------------------------

------------------------------------------------------------
          Begin self-consistency iteration #    1

  Date     :  20190514, Time     :  123659.002
------------------------------------------------------------
  Evaluating new KS density using the density matrix
  Evaluating density matrix
  Time summed over all CPUs for getting density from density matrix: real work        0.085 s, elapsed        0.085 s
  Integration grid: deviation in total charge (<rho> - N_e) =  -1.367795E-13
  Pulay mixing of updated and previous charge densities.

  Evaluating partitioned Hartree potential by multipole expansion.
  | Analytical far-field extrapolation by fixed multipoles:
  | Hartree multipole sum: apparent total charge =   0.127620E-03
  Summing up the Hartree potential.
  | Estimated reciprocal-space cutoff momentum G_max:         1.84432723 bohr^-1 .
  | Reciprocal lattice points for long-range Hartree potential:      58
  Time summed over all CPUs for potential: real work        0.061 s, elapsed        0.061 s
  | RMS charge density error from multipole expansion :   0.858025E-04
  | Average real-space part of the electrostatic potential :     -0.01414941 eV

  Integrating Hamiltonian matrix: batch-based integration.
  Time summed over all CPUs for integration: real work        0.056 s, elapsed        0.056 s

  Updating Kohn-Sham eigenvalues, eigenvectors, occupation numbers, and Fermi level.
  Solving generalized eigenproblem

  Obtaining occupation numbers and chemical potential using ELSI.
  | Chemical potential (Fermi level):    -4.42980417eV
  Writing Kohn-Sham eigenvalues.
  K-point:       1 at    0.000000    0.000000    0.000000 (in units of recip. lattice)

  State    Occupation    Eigenvalue [Ha]    Eigenvalue [eV]
      1       2.00000         -65.495010        -1782.20990
      2       2.00000          -5.090260         -138.51303
      3       2.00000          -3.504609          -95.36525
      4       2.00000          -3.504609          -95.36525
      5       2.00000          -3.504609          -95.36525
      6       2.00000          -0.422779          -11.50441
      7       0.00000          -0.096807           -2.63426
      8       0.00000          -0.096807           -2.63426
      9       0.00000          -0.096807           -2.63426
     10       0.00000           0.052782            1.43628

  What follows are estimated values for band gap, HOMO, LUMO, etc.
  | They are estimated on a discrete k-point grid and not necessarily exact.
  | For converged numbers, create a DOS and/or band structure plot on a denser k-grid.

  Highest occupied state (VBM) at     -4.43815416 eV (relative to internal zero)
  | Occupation number:      1.76234468
  | K-point:     100 at    0.083333    0.166667    0.833333 (in units of recip. lattice)

  Lowest unoccupied state (CBM) at    -4.42595365 eV (relative to internal zero)
  | Occupation number:      0.58606651
  | K-point:     839 at    0.916667    0.166667    0.250000 (in units of recip. lattice)

  ESTIMATED overall HOMO-LUMO gap:      0.01220051 eV between HOMO at k-point 100 and LUMO at k-point 839
  | This appears to be an indirect band gap.
  | Smallest direct gap :      0.71003707 eV for k_point 580 at    0.916667    0.166667    0.250000 (in units of recip. lattice)
  However, this system has fractional occupation numbers. Since we use a finite k-point grid,
  this material is metallic within the approximate finite broadening function (occupation_type)
  applied to determine the occupation numbers.

  Total energy components:
  | Sum of eigenvalues            :        -163.35812865 Ha       -4445.20085001 eV
  | XC energy correction          :         -19.63202764 Ha        -534.21465257 eV
  | XC potential correction       :          25.93912264 Ha         705.83943964 eV
  | Free-atom electrostatic energy:        -132.20495504 Ha       -3597.47986433 eV
  | Hartree energy correction     :           0.02897380 Ha           0.78841727 eV
  | Entropy correction            :          -0.00000280 Ha          -0.00007626 eV
  | ---------------------------
  | Total energy                  :        -289.22701489 Ha       -7870.26750999 eV
  | Total energy, T -> 0          :        -289.22701769 Ha       -7870.26758624 eV  <-- do not rely on this value for anything but (periodic) metals
  | Electronic free energy        :        -289.22702050 Ha       -7870.26766250 eV

  Derived energy quantities:
  | Kinetic energy                :         289.52607573 Ha        7878.40536944 eV
  | Electrostatic energy          :        -559.12106298 Ha      -15214.45822686 eV
  | Energy correction for multipole
  | error in Hartree potential    :           0.00000812 Ha           0.00022100 eV
  | Sum of eigenvalues per atom                           :       -4445.20085001 eV
  | Total energy (T->0) per atom                          :       -7870.26758624 eV  <-- do not rely on this value for anything but (periodic) metals
  | Electronic free energy per atom                       :       -7870.26766250 eV

  Self-consistency convergence accuracy:
  | Change of charge density      :  0.3164E-01
  | Change of sum of eigenvalues  : -0.7656E+00 eV
  | Change of total energy        :  0.4237E-02 eV

  End self-consistency iteration #     1       :  max(cpu_time)    wall_clock(cpu1)
  | Time for this iteration                    :        0.316 s           0.317 s
  | Charge density update                      :        0.093 s           0.094 s
  | Density mixing & preconditioning           :        0.011 s           0.011 s
  | Hartree multipole update                   :        0.000 s           0.000 s
  | Hartree multipole summation                :        0.063 s           0.063 s
  | Integration                                :        0.056 s           0.056 s
  | Solution of K.-S. eqns.                    :        0.092 s           0.092 s
  | Total energy evaluation                    :        0.000 s           0.000 s

  Partial memory accounting:
  | Current value for overall tracked memory usage on task 0  :           2.604 MB
  | Peak value for overall tracked memory usage on task 0     :           3.409 MB after allocating wave
  | Largest tracked array allocation on task 0 so far         :           2.500 MB  when allocating +KS_eigenvector_complex
  Note:  These values currently only include a subset of arrays which are explicitly tracked.
  The "true" memory usage will be greater.
------------------------------------------------------------

------------------------------------------------------------
          Begin self-consistency iteration #    2

  Date     :  20190514, Time     :  123659.319
------------------------------------------------------------
  Evaluating new KS density using the density matrix
  Evaluating density matrix
  Time summed over all CPUs for getting density from density matrix: real work        0.087 s, elapsed        0.087 s
  Integration grid: deviation in total charge (<rho> - N_e) =  -3.748113E-13
  Pulay mixing of updated and previous charge densities.

  Evaluating partitioned Hartree potential by multipole expansion.
  | Analytical far-field extrapolation by fixed multipoles:
  | Hartree multipole sum: apparent total charge =  -0.288210E-02
  Summing up the Hartree potential.
  Time summed over all CPUs for potential: real work        0.089 s, elapsed        0.089 s
  | RMS charge density error from multipole expansion :   0.155951E-02
  | Average real-space part of the electrostatic potential :     -0.23348282 eV

  Integrating Hamiltonian matrix: batch-based integration.
  Time summed over all CPUs for integration: real work        0.056 s, elapsed        0.056 s

  Updating Kohn-Sham eigenvalues, eigenvectors, occupation numbers, and Fermi level.
  Solving generalized eigenproblem

  Obtaining occupation numbers and chemical potential using ELSI.
  | Chemical potential (Fermi level):    -4.66750694eV
  What follows are estimated values for band gap, HOMO, LUMO, etc.
  | They are estimated on a discrete k-point grid and not necessarily exact.
  | For converged numbers, create a DOS and/or band structure plot on a denser k-grid.

  Highest occupied state (VBM) at     -4.67231707 eV (relative to internal zero)
  | Occupation number:      1.50365685
  | K-point:     701 at    0.583333    0.333333    0.250000 (in units of recip. lattice)

  Lowest unoccupied state (CBM) at    -4.66732741 eV (relative to internal zero)
  | Occupation number:      0.97974484
  | K-point:     754 at    0.666667    0.750000    0.916667 (in units of recip. lattice)

  ESTIMATED overall HOMO-LUMO gap:      0.00498965 eV between HOMO at k-point 701 and LUMO at k-point 754
  | This appears to be an indirect band gap.
  | Smallest direct gap :      0.69037910 eV for k_point 352 at    0.666667    0.750000    0.916667 (in units of recip. lattice)
  However, this system has fractional occupation numbers. Since we use a finite k-point grid,
  this material is metallic within the approximate finite broadening function (occupation_type)
  applied to determine the occupation numbers.

  Checking to see if s.c.f. parameters should be adjusted.
  Adjusted the Pulay mixing parameter (charge_mix_param) for an expected low-gap system. New value:   0.020000 .
  Adjusted the occupation broadening width for an expected low-gap system. New value:      0.05000000 eV.

  Total energy components:
  | Sum of eigenvalues            :        -163.76733358 Ha       -4456.33588260 eV
  | XC energy correction          :         -19.59621841 Ha        -533.24023387 eV
  | XC potential correction       :          25.89194925 Ha         704.55578637 eV
  | Free-atom electrostatic energy:        -132.20495504 Ha       -3597.47986433 eV
  | Hartree energy correction     :           0.45098838 Ha          12.27201820 eV
  | Entropy correction            :          -0.00003413 Ha          -0.00092870 eV
  | ---------------------------
  | Total energy                  :        -289.22556940 Ha       -7870.22817623 eV
  | Total energy, T -> 0          :        -289.22560353 Ha       -7870.22910493 eV  <-- do not rely on this value for anything but (periodic) metals
  | Electronic free energy        :        -289.22563766 Ha       -7870.23003363 eV

  Derived energy quantities:
  | Kinetic energy                :         289.26652024 Ha        7871.34250516 eV
  | Electrostatic energy          :        -558.89587123 Ha      -15208.33044752 eV
  | Energy correction for multipole
  | error in Hartree potential    :           0.00016737 Ha           0.00455438 eV
  | Sum of eigenvalues per atom                           :       -4456.33588260 eV
  | Total energy (T->0) per atom                          :       -7870.22910493 eV  <-- do not rely on this value for anything but (periodic) metals
  | Electronic free energy per atom                       :       -7870.23003363 eV

  Self-consistency convergence accuracy:
  | Change of charge density      :  0.3003E-01
  | Change of sum of eigenvalues  : -0.1114E+02 eV
  | Change of total energy        :  0.3933E-01 eV

  End self-consistency iteration #     2       :  max(cpu_time)    wall_clock(cpu1)
  | Time for this iteration                    :        0.344 s           0.344 s
  | Charge density update                      :        0.096 s           0.096 s
  | Density mixing & preconditioning           :        0.010 s           0.010 s
  | Hartree multipole update                   :        0.000 s           0.000 s
  | Hartree multipole summation                :        0.091 s           0.091 s
  | Integration                                :        0.056 s           0.056 s
  | Solution of K.-S. eqns.                    :        0.091 s           0.091 s
  | Total energy evaluation                    :        0.000 s           0.000 s

  Partial memory accounting:
  | Current value for overall tracked memory usage on task 0  :           2.605 MB
  | Peak value for overall tracked memory usage on task 0     :           3.409 MB after allocating wave
  | Largest tracked array allocation on task 0 so far         :           2.500 MB  when allocating +KS_eigenvector_complex
  Note:  These values currently only include a subset of arrays which are explicitly tracked.
  The "true" memory usage will be greater.
------------------------------------------------------------

------------------------------------------------------------
          Begin self-consistency iteration #    3

  Date     :  20190514, Time     :  123659.663
------------------------------------------------------------
  Evaluating new KS density using the density matrix
  Evaluating density matrix
  Time summed over all CPUs for getting density from density matrix: real work        0.085 s, elapsed        0.085 s
  Integration grid: deviation in total charge (<rho> - N_e) =  -3.197442E-13
  Pulay mixing of updated and previous charge densities.

  Evaluating partitioned Hartree potential by multipole expansion.
  | Analytical far-field extrapolation by fixed multipoles:
  | Hartree multipole sum: apparent total charge =  -0.437715E-02
  Summing up the Hartree potential.
  Time summed over all CPUs for potential: real work        0.095 s, elapsed        0.095 s
  | RMS charge density error from multipole expansion :   0.216000E-02
  | Average real-space part of the electrostatic potential :     -0.32892505 eV

  Integrating Hamiltonian matrix: batch-based integration.
  Time summed over all CPUs for integration: real work        0.056 s, elapsed        0.056 s

  Updating Kohn-Sham eigenvalues, eigenvectors, occupation numbers, and Fermi level.
  Solving generalized eigenproblem

  Obtaining occupation numbers and chemical potential using ELSI.
  | Chemical potential (Fermi level):    -4.75003566eV
  What follows are estimated values for band gap, HOMO, LUMO, etc.
  | They are estimated on a discrete k-point grid and not necessarily exact.
  | For converged numbers, create a DOS and/or band structure plot on a denser k-grid.

  Highest occupied state (VBM) at     -4.76529069 eV (relative to internal zero)
  | Occupation number:      1.33387857
  | K-point:     159 at    0.083333    0.750000    0.333333 (in units of recip. lattice)

  Lowest unoccupied state (CBM) at    -4.73634936 eV (relative to internal zero)
  | Occupation number:      0.69867701
  | K-point:       3 at    0.000000    0.000000    0.250000 (in units of recip. lattice)

  ESTIMATED overall HOMO-LUMO gap:      0.02894132 eV between HOMO at k-point 159 and LUMO at k-point 3
  | This appears to be an indirect band gap.
  | Smallest direct gap :      0.68216242 eV for k_point 469 at    0.000000    0.000000    0.250000 (in units of recip. lattice)
  However, this system has fractional occupation numbers. Since we use a finite k-point grid,
  this material is metallic within the approximate finite broadening function (occupation_type)
  applied to determine the occupation numbers.

  Total energy components:
  | Sum of eigenvalues            :        -163.91507598 Ha       -4460.35615777 eV
  | XC energy correction          :         -19.58430279 Ha        -532.91599329 eV
  | XC potential correction       :          25.87627831 Ha         704.12935842 eV
  | Free-atom electrostatic energy:        -132.20495504 Ha       -3597.47986433 eV
  | Hartree energy correction     :           0.60254116 Ha          16.39597929 eV
  | Entropy correction            :          -0.00003191 Ha          -0.00086823 eV
  | ---------------------------
  | Total energy                  :        -289.22551433 Ha       -7870.22667768 eV
  | Total energy, T -> 0          :        -289.22554624 Ha       -7870.22754592 eV  <-- do not rely on this value for anything but (periodic) metals
  | Electronic free energy        :        -289.22557815 Ha       -7870.22841415 eV

  Derived energy quantities:
  | Kinetic energy                :         289.20635614 Ha        7869.70535680 eV
  | Electrostatic energy          :        -558.84756769 Ha      -15207.01604119 eV
  | Energy correction for multipole
  | error in Hartree potential    :           0.00025135 Ha           0.00683949 eV
  | Sum of eigenvalues per atom                           :       -4460.35615777 eV
  | Total energy (T->0) per atom                          :       -7870.22754592 eV  <-- do not rely on this value for anything but (periodic) metals
  | Electronic free energy per atom                       :       -7870.22841415 eV

  Self-consistency convergence accuracy:
  | Change of charge density      :  0.8228E-02
  | Change of sum of eigenvalues  : -0.4020E+01 eV
  | Change of total energy        :  0.1499E-02 eV

  End self-consistency iteration #     3       :  max(cpu_time)    wall_clock(cpu1)
  | Time for this iteration                    :        0.352 s           0.352 s
  | Charge density update                      :        0.093 s           0.093 s
  | Density mixing & preconditioning           :        0.010 s           0.010 s
  | Hartree multipole update                   :        0.000 s           0.001 s
  | Hartree multipole summation                :        0.097 s           0.097 s
  | Integration                                :        0.056 s           0.056 s
  | Solution of K.-S. eqns.                    :        0.095 s           0.095 s
  | Total energy evaluation                    :        0.000 s           0.000 s

  Partial memory accounting:
  | Current value for overall tracked memory usage on task 0  :           2.605 MB
  | Peak value for overall tracked memory usage on task 0     :           3.409 MB after allocating wave
  | Largest tracked array allocation on task 0 so far         :           2.500 MB  when allocating +KS_eigenvector_complex
  Note:  These values currently only include a subset of arrays which are explicitly tracked.
  The "true" memory usage will be greater.
------------------------------------------------------------

------------------------------------------------------------
          Begin self-consistency iteration #    4

  Date     :  20190514, Time     :  123700.015
------------------------------------------------------------
  Evaluating new KS density using the density matrix
  Evaluating density matrix
  Time summed over all CPUs for getting density from density matrix: real work        0.085 s, elapsed        0.085 s
  Integration grid: deviation in total charge (<rho> - N_e) =  -3.765876E-13
  Pulay mixing of updated and previous charge densities.

  Evaluating partitioned Hartree potential by multipole expansion.
  | Analytical far-field extrapolation by fixed multipoles:
  | Hartree multipole sum: apparent total charge =  -0.450418E-02
  Summing up the Hartree potential.
  Time summed over all CPUs for potential: real work        0.102 s, elapsed        0.102 s
  | RMS charge density error from multipole expansion :   0.193732E-02
  | Average real-space part of the electrostatic potential :     -0.30894559 eV

  Integrating Hamiltonian matrix: batch-based integration.
  Time summed over all CPUs for integration: real work        0.055 s, elapsed        0.055 s

  Updating Kohn-Sham eigenvalues, eigenvectors, occupation numbers, and Fermi level.
  Solving generalized eigenproblem

  Obtaining occupation numbers and chemical potential using ELSI.
  | Chemical potential (Fermi level):    -4.71596092eV
  What follows are estimated values for band gap, HOMO, LUMO, etc.
  | They are estimated on a discrete k-point grid and not necessarily exact.
  | For converged numbers, create a DOS and/or band structure plot on a denser k-grid.

  Highest occupied state (VBM) at     -4.73049110 eV (relative to internal zero)
  | Occupation number:      1.31890938
  | K-point:     105 at    0.083333    0.250000    0.333333 (in units of recip. lattice)

  Lowest unoccupied state (CBM) at    -4.70205204 eV (relative to internal zero)
  | Occupation number:      0.69402223
  | K-point:       3 at    0.000000    0.000000    0.250000 (in units of recip. lattice)

  ESTIMATED overall HOMO-LUMO gap:      0.02843905 eV between HOMO at k-point 105 and LUMO at k-point 3
  | This appears to be an indirect band gap.
  | Smallest direct gap :      0.68678838 eV for k_point 469 at    0.000000    0.000000    0.250000 (in units of recip. lattice)
  However, this system has fractional occupation numbers. Since we use a finite k-point grid,
  this material is metallic within the approximate finite broadening function (occupation_type)
  applied to determine the occupation numbers.

  Total energy components:
  | Sum of eigenvalues            :        -163.80277882 Ha       -4457.30039662 eV
  | XC energy correction          :         -19.59548359 Ha        -533.22023832 eV
  | XC potential correction       :          25.89108199 Ha         704.53218723 eV
  | Free-atom electrostatic energy:        -132.20495504 Ha       -3597.47986433 eV
  | Hartree energy correction     :           0.48664209 Ha          13.24220489 eV
  | Entropy correction            :          -0.00003185 Ha          -0.00086665 eV
  | ---------------------------
  | Total energy                  :        -289.22549336 Ha       -7870.22610714 eV
  | Total energy, T -> 0          :        -289.22552521 Ha       -7870.22697379 eV  <-- do not rely on this value for anything but (periodic) metals
  | Electronic free energy        :        -289.22555706 Ha       -7870.22784043 eV

  Derived energy quantities:
  | Kinetic energy                :         289.36305194 Ha        7873.96926638 eV
  | Electrostatic energy          :        -558.99306172 Ha      -15210.97513521 eV
  | Energy correction for multipole
  | error in Hartree potential    :           0.00024242 Ha           0.00659646 eV
  | Sum of eigenvalues per atom                           :       -4457.30039662 eV
  | Total energy (T->0) per atom                          :       -7870.22697379 eV  <-- do not rely on this value for anything but (periodic) metals
  | Electronic free energy per atom                       :       -7870.22784043 eV

  Self-consistency convergence accuracy:
  | Change of charge density      :  0.9556E-02
  | Change of sum of eigenvalues  :  0.3056E+01 eV
  | Change of total energy        :  0.5705E-03 eV

  End self-consistency iteration #     4       :  max(cpu_time)    wall_clock(cpu1)
  | Time for this iteration                    :        0.357 s           0.357 s
  | Charge density update                      :        0.093 s           0.093 s
  | Density mixing & preconditioning           :        0.010 s           0.010 s
  | Hartree multipole update                   :        0.000 s           0.001 s
  | Hartree multipole summation                :        0.103 s           0.103 s
  | Integration                                :        0.055 s           0.055 s
  | Solution of K.-S. eqns.                    :        0.095 s           0.095 s
  | Total energy evaluation                    :        0.000 s           0.000 s

  Partial memory accounting:
  | Current value for overall tracked memory usage on task 0  :           2.606 MB
  | Peak value for overall tracked memory usage on task 0     :           3.409 MB after allocating wave
  | Largest tracked array allocation on task 0 so far         :           2.500 MB  when allocating +KS_eigenvector_complex
  Note:  These values currently only include a subset of arrays which are explicitly tracked.
  The "true" memory usage will be greater.
------------------------------------------------------------

------------------------------------------------------------
          Begin self-consistency iteration #    5

  Date     :  20190514, Time     :  123700.372
------------------------------------------------------------
  Evaluating new KS density using the density matrix
  Evaluating density matrix
  Time summed over all CPUs for getting density from density matrix: real work        0.084 s, elapsed        0.084 s
  Integration grid: deviation in total charge (<rho> - N_e) =  -4.458656E-13
  Pulay mixing of updated and previous charge densities.

  Evaluating partitioned Hartree potential by multipole expansion.
  | Analytical far-field extrapolation by fixed multipoles:
  | Hartree multipole sum: apparent total charge =  -0.434210E-02
  Summing up the Hartree potential.
  Time summed over all CPUs for potential: real work        0.103 s, elapsed        0.103 s
  | RMS charge density error from multipole expansion :   0.213411E-02
  | Average real-space part of the electrostatic potential :     -0.34199103 eV

  Integrating Hamiltonian matrix: batch-based integration.
  Time summed over all CPUs for integration: real work        0.056 s, elapsed        0.056 s

  Updating Kohn-Sham eigenvalues, eigenvectors, occupation numbers, and Fermi level.
  Solving generalized eigenproblem

  Obtaining occupation numbers and chemical potential using ELSI.
  | Chemical potential (Fermi level):    -4.74689440eV
  What follows are estimated values for band gap, HOMO, LUMO, etc.
  | They are estimated on a discrete k-point grid and not necessarily exact.
  | For converged numbers, create a DOS and/or band structure plot on a denser k-grid.

  Highest occupied state (VBM) at     -4.76213319 eV (relative to internal zero)
  | Occupation number:      1.33354474
  | K-point:     105 at    0.083333    0.250000    0.333333 (in units of recip. lattice)

  Lowest unoccupied state (CBM) at    -4.73319777 eV (relative to internal zero)
  | Occupation number:      0.69846069
  | K-point:       3 at    0.000000    0.000000    0.250000 (in units of recip. lattice)

  ESTIMATED overall HOMO-LUMO gap:      0.02893542 eV between HOMO at k-point 105 and LUMO at k-point 3
  | This appears to be an indirect band gap.
  | Smallest direct gap :      0.68397353 eV for k_point 771 at    0.000000    0.000000    0.250000 (in units of recip. lattice)
  However, this system has fractional occupation numbers. Since we use a finite k-point grid,
  this material is metallic within the approximate finite broadening function (occupation_type)
  applied to determine the occupation numbers.

  Total energy components:
  | Sum of eigenvalues            :        -163.85630532 Ha       -4458.75692689 eV
  | XC energy correction          :         -19.59074930 Ha        -533.09141178 eV
  | XC potential correction       :          25.88484741 Ha         704.36253550 eV
  | Free-atom electrostatic energy:        -132.20495504 Ha       -3597.47986433 eV
  | Hartree energy correction     :           0.54166855 Ha          14.73955110 eV
  | Entropy correction            :          -0.00003186 Ha          -0.00086708 eV
  | ---------------------------
  | Total energy                  :        -289.22549370 Ha       -7870.22611640 eV
  | Total energy, T -> 0          :        -289.22552557 Ha       -7870.22698348 eV  <-- do not rely on this value for anything but (periodic) metals
  | Electronic free energy        :        -289.22555743 Ha       -7870.22785056 eV

  Derived energy quantities:
  | Kinetic energy                :         289.32941225 Ha        7873.05388392 eV
  | Electrostatic energy          :        -558.96415666 Ha      -15210.18858854 eV
  | Energy correction for multipole
  | error in Hartree potential    :           0.00027097 Ha           0.00737357 eV
  | Sum of eigenvalues per atom                           :       -4458.75692689 eV
  | Total energy (T->0) per atom                          :       -7870.22698348 eV  <-- do not rely on this value for anything but (periodic) metals
  | Electronic free energy per atom                       :       -7870.22785056 eV

  Self-consistency convergence accuracy:
  | Change of charge density      :  0.2276E-02
  | Change of sum of eigenvalues  : -0.1457E+01 eV
  | Change of total energy        : -0.9254E-05 eV

  End self-consistency iteration #     5       :  max(cpu_time)    wall_clock(cpu1)
  | Time for this iteration                    :        0.358 s           0.358 s
  | Charge density update                      :        0.093 s           0.094 s
  | Density mixing & preconditioning           :        0.010 s           0.010 s
  | Hartree multipole update                   :        0.000 s           0.000 s
  | Hartree multipole summation                :        0.105 s           0.105 s
  | Integration                                :        0.056 s           0.056 s
  | Solution of K.-S. eqns.                    :        0.093 s           0.093 s
  | Total energy evaluation                    :        0.000 s           0.000 s

  Partial memory accounting:
  | Current value for overall tracked memory usage on task 0  :           2.606 MB
  | Peak value for overall tracked memory usage on task 0     :           3.409 MB after allocating wave
  | Largest tracked array allocation on task 0 so far         :           2.500 MB  when allocating +KS_eigenvector_complex
  Note:  These values currently only include a subset of arrays which are explicitly tracked.
  The "true" memory usage will be greater.
------------------------------------------------------------

------------------------------------------------------------
          Begin self-consistency iteration #    6

  Date     :  20190514, Time     :  123700.730
------------------------------------------------------------
  Evaluating new KS density using the density matrix
  Evaluating density matrix
  Time summed over all CPUs for getting density from density matrix: real work        0.084 s, elapsed        0.084 s
  Integration grid: deviation in total charge (<rho> - N_e) =  -2.096101E-13
  Pulay mixing of updated and previous charge densities.

  Evaluating partitioned Hartree potential by multipole expansion.
  | Analytical far-field extrapolation by fixed multipoles:
  | Hartree multipole sum: apparent total charge =  -0.150081E-02
  Summing up the Hartree potential.
  Time summed over all CPUs for potential: real work        0.102 s, elapsed        0.102 s
  | RMS charge density error from multipole expansion :   0.200530E-02
  | Average real-space part of the electrostatic potential :     -0.33308548 eV

  Integrating Hamiltonian matrix: batch-based integration.
  Time summed over all CPUs for integration: real work        0.055 s, elapsed        0.055 s

  Updating Kohn-Sham eigenvalues, eigenvectors, occupation numbers, and Fermi level.
  Solving generalized eigenproblem

  Obtaining occupation numbers and chemical potential using ELSI.
  | Chemical potential (Fermi level):    -4.72464669eV
  What follows are estimated values for band gap, HOMO, LUMO, etc.
  | They are estimated on a discrete k-point grid and not necessarily exact.
  | For converged numbers, create a DOS and/or band structure plot on a denser k-grid.

  Highest occupied state (VBM) at     -4.73943763 eV (relative to internal zero)
  | Occupation number:      1.32430941
  | K-point:     218 at    0.166667    0.250000    0.916667 (in units of recip. lattice)

  Lowest unoccupied state (CBM) at    -4.71081793 eV (relative to internal zero)
  | Occupation number:      0.69569635
  | K-point:     320 at    0.250000    0.250000    0.250000 (in units of recip. lattice)

  ESTIMATED overall HOMO-LUMO gap:      0.02861970 eV between HOMO at k-point 218 and LUMO at k-point 320
  | This appears to be an indirect band gap.
  | Smallest direct gap :      0.68615530 eV for k_point 647 at    0.250000    0.250000    0.250000 (in units of recip. lattice)
  However, this system has fractional occupation numbers. Since we use a finite k-point grid,
  this material is metallic within the approximate finite broadening function (occupation_type)
  applied to determine the occupation numbers.

  Total energy components:
  | Sum of eigenvalues            :        -163.82488975 Ha       -4457.90206556 eV
  | XC energy correction          :         -19.59207884 Ha        -533.12759043 eV
  | XC potential correction       :          25.88659690 Ha         704.41014160 eV
  | Free-atom electrostatic energy:        -132.20495504 Ha       -3597.47986433 eV
  | Hartree energy correction     :           0.50983831 Ha          13.87340618 eV
  | Entropy correction            :          -0.00003184 Ha          -0.00086654 eV
  | ---------------------------
  | Total energy                  :        -289.22548842 Ha       -7870.22597255 eV
  | Total energy, T -> 0          :        -289.22552026 Ha       -7870.22683908 eV  <-- do not rely on this value for anything but (periodic) metals
  | Electronic free energy        :        -289.22555211 Ha       -7870.22770562 eV

  Derived energy quantities:
  | Kinetic energy                :         289.33067700 Ha        7873.08829961 eV
  | Electrostatic energy          :        -558.96408658 Ha      -15210.18668173 eV
  | Energy correction for multipole
  | error in Hartree potential    :           0.00025752 Ha           0.00700761 eV
  | Sum of eigenvalues per atom                           :       -4457.90206556 eV
  | Total energy (T->0) per atom                          :       -7870.22683908 eV  <-- do not rely on this value for anything but (periodic) metals
  | Electronic free energy per atom                       :       -7870.22770562 eV

  Self-consistency convergence accuracy:
  | Change of charge density      :  0.2260E-02
  | Change of sum of eigenvalues  :  0.8549E+00 eV
  | Change of total energy        :  0.1438E-03 eV

  End self-consistency iteration #     6       :  max(cpu_time)    wall_clock(cpu1)
  | Time for this iteration                    :        0.357 s           0.357 s
  | Charge density update                      :        0.093 s           0.093 s
  | Density mixing & preconditioning           :        0.010 s           0.010 s
  | Hartree multipole update                   :        0.000 s           0.000 s
  | Hartree multipole summation                :        0.104 s           0.104 s
  | Integration                                :        0.055 s           0.055 s
  | Solution of K.-S. eqns.                    :        0.094 s           0.094 s
  | Total energy evaluation                    :        0.000 s           0.000 s

  Partial memory accounting:
  | Current value for overall tracked memory usage on task 0  :           2.606 MB
  | Peak value for overall tracked memory usage on task 0     :           3.409 MB after allocating wave
  | Largest tracked array allocation on task 0 so far         :           2.500 MB  when allocating +KS_eigenvector_complex
  Note:  These values currently only include a subset of arrays which are explicitly tracked.
  The "true" memory usage will be greater.
------------------------------------------------------------

------------------------------------------------------------
          Begin self-consistency iteration #    7

  Date     :  20190514, Time     :  123701.087
------------------------------------------------------------
  Evaluating new KS density using the density matrix
  Evaluating density matrix
  Time summed over all CPUs for getting density from density matrix: real work        0.085 s, elapsed        0.085 s
  Integration grid: deviation in total charge (<rho> - N_e) =  -2.646772E-13
  Pulay mixing of updated and previous charge densities.

  Evaluating partitioned Hartree potential by multipole expansion.
  | Analytical far-field extrapolation by fixed multipoles:
  | Hartree multipole sum: apparent total charge =  -0.170444E-02
  Summing up the Hartree potential.
  Time summed over all CPUs for potential: real work        0.105 s, elapsed        0.105 s
  | RMS charge density error from multipole expansion :   0.204191E-02
  | Average real-space part of the electrostatic potential :     -0.33800820 eV

  Integrating Hamiltonian matrix: batch-based integration.
  Time summed over all CPUs for integration: real work        0.058 s, elapsed        0.058 s

  Updating Kohn-Sham eigenvalues, eigenvectors, occupation numbers, and Fermi level.
  Solving generalized eigenproblem

  Obtaining occupation numbers and chemical potential using ELSI.
  | Chemical potential (Fermi level):    -4.73083722eV
  What follows are estimated values for band gap, HOMO, LUMO, etc.
  | They are estimated on a discrete k-point grid and not necessarily exact.
  | For converged numbers, create a DOS and/or band structure plot on a denser k-grid.

  Highest occupied state (VBM) at     -4.74576324 eV (relative to internal zero)
  | Occupation number:      1.32710036
  | K-point:     218 at    0.166667    0.250000    0.916667 (in units of recip. lattice)

  Lowest unoccupied state (CBM) at    -4.71704633 eV (relative to internal zero)
  | Occupation number:      0.69648831
  | K-point:     320 at    0.250000    0.250000    0.250000 (in units of recip. lattice)

  ESTIMATED overall HOMO-LUMO gap:      0.02871692 eV between HOMO at k-point 218 and LUMO at k-point 320
  | This appears to be an indirect band gap.
  | Smallest direct gap :      0.68552306 eV for k_point 580 at    0.250000    0.250000    0.250000 (in units of recip. lattice)
  However, this system has fractional occupation numbers. Since we use a finite k-point grid,
  this material is metallic within the approximate finite broadening function (occupation_type)
  applied to determine the occupation numbers.

  Total energy components:
  | Sum of eigenvalues            :        -163.83472499 Ha       -4458.16969628 eV
  | XC energy correction          :         -19.59139368 Ha        -533.10894627 eV
  | XC potential correction       :          25.88569554 Ha         704.38561443 eV
  | Free-atom electrostatic energy:        -132.20495504 Ha       -3597.47986433 eV
  | Hartree energy correction     :           0.51989017 Ha          14.14693136 eV
  | Entropy correction            :          -0.00003185 Ha          -0.00086669 eV
  | ---------------------------
  | Total energy                  :        -289.22548800 Ha       -7870.22596109 eV
  | Total energy, T -> 0          :        -289.22551985 Ha       -7870.22682778 eV  <-- do not rely on this value for anything but (periodic) metals
  | Electronic free energy        :        -289.22555170 Ha       -7870.22769447 eV

  Derived energy quantities:
  | Kinetic energy                :         289.32733823 Ha        7872.99744707 eV
  | Electrostatic energy          :        -558.96143255 Ha      -15210.11446188 eV
  | Energy correction for multipole
  | error in Hartree potential    :           0.00026190 Ha           0.00712673 eV
  | Sum of eigenvalues per atom                           :       -4458.16969628 eV
  | Total energy (T->0) per atom                          :       -7870.22682778 eV  <-- do not rely on this value for anything but (periodic) metals
  | Electronic free energy per atom                       :       -7870.22769447 eV

  Self-consistency convergence accuracy:
  | Change of charge density      :  0.2430E-03
  | Change of sum of eigenvalues  : -0.2676E+00 eV
  | Change of total energy        :  0.1146E-04 eV

  End self-consistency iteration #     7       :  max(cpu_time)    wall_clock(cpu1)
  | Time for this iteration                    :        0.361 s           0.361 s
  | Charge density update                      :        0.093 s           0.093 s
  | Density mixing & preconditioning           :        0.010 s           0.010 s
  | Hartree multipole update                   :        0.000 s           0.000 s
  | Hartree multipole summation                :        0.107 s           0.107 s
  | Integration                                :        0.058 s           0.058 s
  | Solution of K.-S. eqns.                    :        0.092 s           0.093 s
  | Total energy evaluation                    :        0.000 s           0.000 s

  Partial memory accounting:
  | Current value for overall tracked memory usage on task 0  :           2.606 MB
  | Peak value for overall tracked memory usage on task 0     :           3.409 MB after allocating wave
  | Largest tracked array allocation on task 0 so far         :           2.500 MB  when allocating +KS_eigenvector_complex
  Note:  These values currently only include a subset of arrays which are explicitly tracked.
  The "true" memory usage will be greater.
------------------------------------------------------------

------------------------------------------------------------
          Begin self-consistency iteration #    8

  Date     :  20190514, Time     :  123701.448
------------------------------------------------------------
  Evaluating new KS density using the density matrix
  Evaluating density matrix
  Time summed over all CPUs for getting density from density matrix: real work        0.085 s, elapsed        0.085 s
  Integration grid: deviation in total charge (<rho> - N_e) =  -2.415845E-13
  Pulay mixing of updated and previous charge densities.

  Evaluating partitioned Hartree potential by multipole expansion.
  | Analytical far-field extrapolation by fixed multipoles:
  | Hartree multipole sum: apparent total charge =   0.222955E-03
  Summing up the Hartree potential.
  Time summed over all CPUs for potential: real work        0.105 s, elapsed        0.105 s
  | RMS charge density error from multipole expansion :   0.200243E-02
  | Average real-space part of the electrostatic potential :     -0.33849447 eV

  Integrating Hamiltonian matrix: batch-based integration.
  Time summed over all CPUs for integration: real work        0.057 s, elapsed        0.057 s

  Updating Kohn-Sham eigenvalues, eigenvectors, occupation numbers, and Fermi level.
  Solving generalized eigenproblem

  Obtaining occupation numbers and chemical potential using ELSI.
  | Chemical potential (Fermi level):    -4.72387316eV
  What follows are estimated values for band gap, HOMO, LUMO, etc.
  | They are estimated on a discrete k-point grid and not necessarily exact.
  | For converged numbers, create a DOS and/or band structure plot on a denser k-grid.

  Highest occupied state (VBM) at     -4.73866526 eV (relative to internal zero)
  | Occupation number:      1.32433331
  | K-point:     113 at    0.083333    0.333333    0.250000 (in units of recip. lattice)

  Lowest unoccupied state (CBM) at    -4.71003308 eV (relative to internal zero)
  | Occupation number:      0.69545970
  | K-point:      26 at    0.000000    0.250000    0.000000 (in units of recip. lattice)

  ESTIMATED overall HOMO-LUMO gap:      0.02863218 eV between HOMO at k-point 113 and LUMO at k-point 26
  | This appears to be an indirect band gap.
  | Smallest direct gap :      0.68603082 eV for k_point 743 at    0.000000    0.250000    0.000000 (in units of recip. lattice)
  However, this system has fractional occupation numbers. Since we use a finite k-point grid,
  this material is metallic within the approximate finite broadening function (occupation_type)
  applied to determine the occupation numbers.

  Total energy components:
  | Sum of eigenvalues            :        -163.82359341 Ha       -4457.86679049 eV
  | XC energy correction          :         -19.59183047 Ha        -533.12083209 eV
  | XC potential correction       :          25.88627731 Ha         704.40144522 eV
  | Free-atom electrostatic energy:        -132.20495504 Ha       -3597.47986433 eV
  | Hartree energy correction     :           0.50861345 Ha          13.84007607 eV
  | Entropy correction            :          -0.00003185 Ha          -0.00086668 eV
  | ---------------------------
  | Total energy                  :        -289.22548816 Ha       -7870.22596563 eV
  | Total energy, T -> 0          :        -289.22552001 Ha       -7870.22683231 eV  <-- do not rely on this value for anything but (periodic) metals
  | Electronic free energy        :        -289.22555186 Ha       -7870.22769899 eV

  Derived energy quantities:
  | Kinetic energy                :         289.33264519 Ha        7873.14185669 eV
  | Electrostatic energy          :        -558.96630288 Ha      -15210.24699023 eV
  | Energy correction for multipole
  | error in Hartree potential    :           0.00025709 Ha           0.00699588 eV
  | Sum of eigenvalues per atom                           :       -4457.86679049 eV
  | Total energy (T->0) per atom                          :       -7870.22683231 eV  <-- do not rely on this value for anything but (periodic) metals
  | Electronic free energy per atom                       :       -7870.22769899 eV

  Self-consistency convergence accuracy:
  | Change of charge density      :  0.7506E-03
  | Change of sum of eigenvalues  :  0.3029E+00 eV
  | Change of total energy        : -0.4540E-05 eV

  End self-consistency iteration #     8       :  max(cpu_time)    wall_clock(cpu1)
  | Time for this iteration                    :        0.361 s           0.361 s
  | Charge density update                      :        0.093 s           0.093 s
  | Density mixing & preconditioning           :        0.010 s           0.010 s
  | Hartree multipole update                   :        0.000 s           0.001 s
  | Hartree multipole summation                :        0.106 s           0.106 s
  | Integration                                :        0.056 s           0.057 s
  | Solution of K.-S. eqns.                    :        0.094 s           0.094 s
  | Total energy evaluation                    :        0.000 s           0.000 s

  Partial memory accounting:
  | Current value for overall tracked memory usage on task 0  :           2.607 MB
  | Peak value for overall tracked memory usage on task 0     :           3.409 MB after allocating wave
  | Largest tracked array allocation on task 0 so far         :           2.500 MB  when allocating +KS_eigenvector_complex
  Note:  These values currently only include a subset of arrays which are explicitly tracked.
  The "true" memory usage will be greater.
------------------------------------------------------------

------------------------------------------------------------
          Begin self-consistency iteration #    9

  Date     :  20190514, Time     :  123701.809
------------------------------------------------------------
  Evaluating new KS density using the density matrix
  Evaluating density matrix
  Time summed over all CPUs for getting density from density matrix: real work        0.084 s, elapsed        0.084 s
  Integration grid: deviation in total charge (<rho> - N_e) =  -3.712586E-13
  Pulay mixing of updated and previous charge densities.

  Evaluating partitioned Hartree potential by multipole expansion.
  | Analytical far-field extrapolation by fixed multipoles:
  | Hartree multipole sum: apparent total charge =   0.209729E-03
  Summing up the Hartree potential.
  Time summed over all CPUs for potential: real work        0.105 s, elapsed        0.105 s
  | RMS charge density error from multipole expansion :   0.200212E-02
  | Average real-space part of the electrostatic potential :     -0.33840948 eV

  Integrating Hamiltonian matrix: batch-based integration.
  Time summed over all CPUs for integration: real work        0.057 s, elapsed        0.057 s

  Updating Kohn-Sham eigenvalues, eigenvectors, occupation numbers, and Fermi level.
  Solving generalized eigenproblem

  Obtaining occupation numbers and chemical potential using ELSI.
  | Chemical potential (Fermi level):    -4.72380715eV
  What follows are estimated values for band gap, HOMO, LUMO, etc.
  | They are estimated on a discrete k-point grid and not necessarily exact.
  | For converged numbers, create a DOS and/or band structure plot on a denser k-grid.

  Highest occupied state (VBM) at     -4.73859735 eV (relative to internal zero)
  | Occupation number:      1.32429420
  | K-point:     113 at    0.083333    0.333333    0.250000 (in units of recip. lattice)

  Lowest unoccupied state (CBM) at    -4.70996655 eV (relative to internal zero)
  | Occupation number:      0.69544900
  | K-point:       3 at    0.000000    0.000000    0.250000 (in units of recip. lattice)

  ESTIMATED overall HOMO-LUMO gap:      0.02863080 eV between HOMO at k-point 113 and LUMO at k-point 3
  | This appears to be an indirect band gap.
  | Smallest direct gap :      0.68604138 eV for k_point 469 at    0.000000    0.000000    0.250000 (in units of recip. lattice)
  However, this system has fractional occupation numbers. Since we use a finite k-point grid,
  this material is metallic within the approximate finite broadening function (occupation_type)
  applied to determine the occupation numbers.

  Total energy components:
  | Sum of eigenvalues            :        -163.82341126 Ha       -4457.86183390 eV
  | XC energy correction          :         -19.59184891 Ha        -533.12133369 eV
  | XC potential correction       :          25.88630161 Ha         704.40210630 eV
  | Free-atom electrostatic energy:        -132.20495504 Ha       -3597.47986433 eV
  | Hartree energy correction     :           0.50842543 Ha          13.83495994 eV
  | Entropy correction            :          -0.00003185 Ha          -0.00086668 eV
  | ---------------------------
  | Total energy                  :        -289.22548817 Ha       -7870.22596567 eV
  | Total energy, T -> 0          :        -289.22552002 Ha       -7870.22683235 eV  <-- do not rely on this value for anything but (periodic) metals
  | Electronic free energy        :        -289.22555187 Ha       -7870.22769903 eV

  Derived energy quantities:
  | Kinetic energy                :         289.33280304 Ha        7873.14615190 eV
  | Electrostatic energy          :        -558.96644229 Ha      -15210.25078388 eV
  | Energy correction for multipole
  | error in Hartree potential    :           0.00025709 Ha           0.00699569 eV
  | Sum of eigenvalues per atom                           :       -4457.86183390 eV
[...]
  | Hartree multipole update                   :        0.000 s           0.000 s
  | Hartree multipole summation                :        0.106 s           0.106 s
  | Integration                                :        0.056 s           0.056 s
  | Solution of K.-S. eqns.                    :        0.095 s           0.095 s
  | Total energy evaluation                    :        0.000 s           0.000 s

  Partial memory accounting:
  | Current value for overall tracked memory usage on task 0  :           2.607 MB
  | Peak value for overall tracked memory usage on task 0     :           3.409 MB after allocating wave
  | Largest tracked array allocation on task 0 so far         :           2.500 MB  when allocating +KS_eigenvector_complex
  Note:  These values currently only include a subset of arrays which are explicitly tracked.
  The "true" memory usage will be greater.
------------------------------------------------------------

------------------------------------------------------------
          Begin self-consistency iteration #   11

  Date     :  20190514, Time     :  123702.531
------------------------------------------------------------
  Evaluating new KS density using the density matrix
  Evaluating density matrix
  Time summed over all CPUs for getting density from density matrix: real work        0.084 s, elapsed        0.084 s
  Integration grid: deviation in total charge (<rho> - N_e) =  -3.055334E-13
  Pulay mixing of updated and previous charge densities.

  Evaluating partitioned Hartree potential by multipole expansion.
  | Analytical far-field extrapolation by fixed multipoles:
  | Hartree multipole sum: apparent total charge =   0.187348E-03
  Summing up the Hartree potential.
  Time summed over all CPUs for potential: real work        0.104 s, elapsed        0.104 s
  | RMS charge density error from multipole expansion :   0.199910E-02
  | Average real-space part of the electrostatic potential :     -0.33786709 eV

  Integrating Hamiltonian matrix: batch-based integration.
  Time summed over all CPUs for integration: real work        0.058 s, elapsed        0.058 s

  Updating Kohn-Sham eigenvalues, eigenvectors, occupation numbers, and Fermi level.
  Solving generalized eigenproblem

  Obtaining occupation numbers and chemical potential using ELSI.
  | Chemical potential (Fermi level):    -4.72330507eV
  What follows are estimated values for band gap, HOMO, LUMO, etc.
  | They are estimated on a discrete k-point grid and not necessarily exact.
  | For converged numbers, create a DOS and/or band structure plot on a denser k-grid.

  Highest occupied state (VBM) at     -4.73808307 eV (relative to internal zero)
  | Occupation number:      1.32404193
  | K-point:     317 at    0.250000    0.166667    0.916667 (in units of recip. lattice)

  Lowest unoccupied state (CBM) at    -4.70946090 eV (relative to internal zero)
  | Occupation number:      0.69537431
  | K-point:     291 at    0.250000    0.000000    0.000000 (in units of recip. lattice)

  ESTIMATED overall HOMO-LUMO gap:      0.02862217 eV between HOMO at k-point 317 and LUMO at k-point 291
  | This appears to be an indirect band gap.
  | Smallest direct gap :      0.68609578 eV for k_point 590 at    0.250000    0.000000    0.000000 (in units of recip. lattice)
  However, this system has fractional occupation numbers. Since we use a finite k-point grid,
  this material is metallic within the approximate finite broadening function (occupation_type)
  applied to determine the occupation numbers.

  Total energy components:
  | Sum of eigenvalues            :        -163.82245943 Ha       -4457.83593324 eV
  | XC energy correction          :         -19.59193303 Ha        -533.12362266 eV
  | XC potential correction       :          25.88641235 Ha         704.40511977 eV
  | Free-atom electrostatic energy:        -132.20495504 Ha       -3597.47986433 eV
  | Hartree energy correction     :           0.50744689 Ha          13.80833233 eV
  | Entropy correction            :          -0.00003185 Ha          -0.00086667 eV
  | ---------------------------
  | Total energy                  :        -289.22548826 Ha       -7870.22596813 eV
  | Total energy, T -> 0          :        -289.22552011 Ha       -7870.22683480 eV  <-- do not rely on this value for anything but (periodic) metals
  | Electronic free energy        :        -289.22555195 Ha       -7870.22770147 eV

  Derived energy quantities:
  | Kinetic energy                :         289.33336069 Ha        7873.16132633 eV
  | Electrostatic energy          :        -558.96691592 Ha      -15210.26367181 eV
  | Energy correction for multipole
  | error in Hartree potential    :           0.00025674 Ha           0.00698614 eV
  | Sum of eigenvalues per atom                           :       -4457.83593324 eV
  | Total energy (T->0) per atom                          :       -7870.22683480 eV  <-- do not rely on this value for anything but (periodic) metals
  | Electronic free energy per atom                       :       -7870.22770147 eV

  Self-consistency convergence accuracy:
  | Change of charge density      :  0.6120E-05
  | Change of sum of eigenvalues  : -0.2557E-02 eV
  | Change of total energy        :  0.3835E-06 eV

  End self-consistency iteration #    11       :  max(cpu_time)    wall_clock(cpu1)
  | Time for this iteration                    :        0.360 s           0.360 s
  | Charge density update                      :        0.092 s           0.092 s
  | Density mixing & preconditioning           :        0.010 s           0.010 s
  | Hartree multipole update                   :        0.000 s           0.000 s
  | Hartree multipole summation                :        0.105 s           0.106 s
  | Integration                                :        0.059 s           0.058 s
  | Solution of K.-S. eqns.                    :        0.094 s           0.094 s
  | Total energy evaluation                    :        0.000 s           0.000 s

  Partial memory accounting:
  | Current value for overall tracked memory usage on task 0  :           2.607 MB
  | Peak value for overall tracked memory usage on task 0     :           3.409 MB after allocating wave
  | Largest tracked array allocation on task 0 so far         :           2.500 MB  when allocating +KS_eigenvector_complex
  Note:  These values currently only include a subset of arrays which are explicitly tracked.
  The "true" memory usage will be greater.
------------------------------------------------------------

------------------------------------------------------------
          Begin self-consistency iteration #   12

  Date     :  20190514, Time     :  123702.891
------------------------------------------------------------
  Evaluating new KS density using the density matrix
  Evaluating density matrix
  Time summed over all CPUs for getting density from density matrix: real work        0.085 s, elapsed        0.085 s
  Integration grid: deviation in total charge (<rho> - N_e) =  -3.215206E-13
  Pulay mixing of updated and previous charge densities.

  Evaluating partitioned Hartree potential by multipole expansion.
  | Analytical far-field extrapolation by fixed multipoles:
  | Hartree multipole sum: apparent total charge =   0.187721E-03
  Summing up the Hartree potential.
  Time summed over all CPUs for potential: real work        0.104 s, elapsed        0.104 s
  | RMS charge density error from multipole expansion :   0.199911E-02
  | Average real-space part of the electrostatic potential :     -0.33786967 eV

  Integrating Hamiltonian matrix: batch-based integration.
  Time summed over all CPUs for integration: real work        0.055 s, elapsed        0.055 s

  Updating Kohn-Sham eigenvalues, eigenvectors, occupation numbers, and Fermi level.
  Solving generalized eigenproblem

  Obtaining occupation numbers and chemical potential using ELSI.
  | Chemical potential (Fermi level):    -4.72330598eV
  What follows are estimated values for band gap, HOMO, LUMO, etc.
  | They are estimated on a discrete k-point grid and not necessarily exact.
  | For converged numbers, create a DOS and/or band structure plot on a denser k-grid.

  Highest occupied state (VBM) at     -4.73808402 eV (relative to internal zero)
  | Occupation number:      1.32404257
  | K-point:     317 at    0.250000    0.166667    0.916667 (in units of recip. lattice)

  Lowest unoccupied state (CBM) at    -4.70946182 eV (relative to internal zero)
  | Occupation number:      0.69537450
  | K-point:      26 at    0.000000    0.250000    0.000000 (in units of recip. lattice)

  ESTIMATED overall HOMO-LUMO gap:      0.02862219 eV between HOMO at k-point 317 and LUMO at k-point 26
  | This appears to be an indirect band gap.
  | Smallest direct gap :      0.68609569 eV for k_point 531 at    0.000000    0.250000    0.000000 (in units of recip. lattice)
  However, this system has fractional occupation numbers. Since we use a finite k-point grid,
  this material is metallic within the approximate finite broadening function (occupation_type)
  applied to determine the occupation numbers.

  Total energy components:
  | Sum of eigenvalues            :        -163.82246190 Ha       -4457.83600050 eV
  | XC energy correction          :         -19.59193266 Ha        -533.12361280 eV
  | XC potential correction       :          25.88641187 Ha         704.40510679 eV
  | Free-atom electrostatic energy:        -132.20495504 Ha       -3597.47986433 eV
  | Hartree energy correction     :           0.50744947 Ha          13.80840272 eV
  | Entropy correction            :          -0.00003185 Ha          -0.00086667 eV
  | ---------------------------
  | Total energy                  :        -289.22548826 Ha       -7870.22596812 eV
  | Total energy, T -> 0          :        -289.22552010 Ha       -7870.22683479 eV  <-- do not rely on this value for anything but (periodic) metals
  | Electronic free energy        :        -289.22555195 Ha       -7870.22770146 eV

  Derived energy quantities:
  | Kinetic energy                :         289.33335770 Ha        7873.16124499 eV
  | Electrostatic energy          :        -558.96691329 Ha      -15210.26360031 eV
  | Energy correction for multipole
  | error in Hartree potential    :           0.00025674 Ha           0.00698618 eV
  | Sum of eigenvalues per atom                           :       -4457.83600050 eV
  | Total energy (T->0) per atom                          :       -7870.22683479 eV  <-- do not rely on this value for anything but (periodic) metals
  | Electronic free energy per atom                       :       -7870.22770146 eV

  Self-consistency convergence accuracy:
  | Change of charge density      :  0.2806E-06
  | Change of sum of eigenvalues  : -0.6726E-04 eV
  | Change of total energy        :  0.9731E-08 eV

  Preliminary charge convergence reached. Turning off preconditioner.

  Writing Kohn-Sham eigenvalues.
  K-point:       1 at    0.000000    0.000000    0.000000 (in units of recip. lattice)

  State    Occupation    Eigenvalue [Ha]    Eigenvalue [eV]
      1       2.00000         -65.541400        -1783.47222
      2       2.00000          -5.129737         -139.58725
      3       2.00000          -3.544612          -96.45379
      4       2.00000          -3.544612          -96.45379
      5       2.00000          -3.544612          -96.45379
      6       2.00000          -0.437175          -11.89613
      7       0.00000          -0.111058           -3.02203
      8       0.00000          -0.111058           -3.02203
      9       0.00000          -0.111058           -3.02203
     10       0.00000           0.040379            1.09878

  What follows are estimated values for band gap, HOMO, LUMO, etc.
  | They are estimated on a discrete k-point grid and not necessarily exact.
  | For converged numbers, create a DOS and/or band structure plot on a denser k-grid.

  Highest occupied state (VBM) at     -4.73808402 eV (relative to internal zero)
  | Occupation number:      1.32404257
  | K-point:     317 at    0.250000    0.166667    0.916667 (in units of recip. lattice)

  Lowest unoccupied state (CBM) at    -4.70946182 eV (relative to internal zero)
  | Occupation number:      0.69537450
  | K-point:      26 at    0.000000    0.250000    0.000000 (in units of recip. lattice)

  ESTIMATED overall HOMO-LUMO gap:      0.02862219 eV between HOMO at k-point 317 and LUMO at k-point 26
  | This appears to be an indirect band gap.
  | Smallest direct gap :      0.68609569 eV for k_point 531 at    0.000000    0.250000    0.000000 (in units of recip. lattice)
  However, this system has fractional occupation numbers. Since we use a finite k-point grid,
  this material is metallic within the approximate finite broadening function (occupation_type)
  applied to determine the occupation numbers.

  Self-consistency cycle converged.

  End self-consistency iteration #    12       :  max(cpu_time)    wall_clock(cpu1)
  | Time for this iteration                    :        0.357 s           0.358 s
  | Charge density update                      :        0.094 s           0.094 s
  | Density mixing                             :        0.010 s           0.010 s
  | Hartree multipole update                   :        0.000 s           0.000 s
  | Hartree multipole summation                :        0.106 s           0.106 s
  | Integration                                :        0.055 s           0.055 s
  | Solution of K.-S. eqns.                    :        0.092 s           0.092 s
  | Total energy evaluation                    :        0.000 s           0.000 s

  Partial memory accounting:
  | Current value for overall tracked memory usage on task 0  :           2.607 MB
  | Peak value for overall tracked memory usage on task 0     :           3.409 MB after allocating wave
  | Largest tracked array allocation on task 0 so far         :           2.500 MB  when allocating +KS_eigenvector_complex
  Note:  These values currently only include a subset of arrays which are explicitly tracked.
  The "true" memory usage will be greater.
------------------------------------------------------------

  Energy and forces in a compact form:
  | Total energy uncorrected      :         -0.787022596812049E+04 eV
  | Total energy corrected        :         -0.787022683478896E+04 eV  <-- do not rely on this value for anything but (periodic) metals
  | Electronic free energy        :         -0.787022770145742E+04 eV

  ------------------------------------ 
  Start decomposition of the XC Energy 
  ------------------------------------ 
  X and C from original XC functional choice 
  Hartree-Fock Energy :          0.000000000 Ha              0.000000000 eV
  X Energy            :        -18.541136625 Ha           -504.529997770 eV
  C Energy            :         -1.050796038 Ha            -28.593615028 eV
  Total XC Energy     :        -19.591932663 Ha           -533.123612799 eV
  ------------------------------------ 
  LDA X and C from self-consistent density 
  X Energy LDA        :        -18.541136625 Ha           -504.529997770 eV
  C Energy LDA        :         -1.050796038 Ha            -28.593615028 eV
  ------------------------------------ 
  End decomposition of the XC Energy 
  ------------------------------------ 

------------------------------------------------------------

------------------------------------------------------------------------------
  Final output of selected total energy values:

  The following output summarizes some interesting total energy values
  at the end of a run (AFTER all relaxation, molecular dynamics, etc.).

  | Total energy of the DFT / Hartree-Fock s.c.f. calculation      :          -7870.225968120 eV
  | Final zero-broadening corrected energy (caution - metals only) :          -7870.226834789 eV
  | For reference only, the value of 1 Hartree used in FHI-aims is :             27.211384500 eV

  Before relying on these values, please be sure to understand exactly which
  total energy value is referred to by a given number. Different objects may
  all carry the same name 'total energy'. Definitions:

  Total energy of the DFT / Hartree-Fock s.c.f. calculation:
  | Note that this energy does not include ANY quantities calculated after the
  | s.c.f. cycle, in particular not ANY RPA, MP2, etc. many-body perturbation terms.

  Final zero-broadening corrected energy:
  | For metallic systems only, a broadening of the occupation numbers at the Fermi
  | level can be extrapolated back to zero broadening by an electron-gas inspired
  | formula. For all systems that are not real metals, this value can be
  | meaningless and should be avoided.

------------------------------------------------------------------------------
  Methods described in the following list of references were used in this FHI-aims run.
  If you publish the results, please make sure to cite these reference if they apply.
  FHI-aims is an academic code, and for our developers (often, Ph.D. students
  and postdocs), scientific credit in the community is essential.
  Thank you for helping us!

  For any use of FHI-aims, please cite:

    Volker Blum, Ralf Gehrke, Felix Hanke, Paula Havu, Ville Havu,
    Xinguo Ren, Karsten Reuter, and Matthias Scheffler
    'Ab initio molecular simulations with numeric atom-centered orbitals'
    Computer Physics Communications 180, 2175-2196 (2009)
    http://dx.doi.org/10.1016/j.cpc.2009.06.022


  For the real-space grid partitioning and parallelization used in this calculation, please cite:

    Ville Havu, Volker Blum, Paula Havu, and Matthias Scheffler,
    'Efficient O(N) integration for all-electron electronic structure calculation'
    'using numerically tabulated basis functions'
    Journal of Computational Physics 228, 8367-8379 (2009).
    http://dx.doi.org/10.1016/j.jcp.2009.08.008

  Of course, there are many other important community references, e.g., those cited in the
  above references. Our list is limited to references that describe implementations in the
  FHI-aims code. The reason is purely practical (length of this list) - please credit others as well.

------------------------------------------------------------
          Leaving FHI-aims.
          Date     :  20190514, Time     :  123703.253

          Computational steps:
          | Number of self-consistency cycles          :           12
          | Number of SCF (re)initializations          :            1

          Detailed time accounting                     :  max(cpu_time)    wall_clock(cpu1)
          | Total time                                 :        4.707 s           4.707 s
          | Preparation time                           :        0.093 s           0.094 s
          | Boundary condition initalization           :        0.028 s           0.028 s
          | Grid partitioning                          :        0.008 s           0.008 s
          | Preloading free-atom quantities on grid    :        0.001 s           0.001 s
          | Free-atom superposition energy             :        0.006 s           0.006 s
          | Total time for integrations                :        0.767 s           0.767 s
          | Total time for solution of K.-S. equations :        1.331 s           1.333 s
          | Total time for density update              :        1.119 s           1.121 s
          | Total time for mixing & preconditioning    :        0.122 s           0.122 s
          | Total time for Hartree multipole update    :        0.004 s           0.003 s
          | Total time for Hartree multipole sum       :        1.200 s           1.201 s
          | Total time for total energy evaluation     :        0.002 s           0.000 s
          | Total time for scaled ZORA corrections     :        0.000 s           0.000 s

 This is a stub MPI_ALLREDUCE call.
 You should not be here. Check your
 setting on the use_mpi variable, or
 link against true MPI-libraries.
