------------------------------------------------------------
          Invoking FHI-aims ...
          Version 171221_1
          Compiled on 2019/05/06 at 14:26:40 on host ffph0xx.

          When using FHI-aims, please cite the following reference:

          Volker Blum, Ralf Gehrke, Felix Hanke, Paula Havu,
          Ville Havu, Xinguo Ren, Karsten Reuter, and Matthias Scheffler,
          'Ab Initio Molecular Simulations with Numeric Atom-Centered Orbitals',
          Computer Physics Communications 180, 2175-2196 (2009)

          For any questions about FHI-aims, please visit the aimsclub website
          with its forums and wiki. Contributions to both the forums and the
          wiki are warmly encouraged - they are for you, and everyone is welcome there.

------------------------------------------------------------



  Date     :  20190514, Time     :  123620.185
  Time zero on CPU 1             :   0.820000000000000E-03  s.
  Internal wall clock time zero  :           327069380.185  s.

  FHI-aims created a unique identifier for this run for later identification
  aims_uuid : 2AB6C1C4-35B1-4678-A911-DB248EC98A71


  Performing system and environment tests:
  *** Environment variable OMP_NUM_THREADS is not set
  *** For performance reasons you might want to set it to 1
  | Stacksize not measured: no C compiler

  Obtaining array dimensions for all initial allocations:
  
  -----------------------------------------------------------------------
  Parsing control.in (first pass over file, find array dimensions only).
  The contents of control.in will be repeated verbatim below
  unless switched off by setting 'verbatim_writeout .false.' .
  in the first line of control.in .
  -----------------------------------------------------------------------
  
  #--- method ---
  xc pw-lda
  spin none
  relativistic atomic_zora scalar
  #---
  
  #--- k-grid settings ---
  k_grid 12 12 12
  #---
  
  
  
  
  
  
  
  
  
  
  
  #-------------------------------------------------------------------------------
  #--- Species defaults for Si
  #-------------------------------------------------------------------------------
  
  ################################################################################
  #
  #  FHI-aims code project
  #  VB, Fritz-Haber Institut, 2009
  #
  #  Suggested "light" defaults for Si atom (to be pasted into control.in file)
  #  Be sure to double-check any results obtained with these settings for post-processing,
  #  e.g., with the "tight" defaults and larger basis sets.
  #
  ################################################################################
    species        Si
  #     global species definitions
      nucleus             14
      mass                28.0855
  #
      l_hartree           4
  #
      cut_pot             3.5          1.5  1.0
      basis_dep_cutoff    1e-4
  #
      radial_base         42 5.0
      radial_multiplier   1
      angular_grids       specified
        division   0.5866   50
        division   0.9616  110
        division   1.2249  194
        division   1.3795  302
  #      division   1.4810  434
  #      division   1.5529  590
  #      division   1.6284  770
  #      division   1.7077  974
  #      division   2.4068 1202
  #      outer_grid   974
        outer_grid 302
  ################################################################################
  #
  #  Definition of "minimal" basis
  #
  ################################################################################
  #     valence basis states
      valence      3  s   2.
      valence      3  p   2.
  #     ion occupancy
      ion_occ      3  s   1.
      ion_occ      3  p   1.
  ################################################################################
  #
  #  Suggested additional basis functions. For production calculations,
  #  uncomment them one after another (the most important basis functions are
  #  listed first).
  #
  #  Constructed for dimers: 1.75 A, 2.0 A, 2.25 A, 2.75 A, 3.75 A
  #
  ################################################################################
  #  "First tier" - improvements: -571.96 meV to -37.03 meV
       hydro 3 d 4.2
       hydro 2 p 1.4
  #     hydro 4 f 6.2
       ionic 3 s auto
  #  "Second tier" - improvements: -16.76 meV to -3.03 meV
  #     hydro 3 d 9
  #     hydro 5 g 9.4
  #     hydro 4 p 4
  #     hydro 1 s 0.65
  #  "Third tier" - improvements: -3.89 meV to -0.60 meV
  #     ionic 3 d auto
  #     hydro 3 s 2.6
  #     hydro 4 f 8.4
  #     hydro 3 d 3.4
  #     hydro 3 p 7.8
  #  "Fourth tier" - improvements: -0.33 meV to -0.11 meV
  #     hydro 2 p 1.6
  #     hydro 5 g 10.8
  #     hydro 5 f 11.2
  #     hydro 3 d 1
  #     hydro 4 s 4.5
  #  Further basis functions that fell out of the optimization - noise
  #  level... < -0.08 meV
  #     hydro 4 d 6.6
  #     hydro 5 g 16.4
  #     hydro 4 d 9
  
  -----------------------------------------------------------------------
  Completed first pass over input file control.in .
  -----------------------------------------------------------------------
  
  
  -----------------------------------------------------------------------
  Parsing geometry.in (first pass over file, find array dimensions only).
  The contents of geometry.in will be repeated verbatim below
  unless switched off by setting 'verbatim_writeout .false.' .
  in the first line of geometry.in .
  -----------------------------------------------------------------------
  
  lattice_vector  -2.500000   2.500000   2.500000
  lattice_vector   2.500000  -2.500000   2.500000
  lattice_vector   2.500000   2.500000  -2.500000
  atom_frac   0.000000   0.000000   0.000000 Si
  
  -----------------------------------------------------------------------
  Completed first pass over input file geometry.in .
  -----------------------------------------------------------------------
  

  Basic array size parameters:
  | Number of species                 :        1
  | Number of atoms                   :        1
  | Number of lattice vectors         :        3
  | Max. basis fn. angular momentum   :        2
  | Max. atomic/ionic basis occupied n:        3
  | Max. number of basis fn. types    :        3
  | Max. radial fns per species/type  :        5
  | Max. logarithmic grid size        :     1346
  | Max. radial integration grid size :       42
  | Max. angular integration grid size:      302
  | Max. angular grid division number :        8
  | Radial grid for Hartree potential :     1346
  | Number of spin channels           :        1

------------------------------------------------------------
          Reading file control.in.
------------------------------------------------------------
  XC: Using Perdew-Wang parametrisation of Ceperley-Alder LDA.
  Spin treatment: No spin polarisation.
  Scalar relativistic treatment of kinetic energy: on-site free-atom approximation to ZORA.
  Found k-point grid:        12        12        12

  Reading configuration options for species Si                  .
  | Found nuclear charge :  14.0000
  | Found atomic mass :    28.085500000000000      amu
  | Found l_max for Hartree potential  :   4
  | Found cutoff potl. onset [A], width [A], scale factor :    3.50000    1.50000    1.00000
  | Threshold for basis-dependent cutoff potential is   0.100000E-03
  | Found data for basic radial integration grid :    42 points, outermost radius =    5.000 A
  | Found multiplier for basic radial grid :   1
  | Found angular grid specification: user-specified.
  | Specified grid contains     5 separate shells.
  | Check grid settings after all constraints further below.
  | Found free-atom valence shell :  3 s   2.000
  | Found free-atom valence shell :  3 p   2.000
  | Found free-ion valence shell :  3 s   1.000
  | Found free-ion valence shell :  3 p   1.000
  | Found hydrogenic basis function :  3 d   4.200
  | Found hydrogenic basis function :  2 p   1.400
  | Found ionic basis function :  3 s , default cutoff radius.
  Species Si                  : Missing cutoff potential type.
  Defaulting to exp(1/x)/(1-x)^2 type cutoff potential.
  Species Si: No 'logarithmic' tag. Using default grid for free atom:
  | Default logarithmic grid data [bohr] : 0.1000E-03 0.1000E+03 0.1012E+01
  | Will include ionic basis functions of  2.0-fold positive Si                   ion.
  Species Si: On-site basis accuracy parameter (for Gram-Schmidt orthonormalisation) not specified.
  Using default value basis_acc =  0.1000000E-03.
  Species Si                  : Using default innermost maximum threshold i_radial=  2 for radial functions.
  Species Si                  : Default cutoff onset for free atom density etc. : 0.35000000E+01 AA.
  Species Si                  : Basic radial grid will be enhanced according to radial_multiplier =   1, to contain    42 grid points.

  Finished reading input file 'control.in'. Consistency checks are next.

  MPI_IN_PLACE appears to work with this MPI implementation.
  | Keeping use_mpi_in_place .true. (see manual).
  Target number of points in a grid batch is not set. Defaulting to  100
  Method for grid partitioning is not set. Defaulting to 'maxmin' partitioning.
  Batch size limit is not set. Defaulting to    200
  By default, will store active basis functions for each batch.
  If in need of memory, prune_basis_once .false. can be used to disable this option.
  communication_type for Hartree potential was not specified.
  Defaulting to calc_hartree .
 * Attention: 
 * You may want to set distributed_spline_storage to .true. in order to save memory.
 * This doesn't harm performance and is perfectly ok unless:
 * - you get error messages in postprocessing (about missing atoms in get_rho_multipole_spl)
 * - you need full spline storage in hirshfeld_analysis
  Defaulting to Pulay charge density mixer.
  Pulay mixer: Number of relevant iterations not set.
  Defaulting to    8 iterations.
  Pulay mixer: Number of initial linear mixing iterations not set.
  Defaulting to    0 iterations.
  Work space size for distributed Hartree potential not set.
  Defaulting to   0.200000E+03 MB.
  Mixing parameter for charge density mixing has not been set.
  Using default: charge_mix_param =     0.0500.
  The mixing parameter will be adjusted in iteration number     2 of the first full s.c.f. cycle only.
  Algorithm-dependent basis array size parameters:
  | n_max_pulay                         :        8
 * Notice: The s.c.f. convergence criterion sc_accuracy_rho was not provided.
 * We used to stop in this case, and ask the user to provide reasonable
 * scf convergence criteria. However, this led some users to employ criteria
 * that led to extremely long run times, e.g., for simple relaxation.
 * We now preset a default value for sc_accuracy_rho if it is not set.
 * You may still wish to check if this setting is too tight or too loose for your needs.
 * Based on n_atoms, FHI-aims chose sc_accuracy_rho =  0.100000E-05 .
  Maximum number of self-consistency iterations not provided.
  Presetting  1000 iterations.
  Presetting      1001 iterations before the initial mixing cycle
  is restarted anyway using the sc_init_iter criterion / keyword.
  Presetting a factor      1.000 between actual scf density residual
  and density convergence criterion sc_accuracy_rho below which sc_init_iter
  takes no effect.
 * No s.c.f. convergence criteria (sc_accuracy_*) were provided in control.in.
 * The run will proceed with a reasonable default guess, but please check whether.
 * the s.c.f. cycles seem to take too much or too little time.
  Calculation of forces was not defined in control.in. No forces will be calculated.
  Geometry relaxation not requested: no relaxation will be performed.
  No accuracy limit for integral partition fn. given. Defaulting to  0.1000E-14.
  No threshold value for u(r) in integrations given. Defaulting to  0.1000E-05.
  No occupation type (smearing scheme) given. Defaulting to Gaussian broadening, width =  0.1000E-01 eV.
  The width will be adjusted in iteration number     2 of the first full s.c.f. cycle only.
  S.C.F. convergence parameters will be adjusted in iteration number     2 of the first full s.c.f. cycle only.
  No accuracy for occupation numbers given. Defaulting to  0.1000E-12.
  No threshold value for occupation numbers given. Defaulting to  0.0000E+00.
  No accuracy for fermi level given. Defaulting to  0.1000E-19.
  Maximum # of iterations to find E_F not set. Defaulting to  200.
  Preferred method for the eigenvalue solver ('KS_method') not specified in 'control.in'.
  Defaulting to serial version, 'lapack_fast'.
  Will not use alltoall communication since running on < 1024 CPUs.
  Threshold for basis singularities not set.
  Default threshold for basis singularities:  0.1000E-04
  partition_type (choice of integration weights) for integrals was not specified.
  | Using a version of the partition function of Stratmann and coworkers ('stratmann_smoother').
  | At each grid point, the set of atoms used to build the partition table is smoothly restricted to
  | only those atoms whose free-atom density would be non-zero at that grid point.
  Partitioning for Hartree potential was not defined. Using partition_type for integrals.
  | Adjusted default value of keyword multip_moments_threshold to:       0.10000000E-11
  | This value may affect high angular momentum components of the Hartree potential in periodic systems.
  Angular momentum expansion for Kerker preconditioner not set explicitly.
  | Using default value of   0
  No explicit requirement for turning off preconditioner.
  | By default, it will be turned off when the charge convergence reaches
  | sc_accuracy_rho  =   0.100000E-05
  No special mixing parameter while Kerker preconditioner is on.
  Using default: charge_mix_param =     0.0500.
  No q(lm)/r^(l+1) cutoff set for long-range Hartree potential.
  | Using default value of  0.100000E-09 .
  | Verify using the multipole_threshold keyword.
  Defaulting to new monopole extrapolation.
  Density update method: automatic selection selected.
  Using density matrix based charge density update.
  Using density matrix based charge density update.
  Using packed matrix style: index .
  Defaulting to use time-reversal symmetry for k-point grid.
------------------------------------------------------------


------------------------------------------------------------
          Reading geometry description geometry.in.
------------------------------------------------------------
  Input structure read successfully.
  The structure contains        1 atoms,  and a total of         14.000 electrons.

  Input geometry:
  | Unit cell:
  |       -2.50000000        2.50000000        2.50000000
  |        2.50000000       -2.50000000        2.50000000
  |        2.50000000        2.50000000       -2.50000000
  | Atomic structure:
  |       Atom                x [A]            y [A]            z [A]
  |    1: Species Si            0.00000000        0.00000000        0.00000000

  Lattice parameters for 3D lattice (in Angstroms) :     4.330127    4.330127    4.330127
  Angle(s) between unit vectors (in degrees)      :   109.471221  109.471221  109.471221

  |

  | The smallest distance between any two atoms is         4.33012702 AA.
  |
  | The first atom of this pair is atom number                      1 .
  | The second atom of this pair is atom number                     1 .
  | Wigner-Seitz cell of the first atom image           0     0     1 .
  | (The Wigner-Seitz cell of the second atom is 0 0 0  by definition.)

  Quantities derived from the lattice vectors:
  | Reciprocal lattice vector 1: -0.000000  1.256637  1.256637
  | Reciprocal lattice vector 2:  1.256637  0.000000  1.256637
  | Reciprocal lattice vector 3:  1.256637  1.256637  0.000000
  | Unit cell volume                               :   0.625000E+02  A^3

  Range separation radius for Ewald summation (hartree_convergence_parameter):      5.00000000 bohr.

  Fractional coordinates:
                         L1                L2                L3
       atom_frac         0.00000000        0.00000000        0.00000000  Si

  Number of empty states per atom not set in control.in - providing a guess from actual geometry.
  | Total number of empty states used during s.c.f. cycle:        3
  If you use a very high smearing, use empty_states (per atom!) in control.in to increase this value.

  Structure-dependent array size parameters: 
  | Maximum number of distinct radial functions  :        8
  | Maximum number of basis functions            :       18
  | Number of Kohn-Sham states (occupied + empty):       10
------------------------------------------------------------

------------------------------------------------------------
          Preparing all fixed parts of the calculation.
------------------------------------------------------------
  Determining machine precision:
     2.2250738585072014E-308
  Setting up grids for atomic and cluster calculations.

  Creating wave function, potential, and density for free atoms.

  Species: Si

  List of occupied orbitals and eigenvalues:
    n    l              occ      energy [Ha]    energy [eV]
    1    0           2.0000       -65.491668     -1782.1190
    2    0           2.0000        -5.087967      -138.4506
    3    0           2.0000        -0.391471       -10.6525
    2    1           6.0000        -3.502246       -95.3010
    3    1           2.0000        -0.143943        -3.9169

  Creating fixed part of basis set: Ionic, confined, hydrogenic.

  Si                   ion:

  List of free ionic orbitals and eigenvalues:
    n    l      energy [Ha]    energy [eV]
    1    0       -66.364436     -1805.8682
    2    0        -5.935799      -161.5213
    3    0        -1.078166       -29.3384
    2    1        -4.351123      -118.4001
    3    1        -0.781733       -21.2720


  List of ionic basis orbitals and eigenvalues:
    n    l      energy [Ha]    energy [eV]    outer radius [A]
    3    0        -1.078146       -29.3378       4.214062


  Si                   hydrogenic:

  List of hydrogenic basis orbitals: 
    n    l      effective z      eigenvalue [eV]  inner max. [A]     outer max. [A]     outer radius [A]   
    3    2         4.200000       -26.6624           1.139231           1.139231           4.534782
    2    1         1.400000        -6.4613           1.472672           1.472672           4.590560


  Adding cutoff potential to free-atom effective potential.
  Creating atomic-like basis functions for current effective potential.

  Species Si                  :

  List of atomic basis orbitals and eigenvalues:
    n    l      energy [Ha]    energy [eV]    outer radius [A]
    1    0       -65.491668     -1782.1190       0.789468
    2    0        -5.087967      -138.4506       2.815114
    3    0        -0.391471       -10.6525       4.534782
    2    1        -3.502246       -95.3010       3.259919
    3    1        -0.143943        -3.9169       4.590560

  Assembling full basis from fixed parts.
  | Species Si :   atomic orbital   1 s accepted.
  | Species Si :   atomic orbital   2 s accepted.
  | Species Si :    ionic orbital   3 s accepted.
  | Species Si :   atomic orbital   3 s accepted.
  | Species Si :   atomic orbital   2 p accepted.
  | Species Si :   atomic orbital   3 p accepted.
  | Species Si :    hydro orbital   2 p accepted.
  | Species Si :    hydro orbital   3 d accepted.

  Basis size parameters after reduction:
  | Total number of radial functions:        8
  | Total number of basis functions :       18

  Per-task memory consumption for arrays in subroutine allocate_ext:
  |           2.757468MB.
  Testing on-site integration grid accuracy.
  |  Species  Function  <phi|h_atom|phi> (log., in eV)  <phi|h_atom|phi> (rad., in eV)
           1        1              -1782.1189727076              -1782.1182429251
           1        2               -138.4506350693               -138.4506310079
           1        3                -10.3030408815                -10.3029120678
           1        4                  5.0238999146                  4.9457540310 ***
           1        5                -95.3009689499                -95.3009689315
           1        6                 -3.9266496564                 -3.9420918374
           1        7                  6.3453628447                  6.1632372158 ***
           1        8                  6.2883050744                  6.2861881409
 * Note: Onsite integrals marked "***" above are less accurate than
 * onsite_accuracy_threshold =    0.03000 eV. Usually, this is harmless.
 * When in doubt, tighten the "radial" and/or "radial_multiplier" flags to check.

  Preparing densities etc. for the partition functions (integrals / Hartree potential).

  Preparations completed.
  max(cpu_time)          :      0.103 s.
  Wall clock time (cpu1) :      0.102 s.
------------------------------------------------------------

------------------------------------------------------------
          Begin self-consistency loop: Initialization.

          Date     :  20190514, Time     :  123620.289
------------------------------------------------------------

  Initializing index lists of integration centers etc. from given atomic structure:
  Mapping all atomic coordinates to central unit cell.

  Initializing the k-points
          Using symmetry for reducing the k-points
  | k-points reduced from:     1728 to      868
  | Number of k-points                             :       868
  The eigenvectors in the calculations are COMPLEX.
  | K-points in task   0:       868
  | Number of basis functions in the Hamiltonian integrals :       430
  | Number of basis functions in a single unit cell        :        18
  | Number of centers in hartree potential         :       331
  | Number of centers in hartree multipole         :        65
  | Number of centers in electron density summation:        59
  | Number of centers in basis integrals           :        59
  | Number of centers in integrals                 :        27
  | Number of centers in hamiltonian               :        59
  | Consuming        813 KiB for k_phase.
  | Number of super-cells (origin) [n_cells]                     :        2197
  | Number of super-cells (after PM_index) [n_cells]             :          60
  | Number of super-cells in hamiltonian [n_cells_in_hamiltonian]:          60
  | Size of matrix packed + index [n_hamiltonian_matrix_size] :        7148
  Partitioning the integration grid into batches with maxmin method.
  | Maximal weight for a single point:     1.000
  | Minimal weight for a single point:     0.535
  | Number of batches:       64
  | Maximal batch size:      90
  | Minimal batch size:      85
  | Average batch size:      87.562
  | Standard deviation of batch sizes:       1.499
  Initializing partition tables, free-atom densities, potentials, etc. across the integration grid (initialize_grid_storage).
  | initialize_grid_storage: Actual outermost partition radius vs. multipole_radius_free
  | (-- VB: in principle, multipole_radius_free should be larger, hence this output)
  | Species        1: Confinement radius =              4.999999999999999 AA, multipole_radius_free =              5.000694715736543 AA.
  | Species        1: outer_partition_radius set to              5.000694715736543 AA .
  | Original list of interatomic distances with          59 x         59 entries is created.
  | Net number of integration points:     5604
  | of which are non-zero points    :     5342
  | Numerical average free-atom electrostatic potential    :     -4.20901295 eV
  Renormalizing the initial density to the exact electron count on the 3D integration grid.
  | Initial density: Formal number of electrons (from input files) :      14.0000000000
  | Integrated number of electrons on 3D grid     :      13.9998695387
  | Charge integration error                      :      -0.0001304613
  | Normalization factor for density and gradient :       1.0000093187
  Obtaining max. number of non-zero basis functions in each batch (get_n_compute_maxes).
  | Maximal number of non-zero basis functions:      194 in task     0
  Allocating        2.500 MB for KS_eigenvector_complex
  Integrating Hamiltonian matrix: batch-based integration.
  Time summed over all CPUs for integration: real work        0.053 s, elapsed        0.053 s
  Integrating overlap matrix.
  Time summed over all CPUs for integration: real work        0.035 s, elapsed        0.035 s
  Decreasing sparse matrix size:
   Tolerance:   9.9999998245167004E-014
   Hamiltonian matrix
  | Array has     5423 nonzero elements out of     7148 elements
  | Sparsity factor is 0.241
   Overlap matrix
  | Array has     5333 nonzero elements out of     7148 elements
  | Sparsity factor is 0.254
  New size of hamiltonian matrix:        5562

  Updating Kohn-Sham eigenvalues, eigenvectors, occupation numbers, and Fermi level.
  Solving generalized eigenproblem
  Transforming overlap matrix and checking for singularities.
  Overlap matrix is nonsingular at first k-point:
  | Lowest eigenvalue:  0.103371E+00

  Obtaining occupation numbers and chemical potential using ELSI.
  | Chemical potential (Fermi level):    -4.38675156eV
  Writing Kohn-Sham eigenvalues.
  K-point:       1 at    0.000000    0.000000    0.000000 (in units of recip. lattice)

  State    Occupation    Eigenvalue [Ha]    Eigenvalue [eV]
      1       2.00000         -65.491685        -1782.11941
      2       2.00000          -5.087973         -138.45080
      3       2.00000          -3.502253          -95.30115
      4       2.00000          -3.502253          -95.30115
      5       2.00000          -3.502253          -95.30115
      6       2.00000          -0.422396          -11.49399
      7       0.00000          -0.095921           -2.61016
      8       0.00000          -0.095921           -2.61016
      9       0.00000          -0.095921           -2.61016
     10       0.00000           0.050521            1.37475

  What follows are estimated values for band gap, HOMO, LUMO, etc.
  | They are estimated on a discrete k-point grid and not necessarily exact.
  | For converged numbers, create a DOS and/or band structure plot on a denser k-grid.

  Highest occupied state (VBM) at     -4.39417286 eV (relative to internal zero)
  | Occupation number:      1.70606541
  | K-point:     460 at    0.333333    0.500000    0.833333 (in units of recip. lattice)

  Lowest unoccupied state (CBM) at    -4.38087943 eV (relative to internal zero)
  | Occupation number:      0.40628689
  | K-point:     672 at    0.500000    0.500000    0.583333 (in units of recip. lattice)

  ESTIMATED overall HOMO-LUMO gap:      0.01329343 eV between HOMO at k-point 460 and LUMO at k-point 672
  | This appears to be an indirect band gap.
  | Smallest direct gap :      0.03467718 eV for k_point 566 at    0.500000    0.500000    0.583333 (in units of recip. lattice)
  However, this system has fractional occupation numbers. Since we use a finite k-point grid,
  this material is metallic within the approximate finite broadening function (occupation_type)
  applied to determine the occupation numbers.
  Calculating total energy contributions from superposition of free atom densities.

  Total energy components:
  | Sum of eigenvalues            :        -163.33036957 Ha       -4444.44548695 eV
  | XC energy correction          :         -19.63501229 Ha        -534.29586900 eV
  | XC potential correction       :          25.94305977 Ha         705.94657444 eV
  | Free-atom electrostatic energy:        -132.20477218 Ha       -3597.47488847 eV
  | Hartree energy correction     :          -0.00000000 Ha          -0.00000000 eV
  | Entropy correction            :          -0.00000138 Ha          -0.00003763 eV
  | ---------------------------
  | Total energy                  :        -289.22709427 Ha       -7870.26966998 eV
  | Total energy, T -> 0          :        -289.22709565 Ha       -7870.26970760 eV  <-- do not rely on this value for anything but (periodic) metals
  | Electronic free energy        :        -289.22709703 Ha       -7870.26974523 eV

  Derived energy quantities:
  | Kinetic energy                :         289.55174721 Ha        7879.10392610 eV
  | Electrostatic energy          :        -559.14382920 Ha      -15215.07772708 eV
  | Energy correction for multipole
  | error in Hartree potential    :           0.00000000 Ha           0.00000000 eV
  | Sum of eigenvalues per atom                           :       -4444.44548695 eV
  | Total energy (T->0) per atom                          :       -7870.26970760 eV  <-- do not rely on this value for anything but (periodic) metals
  | Electronic free energy per atom                       :       -7870.26974523 eV
  Initialize hartree_potential_storage
  Max. number of atoms included in rho_multipole:            1

  End scf initialization - timings             :  max(cpu_time)    wall_clock(cpu1)
  | Time for scf. initialization               :        0.377 s           0.377 s
  | Boundary condition initialization          :        0.038 s           0.039 s
  | Integration                                :        0.088 s           0.088 s
  | Solution of K.-S. eqns.                    :        0.217 s           0.217 s
  | Grid partitioning                          :        0.007 s           0.007 s
  | Preloading free-atom quantities on grid    :        0.001 s           0.001 s
  | Free-atom superposition energy             :        0.007 s           0.007 s
  | Total energy evaluation                    :        0.000 s           0.000 s

  Partial memory accounting:
  | Current value for overall tracked memory usage on task 0  :           2.611 MB
  | Peak value for overall tracked memory usage on task 0     :           3.363 MB after allocating wave
  | Largest tracked array allocation on task 0 so far         :           2.500 MB  when allocating +KS_eigenvector_complex
  Note:  These values currently only include a subset of arrays which are explicitly tracked.
  The "true" memory usage will be greater.
------------------------------------------------------------

------------------------------------------------------------
          Begin self-consistency iteration #    1

  Date     :  20190514, Time     :  123620.666
------------------------------------------------------------
  Evaluating new KS density using the density matrix
  Evaluating density matrix
  Time summed over all CPUs for getting density from density matrix: real work        0.082 s, elapsed        0.082 s
  Integration grid: deviation in total charge (<rho> - N_e) =  -3.304024E-13
  Pulay mixing of updated and previous charge densities.

  Evaluating partitioned Hartree potential by multipole expansion.
  | Analytical far-field extrapolation by fixed multipoles:
  | Hartree multipole sum: apparent total charge =  -0.301729E-03
  Summing up the Hartree potential.
  | Estimated reciprocal-space cutoff momentum G_max:         1.84432723 bohr^-1 .
  | Reciprocal lattice points for long-range Hartree potential:      42
  Time summed over all CPUs for potential: real work        0.096 s, elapsed        0.096 s
  | RMS charge density error from multipole expansion :   0.494066E-04
  | Average real-space part of the electrostatic potential :     -0.01221129 eV

  Integrating Hamiltonian matrix: batch-based integration.
  Time summed over all CPUs for integration: real work        0.052 s, elapsed        0.052 s

  Updating Kohn-Sham eigenvalues, eigenvectors, occupation numbers, and Fermi level.
  Solving generalized eigenproblem

  Obtaining occupation numbers and chemical potential using ELSI.
  | Chemical potential (Fermi level):    -4.40037065eV
  Writing Kohn-Sham eigenvalues.
  K-point:       1 at    0.000000    0.000000    0.000000 (in units of recip. lattice)

  State    Occupation    Eigenvalue [Ha]    Eigenvalue [eV]
      1       2.00000         -65.494101        -1782.18516
      2       2.00000          -5.089863         -138.50222
      3       2.00000          -3.504186          -95.35376
      4       2.00000          -3.504186          -95.35376
      5       2.00000          -3.504186          -95.35376
      6       2.00000          -0.423038          -11.51144
      7       0.00000          -0.096566           -2.62769
      8       0.00000          -0.096566           -2.62769
      9       0.00000          -0.096566           -2.62769
     10       0.00000           0.049952            1.35926

  What follows are estimated values for band gap, HOMO, LUMO, etc.
  | They are estimated on a discrete k-point grid and not necessarily exact.
  | For converged numbers, create a DOS and/or band structure plot on a denser k-grid.

  Highest occupied state (VBM) at     -4.40761070 eV (relative to internal zero)
  | Occupation number:      1.69411617
  | K-point:     456 at    0.333333    0.500000    0.333333 (in units of recip. lattice)

  Lowest unoccupied state (CBM) at    -4.39475750 eV (relative to internal zero)
  | Occupation number:      0.42729994
  | K-point:     565 at    0.416667    0.500000    0.500000 (in units of recip. lattice)

  ESTIMATED overall HOMO-LUMO gap:      0.01285320 eV between HOMO at k-point 456 and LUMO at k-point 565
  | This appears to be an indirect band gap.
  | Smallest direct gap :      0.03461224 eV for k_point 565 at    0.416667    0.500000    0.500000 (in units of recip. lattice)
  However, this system has fractional occupation numbers. Since we use a finite k-point grid,
  this material is metallic within the approximate finite broadening function (occupation_type)
  applied to determine the occupation numbers.

  Total energy components:
  | Sum of eigenvalues            :        -163.35294178 Ha       -4445.05970805 eV
  | XC energy correction          :         -19.63282626 Ha        -534.23638411 eV
  | XC potential correction       :          25.94017999 Ha         705.86821159 eV
  | Free-atom electrostatic energy:        -132.20477218 Ha       -3597.47488847 eV
  | Hartree energy correction     :           0.02340292 Ha           0.63682597 eV
  | Entropy correction            :          -0.00000143 Ha          -0.00003885 eV
  | ---------------------------
  | Total energy                  :        -289.22695731 Ha       -7870.26594307 eV
  | Total energy, T -> 0          :        -289.22695874 Ha       -7870.26598192 eV  <-- do not rely on this value for anything but (periodic) metals
  | Electronic free energy        :        -289.22696016 Ha       -7870.26602077 eV

  Derived energy quantities:
  | Kinetic energy                :         289.53964171 Ha        7878.77451853 eV
  | Electrostatic energy          :        -559.13377276 Ha      -15214.80407749 eV
  | Energy correction for multipole
  | error in Hartree potential    :           0.00000558 Ha           0.00015185 eV
  | Sum of eigenvalues per atom                           :       -4445.05970805 eV
  | Total energy (T->0) per atom                          :       -7870.26598192 eV  <-- do not rely on this value for anything but (periodic) metals
  | Electronic free energy per atom                       :       -7870.26602077 eV

  Self-consistency convergence accuracy:
  | Change of charge density      :  0.3173E-01
  | Change of sum of eigenvalues  : -0.6142E+00 eV
  | Change of total energy        :  0.3727E-02 eV

  End self-consistency iteration #     1       :  max(cpu_time)    wall_clock(cpu1)
  | Time for this iteration                    :        0.350 s           0.350 s
  | Charge density update                      :        0.092 s           0.092 s
  | Density mixing & preconditioning           :        0.011 s           0.011 s
  | Hartree multipole update                   :        0.000 s           0.000 s
  | Hartree multipole summation                :        0.098 s           0.098 s
  | Integration                                :        0.052 s           0.052 s
  | Solution of K.-S. eqns.                    :        0.097 s           0.097 s
  | Total energy evaluation                    :        0.000 s           0.000 s

  Partial memory accounting:
  | Current value for overall tracked memory usage on task 0  :           2.611 MB
  | Peak value for overall tracked memory usage on task 0     :           3.363 MB after allocating wave
  | Largest tracked array allocation on task 0 so far         :           2.500 MB  when allocating +KS_eigenvector_complex
  Note:  These values currently only include a subset of arrays which are explicitly tracked.
  The "true" memory usage will be greater.
------------------------------------------------------------

------------------------------------------------------------
          Begin self-consistency iteration #    2

  Date     :  20190514, Time     :  123621.017
------------------------------------------------------------
  Evaluating new KS density using the density matrix
  Evaluating density matrix
  Time summed over all CPUs for getting density from density matrix: real work        0.081 s, elapsed        0.081 s
  Integration grid: deviation in total charge (<rho> - N_e) =  -4.050094E-13
  Pulay mixing of updated and previous charge densities.

  Evaluating partitioned Hartree potential by multipole expansion.
  | Analytical far-field extrapolation by fixed multipoles:
  | Hartree multipole sum: apparent total charge =  -0.350129E-02
  Summing up the Hartree potential.
  Time summed over all CPUs for potential: real work        0.117 s, elapsed        0.117 s
  | RMS charge density error from multipole expansion :   0.966619E-03
  | Average real-space part of the electrostatic potential :     -0.25004203 eV

  Integrating Hamiltonian matrix: batch-based integration.
  Time summed over all CPUs for integration: real work        0.052 s, elapsed        0.052 s

  Updating Kohn-Sham eigenvalues, eigenvectors, occupation numbers, and Fermi level.
  Solving generalized eigenproblem

  Obtaining occupation numbers and chemical potential using ELSI.
  | Chemical potential (Fermi level):    -4.65657650eV
  What follows are estimated values for band gap, HOMO, LUMO, etc.
  | They are estimated on a discrete k-point grid and not necessarily exact.
  | For converged numbers, create a DOS and/or band structure plot on a denser k-grid.

  Highest occupied state (VBM) at     -4.65996708 eV (relative to internal zero)
  | Occupation number:      1.36841688
  | K-point:     243 at    0.166667    0.500000    0.666667 (in units of recip. lattice)

  Lowest unoccupied state (CBM) at    -4.65595545 eV (relative to internal zero)
  | Occupation number:      0.93001203
  | K-point:     565 at    0.416667    0.500000    0.500000 (in units of recip. lattice)

  ESTIMATED overall HOMO-LUMO gap:      0.00401163 eV between HOMO at k-point 243 and LUMO at k-point 565
  | This appears to be an indirect band gap.
  | Smallest direct gap :      0.03343620 eV for k_point 663 at    0.416667    0.500000    0.500000 (in units of recip. lattice)
  However, this system has fractional occupation numbers. Since we use a finite k-point grid,
  this material is metallic within the approximate finite broadening function (occupation_type)
  applied to determine the occupation numbers.

  Checking to see if s.c.f. parameters should be adjusted.
  Adjusted the Pulay mixing parameter (charge_mix_param) for an expected low-gap system. New value:   0.020000 .
  Adjusted the occupation broadening width for an expected low-gap system. New value:      0.05000000 eV.

  Total energy components:
  | Sum of eigenvalues            :        -163.80032149 Ha       -4457.23352923 eV
  | XC energy correction          :         -19.59359345 Ha        -533.16880522 eV
  | XC potential correction       :          25.88849246 Ha         704.46172245 eV
  | Free-atom electrostatic energy:        -132.20477218 Ha       -3597.47488847 eV
  | Hartree energy correction     :           0.48476061 Ha          13.19100725 eV
  | Entropy correction            :          -0.00005351 Ha          -0.00145607 eV
  | ---------------------------
  | Total energy                  :        -289.22543405 Ha       -7870.22449323 eV
  | Total energy, T -> 0          :        -289.22548756 Ha       -7870.22594930 eV  <-- do not rely on this value for anything but (periodic) metals
  | Electronic free energy        :        -289.22554107 Ha       -7870.22740537 eV

  Derived energy quantities:
  | Kinetic energy                :         289.24687698 Ha        7870.80798505 eV
  | Electrostatic energy          :        -558.87871758 Ha      -15207.86367306 eV
  | Energy correction for multipole
  | error in Hartree potential    :           0.00012387 Ha           0.00337063 eV
  | Sum of eigenvalues per atom                           :       -4457.23352923 eV
  | Total energy (T->0) per atom                          :       -7870.22594930 eV  <-- do not rely on this value for anything but (periodic) metals
  | Electronic free energy per atom                       :       -7870.22740537 eV

  Self-consistency convergence accuracy:
  | Change of charge density      :  0.3020E-01
  | Change of sum of eigenvalues  : -0.1217E+02 eV
  | Change of total energy        :  0.4145E-01 eV

  End self-consistency iteration #     2       :  max(cpu_time)    wall_clock(cpu1)
  | Time for this iteration                    :        0.371 s           0.370 s
  | Charge density update                      :        0.091 s           0.090 s
  | Density mixing & preconditioning           :        0.012 s           0.012 s
  | Hartree multipole update                   :        0.000 s           0.000 s
  | Hartree multipole summation                :        0.119 s           0.119 s
  | Integration                                :        0.051 s           0.052 s
  | Solution of K.-S. eqns.                    :        0.097 s           0.097 s
  | Total energy evaluation                    :        0.000 s           0.000 s

  Partial memory accounting:
  | Current value for overall tracked memory usage on task 0  :           2.612 MB
  | Peak value for overall tracked memory usage on task 0     :           3.363 MB after allocating wave
  | Largest tracked array allocation on task 0 so far         :           2.500 MB  when allocating +KS_eigenvector_complex
  Note:  These values currently only include a subset of arrays which are explicitly tracked.
  The "true" memory usage will be greater.
------------------------------------------------------------

------------------------------------------------------------
          Begin self-consistency iteration #    3

  Date     :  20190514, Time     :  123621.387
------------------------------------------------------------
  Evaluating new KS density using the density matrix
  Evaluating density matrix
  Time summed over all CPUs for getting density from density matrix: real work        0.082 s, elapsed        0.082 s
  Integration grid: deviation in total charge (<rho> - N_e) =  -3.517187E-13
  Pulay mixing of updated and previous charge densities.

  Evaluating partitioned Hartree potential by multipole expansion.
  | Analytical far-field extrapolation by fixed multipoles:
  | Hartree multipole sum: apparent total charge =  -0.300919E-02
  Summing up the Hartree potential.
  Time summed over all CPUs for potential: real work        0.116 s, elapsed        0.116 s
  | RMS charge density error from multipole expansion :   0.712414E-03
  | Average real-space part of the electrostatic potential :     -0.17119550 eV

  Integrating Hamiltonian matrix: batch-based integration.
  Time summed over all CPUs for integration: real work        0.052 s, elapsed        0.052 s

  Updating Kohn-Sham eigenvalues, eigenvectors, occupation numbers, and Fermi level.
  Solving generalized eigenproblem

  Obtaining occupation numbers and chemical potential using ELSI.
  | Chemical potential (Fermi level):    -4.57217554eV
  What follows are estimated values for band gap, HOMO, LUMO, etc.
  | They are estimated on a discrete k-point grid and not necessarily exact.
  | For converged numbers, create a DOS and/or band structure plot on a denser k-grid.

  Highest occupied state (VBM) at     -4.58933402 eV (relative to internal zero)
  | Occupation number:      1.37254717
  | K-point:     574 at    0.416667    0.583333    0.500000 (in units of recip. lattice)

  Lowest unoccupied state (CBM) at    -4.56348393 eV (relative to internal zero)
  | Occupation number:      0.80580924
  | K-point:     492 at    0.333333    0.833333    0.333333 (in units of recip. lattice)

  ESTIMATED overall HOMO-LUMO gap:      0.02585009 eV between HOMO at k-point 574 and LUMO at k-point 492
  | This appears to be an indirect band gap.
  | Smallest direct gap :      0.03389139 eV for k_point 574 at    0.333333    0.833333    0.333333 (in units of recip. lattice)
  However, this system has fractional occupation numbers. Since we use a finite k-point grid,
  this material is metallic within the approximate finite broadening function (occupation_type)
  applied to determine the occupation numbers.

  Total energy components:
  | Sum of eigenvalues            :        -163.57445990 Ha       -4451.08752283 eV
  | XC energy correction          :         -19.61474211 Ha        -533.74428942 eV
  | XC potential correction       :          25.91643283 Ha         705.22201862 eV
  | Free-atom electrostatic energy:        -132.20477218 Ha       -3597.47488847 eV
  | Hartree energy correction     :           0.25174501 Ha           6.85033027 eV
  | Entropy correction            :          -0.00004702 Ha          -0.00127941 eV
  | ---------------------------
  | Total energy                  :        -289.22579635 Ha       -7870.23435183 eV
  | Total energy, T -> 0          :        -289.22584337 Ha       -7870.23563124 eV  <-- do not rely on this value for anything but (periodic) metals
  | Electronic free energy        :        -289.22589039 Ha       -7870.23691066 eV

  Derived energy quantities:
  | Kinetic energy                :         289.48530402 Ha        7877.29591483 eV
  | Electrostatic energy          :        -559.09635826 Ha      -15213.78597724 eV
  | Energy correction for multipole
  | error in Hartree potential    :           0.00008395 Ha           0.00228434 eV
  | Sum of eigenvalues per atom                           :       -4451.08752283 eV
  | Total energy (T->0) per atom                          :       -7870.23563124 eV  <-- do not rely on this value for anything but (periodic) metals
  | Electronic free energy per atom                       :       -7870.23691066 eV

  Self-consistency convergence accuracy:
  | Change of charge density      :  0.8101E-02
  | Change of sum of eigenvalues  :  0.6146E+01 eV
  | Change of total energy        : -0.9859E-02 eV

  End self-consistency iteration #     3       :  max(cpu_time)    wall_clock(cpu1)
  | Time for this iteration                    :        0.369 s           0.369 s
  | Charge density update                      :        0.091 s           0.091 s
  | Density mixing & preconditioning           :        0.011 s           0.011 s
  | Hartree multipole update                   :        0.000 s           0.000 s
  | Hartree multipole summation                :        0.117 s           0.118 s
  | Integration                                :        0.052 s           0.052 s
  | Solution of K.-S. eqns.                    :        0.097 s           0.097 s
  | Total energy evaluation                    :        0.000 s           0.000 s

  Partial memory accounting:
  | Current value for overall tracked memory usage on task 0  :           2.613 MB
  | Peak value for overall tracked memory usage on task 0     :           3.363 MB after allocating wave
  | Largest tracked array allocation on task 0 so far         :           2.500 MB  when allocating +KS_eigenvector_complex
  Note:  These values currently only include a subset of arrays which are explicitly tracked.
  The "true" memory usage will be greater.
------------------------------------------------------------

------------------------------------------------------------
          Begin self-consistency iteration #    4

  Date     :  20190514, Time     :  123621.756
------------------------------------------------------------
  Evaluating new KS density using the density matrix
  Evaluating density matrix
  Time summed over all CPUs for getting density from density matrix: real work        0.083 s, elapsed        0.083 s
  Integration grid: deviation in total charge (<rho> - N_e) =  -3.215206E-13
  Pulay mixing of updated and previous charge densities.

  Evaluating partitioned Hartree potential by multipole expansion.
  | Analytical far-field extrapolation by fixed multipoles:
  | Hartree multipole sum: apparent total charge =  -0.513749E-02
  Summing up the Hartree potential.
  Time summed over all CPUs for potential: real work        0.121 s, elapsed        0.121 s
  | RMS charge density error from multipole expansion :   0.131545E-02
  | Average real-space part of the electrostatic potential :     -0.32792861 eV

  Integrating Hamiltonian matrix: batch-based integration.
  Time summed over all CPUs for integration: real work        0.052 s, elapsed        0.052 s

  Updating Kohn-Sham eigenvalues, eigenvectors, occupation numbers, and Fermi level.
  Solving generalized eigenproblem

  Obtaining occupation numbers and chemical potential using ELSI.
  | Chemical potential (Fermi level):    -4.73684508eV
  What follows are estimated values for band gap, HOMO, LUMO, etc.
  | They are estimated on a discrete k-point grid and not necessarily exact.
  | For converged numbers, create a DOS and/or band structure plot on a denser k-grid.

  Highest occupied state (VBM) at     -4.75716653 eV (relative to internal zero)
  | Occupation number:      1.43455819
  | K-point:     672 at    0.500000    0.500000    0.583333 (in units of recip. lattice)

  Lowest unoccupied state (CBM) at    -4.72617660 eV (relative to internal zero)
  | Occupation number:      0.76284252
  | K-point:     456 at    0.333333    0.500000    0.333333 (in units of recip. lattice)

  ESTIMATED overall HOMO-LUMO gap:      0.03098993 eV between HOMO at k-point 672 and LUMO at k-point 456
  | This appears to be an indirect band gap.
  | Smallest direct gap :      0.03316742 eV for k_point 672 at    0.333333    0.500000    0.333333 (in units of recip. lattice)
  However, this system has fractional occupation numbers. Since we use a finite k-point grid,
  this material is metallic within the approximate finite broadening function (occupation_type)
  applied to determine the occupation numbers.

  Total energy components:
  | Sum of eigenvalues            :        -163.85777543 Ha       -4458.79693062 eV
  | XC energy correction          :         -19.59060392 Ha        -533.08745574 eV
  | XC potential correction       :          25.88463729 Ha         704.35681801 eV
  | Free-atom electrostatic energy:        -132.20477218 Ha       -3597.47488847 eV
  | Hartree energy correction     :           0.54315288 Ha          14.77994193 eV
  | Entropy correction            :          -0.00005026 Ha          -0.00136772 eV
  | ---------------------------
  | Total energy                  :        -289.22536135 Ha       -7870.22251488 eV
  | Total energy, T -> 0          :        -289.22541161 Ha       -7870.22388260 eV  <-- do not rely on this value for anything but (periodic) metals
  | Electronic free energy        :        -289.22546188 Ha       -7870.22525031 eV

  Derived energy quantities:
  | Kinetic energy                :         289.31116079 Ha        7872.55723627 eV
  | Electrostatic energy          :        -558.94591822 Ha      -15209.69229541 eV
  | Energy correction for multipole
  | error in Hartree potential    :           0.00017305 Ha           0.00470893 eV
  | Sum of eigenvalues per atom                           :       -4458.79693062 eV
  | Total energy (T->0) per atom                          :       -7870.22388260 eV  <-- do not rely on this value for anything but (periodic) metals
  | Electronic free energy per atom                       :       -7870.22525031 eV

  Self-consistency convergence accuracy:
  | Change of charge density      :  0.1676E-01
  | Change of sum of eigenvalues  : -0.7709E+01 eV
  | Change of total energy        :  0.1184E-01 eV

  End self-consistency iteration #     4       :  max(cpu_time)    wall_clock(cpu1)
  | Time for this iteration                    :        0.378 s           0.379 s
  | Charge density update                      :        0.092 s           0.092 s
  | Density mixing & preconditioning           :        0.012 s           0.012 s
  | Hartree multipole update                   :        0.000 s           0.000 s
  | Hartree multipole summation                :        0.123 s           0.123 s
  | Integration                                :        0.053 s           0.052 s
  | Solution of K.-S. eqns.                    :        0.099 s           0.099 s
  | Total energy evaluation                    :        0.000 s           0.000 s

  Partial memory accounting:
  | Current value for overall tracked memory usage on task 0  :           2.613 MB
  | Peak value for overall tracked memory usage on task 0     :           3.363 MB after allocating wave
  | Largest tracked array allocation on task 0 so far         :           2.500 MB  when allocating +KS_eigenvector_complex
  Note:  These values currently only include a subset of arrays which are explicitly tracked.
  The "true" memory usage will be greater.
------------------------------------------------------------

------------------------------------------------------------
          Begin self-consistency iteration #    5

  Date     :  20190514, Time     :  123622.135
------------------------------------------------------------
  Evaluating new KS density using the density matrix
  Evaluating density matrix
  Time summed over all CPUs for getting density from density matrix: real work        0.082 s, elapsed        0.082 s
  Integration grid: deviation in total charge (<rho> - N_e) =  -3.428369E-13
  Pulay mixing of updated and previous charge densities.

  Evaluating partitioned Hartree potential by multipole expansion.
  | Analytical far-field extrapolation by fixed multipoles:
  | Hartree multipole sum: apparent total charge =  -0.600757E-02
  Summing up the Hartree potential.
  Time summed over all CPUs for potential: real work        0.122 s, elapsed        0.122 s
  | RMS charge density error from multipole expansion :   0.136825E-02
  | Average real-space part of the electrostatic potential :     -0.34028091 eV

  Integrating Hamiltonian matrix: batch-based integration.
  Time summed over all CPUs for integration: real work        0.052 s, elapsed        0.052 s

  Updating Kohn-Sham eigenvalues, eigenvectors, occupation numbers, and Fermi level.
  Solving generalized eigenproblem

  Obtaining occupation numbers and chemical potential using ELSI.
  | Chemical potential (Fermi level):    -4.75325998eV
  What follows are estimated values for band gap, HOMO, LUMO, etc.
  | They are estimated on a discrete k-point grid and not necessarily exact.
  | For converged numbers, create a DOS and/or band structure plot on a denser k-grid.

  Highest occupied state (VBM) at     -4.77394758 eV (relative to internal zero)
  | Occupation number:      1.44154223
  | K-point:     672 at    0.500000    0.500000    0.583333 (in units of recip. lattice)

  Lowest unoccupied state (CBM) at    -4.74243875 eV (relative to internal zero)
  | Occupation number:      0.75955091
  | K-point:     259 at    0.166667    0.666667    0.500000 (in units of recip. lattice)

  ESTIMATED overall HOMO-LUMO gap:      0.03150883 eV between HOMO at k-point 672 and LUMO at k-point 259
  | This appears to be an indirect band gap.
  | Smallest direct gap :      0.03309953 eV for k_point 574 at    0.166667    0.666667    0.500000 (in units of recip. lattice)
  However, this system has fractional occupation numbers. Since we use a finite k-point grid,
  this material is metallic within the approximate finite broadening function (occupation_type)
  applied to determine the occupation numbers.

  Total energy components:
  | Sum of eigenvalues            :        -163.88501856 Ha       -4459.53825376 eV
  | XC energy correction          :         -19.58861001 Ha        -533.03319878 eV
  | XC potential correction       :          25.88201010 Ha         704.28532859 eV
  | Free-atom electrostatic energy:        -132.20477218 Ha       -3597.47488847 eV
  | Hartree energy correction     :           0.57101593 Ha          15.53813389 eV
  | Entropy correction            :          -0.00005059 Ha          -0.00137664 eV
  | ---------------------------
  | Total energy                  :        -289.22537472 Ha       -7870.22287853 eV
  | Total energy, T -> 0          :        -289.22542531 Ha       -7870.22425517 eV  <-- do not rely on this value for anything but (periodic) metals
  | Electronic free energy        :        -289.22547590 Ha       -7870.22563181 eV

  Derived energy quantities:
  | Kinetic energy                :         289.29813251 Ha        7872.20271888 eV
  | Electrostatic energy          :        -558.93489722 Ha      -15209.39239863 eV
  | Energy correction for multipole
  | error in Hartree potential    :           0.00018086 Ha           0.00492143 eV
  | Sum of eigenvalues per atom                           :       -4459.53825376 eV
  | Total energy (T->0) per atom                          :       -7870.22425517 eV  <-- do not rely on this value for anything but (periodic) metals
  | Electronic free energy per atom                       :       -7870.22563181 eV

  Self-consistency convergence accuracy:
  | Change of charge density      :  0.2436E-02
  | Change of sum of eigenvalues  : -0.7413E+00 eV
  | Change of total energy        : -0.3636E-03 eV

  End self-consistency iteration #     5       :  max(cpu_time)    wall_clock(cpu1)
  | Time for this iteration                    :        0.376 s           0.376 s
  | Charge density update                      :        0.091 s           0.091 s
  | Density mixing & preconditioning           :        0.011 s           0.011 s
  | Hartree multipole update                   :        0.001 s           0.000 s
  | Hartree multipole summation                :        0.123 s           0.124 s
  | Integration                                :        0.052 s           0.052 s
  | Solution of K.-S. eqns.                    :        0.098 s           0.098 s
  | Total energy evaluation                    :        0.000 s           0.000 s

  Partial memory accounting:
  | Current value for overall tracked memory usage on task 0  :           2.613 MB
  | Peak value for overall tracked memory usage on task 0     :           3.363 MB after allocating wave
  | Largest tracked array allocation on task 0 so far         :           2.500 MB  when allocating +KS_eigenvector_complex
  Note:  These values currently only include a subset of arrays which are explicitly tracked.
  The "true" memory usage will be greater.
------------------------------------------------------------

------------------------------------------------------------
          Begin self-consistency iteration #    6

  Date     :  20190514, Time     :  123622.511
------------------------------------------------------------
  Evaluating new KS density using the density matrix
  Evaluating density matrix
  Time summed over all CPUs for getting density from density matrix: real work        0.081 s, elapsed        0.081 s
  Integration grid: deviation in total charge (<rho> - N_e) =  -2.167155E-13
  Pulay mixing of updated and previous charge densities.

  Evaluating partitioned Hartree potential by multipole expansion.
  | Analytical far-field extrapolation by fixed multipoles:
  | Hartree multipole sum: apparent total charge =  -0.178717E-02
  Summing up the Hartree potential.
  Time summed over all CPUs for potential: real work        0.121 s, elapsed        0.121 s
  | RMS charge density error from multipole expansion :   0.133849E-02
  | Average real-space part of the electrostatic potential :     -0.33503985 eV

  Integrating Hamiltonian matrix: batch-based integration.
  Time summed over all CPUs for integration: real work        0.051 s, elapsed        0.051 s

  Updating Kohn-Sham eigenvalues, eigenvectors, occupation numbers, and Fermi level.
  Solving generalized eigenproblem

  Obtaining occupation numbers and chemical potential using ELSI.
  | Chemical potential (Fermi level):    -4.72314230eV
  What follows are estimated values for band gap, HOMO, LUMO, etc.
  | They are estimated on a discrete k-point grid and not necessarily exact.
  | For converged numbers, create a DOS and/or band structure plot on a denser k-grid.

  Highest occupied state (VBM) at     -4.74297211 eV (relative to internal zero)
  | Occupation number:      1.42511510
  | K-point:     663 at    0.500000    0.416667    0.583333 (in units of recip. lattice)

  Lowest unoccupied state (CBM) at    -4.71253258 eV (relative to internal zero)
  | Occupation number:      0.76410991
  | K-point:     460 at    0.333333    0.500000    0.833333 (in units of recip. lattice)

  ESTIMATED overall HOMO-LUMO gap:      0.03043953 eV between HOMO at k-point 663 and LUMO at k-point 460
  | This appears to be an indirect band gap.
  | Smallest direct gap :      0.03321993 eV for k_point 663 at    0.333333    0.500000    0.833333 (in units of recip. lattice)
  However, this system has fractional occupation numbers. Since we use a finite k-point grid,
  this material is metallic within the approximate finite broadening function (occupation_type)
  applied to determine the occupation numbers.

  Total energy components:
  | Sum of eigenvalues            :        -163.82663438 Ha       -4457.94953941 eV
  | XC energy correction          :         -19.59218264 Ha        -533.13041504 eV
  | XC potential correction       :          25.88673833 Ha         704.41399009 eV
  | Free-atom electrostatic energy:        -132.20477218 Ha       -3597.47488847 eV
  | Hartree energy correction     :           0.51149428 Ha          13.91846760 eV
  | Entropy correction            :          -0.00004998 Ha          -0.00135998 eV
  | ---------------------------
  | Total energy                  :        -289.22535659 Ha       -7870.22238523 eV
  | Total energy, T -> 0          :        -289.22540657 Ha       -7870.22374522 eV  <-- do not rely on this value for anything but (periodic) metals
  | Electronic free energy        :        -289.22545654 Ha       -7870.22510520 eV

  Derived energy quantities:
  | Kinetic energy                :         289.33382585 Ha        7873.17398415 eV
  | Electrostatic energy          :        -558.96699980 Ha      -15210.26595435 eV
  | Energy correction for multipole
  | error in Hartree potential    :           0.00017699 Ha           0.00481616 eV
  | Sum of eigenvalues per atom                           :       -4457.94953941 eV
  | Total energy (T->0) per atom                          :       -7870.22374522 eV  <-- do not rely on this value for anything but (periodic) metals
  | Electronic free energy per atom                       :       -7870.22510520 eV

  Self-consistency convergence accuracy:
  | Change of charge density      :  0.4009E-02
  | Change of sum of eigenvalues  :  0.1589E+01 eV
  | Change of total energy        :  0.4933E-03 eV

  End self-consistency iteration #     6       :  max(cpu_time)    wall_clock(cpu1)
  | Time for this iteration                    :        0.375 s           0.375 s
  | Charge density update                      :        0.090 s           0.090 s
  | Density mixing & preconditioning           :        0.011 s           0.011 s
  | Hartree multipole update                   :        0.000 s           0.001 s
  | Hartree multipole summation                :        0.122 s           0.122 s
  | Integration                                :        0.051 s           0.051 s
  | Solution of K.-S. eqns.                    :        0.100 s           0.100 s
  | Total energy evaluation                    :        0.000 s           0.000 s

  Partial memory accounting:
  | Current value for overall tracked memory usage on task 0  :           2.614 MB
  | Peak value for overall tracked memory usage on task 0     :           3.363 MB after allocating wave
  | Largest tracked array allocation on task 0 so far         :           2.500 MB  when allocating +KS_eigenvector_complex
  Note:  These values currently only include a subset of arrays which are explicitly tracked.
  The "true" memory usage will be greater.
------------------------------------------------------------

------------------------------------------------------------
          Begin self-consistency iteration #    7

  Date     :  20190514, Time     :  123622.886
------------------------------------------------------------
  Evaluating new KS density using the density matrix
  Evaluating density matrix
  Time summed over all CPUs for getting density from density matrix: real work        0.082 s, elapsed        0.082 s
  Integration grid: deviation in total charge (<rho> - N_e) =  -3.250733E-13
  Pulay mixing of updated and previous charge densities.

  Evaluating partitioned Hartree potential by multipole expansion.
  | Analytical far-field extrapolation by fixed multipoles:
  | Hartree multipole sum: apparent total charge =  -0.189705E-02
  Summing up the Hartree potential.
  Time summed over all CPUs for potential: real work        0.121 s, elapsed        0.121 s
  | RMS charge density error from multipole expansion :   0.134025E-02
  | Average real-space part of the electrostatic potential :     -0.33621810 eV

  Integrating Hamiltonian matrix: batch-based integration.
  Time summed over all CPUs for integration: real work        0.052 s, elapsed        0.052 s

  Updating Kohn-Sham eigenvalues, eigenvectors, occupation numbers, and Fermi level.
  Solving generalized eigenproblem

  Obtaining occupation numbers and chemical potential using ELSI.
  | Chemical potential (Fermi level):    -4.72513876eV
  What follows are estimated values for band gap, HOMO, LUMO, etc.
  | They are estimated on a discrete k-point grid and not necessarily exact.
  | For converged numbers, create a DOS and/or band structure plot on a denser k-grid.

  Highest occupied state (VBM) at     -4.74502548 eV (relative to internal zero)
  | Occupation number:      1.42621209
  | K-point:     663 at    0.500000    0.416667    0.583333 (in units of recip. lattice)

  Lowest unoccupied state (CBM) at    -4.71451350 eV (relative to internal zero)
  | Occupation number:      0.76377475
  | K-point:     493 at    0.333333    0.833333    0.500000 (in units of recip. lattice)

  ESTIMATED overall HOMO-LUMO gap:      0.03051198 eV between HOMO at k-point 663 and LUMO at k-point 493
  | This appears to be an indirect band gap.
  | Smallest direct gap :      0.03321185 eV for k_point 663 at    0.333333    0.833333    0.500000 (in units of recip. lattice)
  However, this system has fractional occupation numbers. Since we use a finite k-point grid,
  this material is metallic within the approximate finite broadening function (occupation_type)
  applied to determine the occupation numbers.

  Total energy components:
  | Sum of eigenvalues            :        -163.83018608 Ha       -4458.04618601 eV
  | XC energy correction          :         -19.59193236 Ha        -533.12360449 eV
  | XC potential correction       :          25.88640831 Ha         704.40500982 eV
  | Free-atom electrostatic energy:        -132.20477218 Ha       -3597.47488847 eV
  | Hartree energy correction     :           0.51512578 Ha          14.01728556 eV
  | Entropy correction            :          -0.00005002 Ha          -0.00136111 eV
  | ---------------------------
  | Total energy                  :        -289.22535653 Ha       -7870.22238359 eV
  | Total energy, T -> 0          :        -289.22540655 Ha       -7870.22374470 eV  <-- do not rely on this value for anything but (periodic) metals
  | Electronic free energy        :        -289.22545657 Ha       -7870.22510580 eV

  Derived energy quantities:
  | Kinetic energy                :         289.33208406 Ha        7873.12658746 eV
  | Electrostatic energy          :        -558.96550823 Ha      -15210.22536656 eV
  | Energy correction for multipole
  | error in Hartree potential    :           0.00017738 Ha           0.00482686 eV
  | Sum of eigenvalues per atom                           :       -4458.04618601 eV
  | Total energy (T->0) per atom                          :       -7870.22374470 eV  <-- do not rely on this value for anything but (periodic) metals
  | Electronic free energy per atom                       :       -7870.22510580 eV

  Self-consistency convergence accuracy:
  | Change of charge density      :  0.2543E-03
  | Change of sum of eigenvalues  : -0.9665E-01 eV
  | Change of total energy        :  0.1644E-05 eV

  End self-consistency iteration #     7       :  max(cpu_time)    wall_clock(cpu1)
  | Time for this iteration                    :        0.377 s           0.378 s
  | Charge density update                      :        0.092 s           0.092 s
  | Density mixing & preconditioning           :        0.011 s           0.012 s
  | Hartree multipole update                   :        0.000 s           0.000 s
  | Hartree multipole summation                :        0.123 s           0.123 s
  | Integration                                :        0.052 s           0.053 s
  | Solution of K.-S. eqns.                    :        0.098 s           0.097 s
  | Total energy evaluation                    :        0.000 s           0.001 s

  Partial memory accounting:
  | Current value for overall tracked memory usage on task 0  :           2.614 MB
  | Peak value for overall tracked memory usage on task 0     :           3.363 MB after allocating wave
  | Largest tracked array allocation on task 0 so far         :           2.500 MB  when allocating +KS_eigenvector_complex
  Note:  These values currently only include a subset of arrays which are explicitly tracked.
  The "true" memory usage will be greater.
------------------------------------------------------------

------------------------------------------------------------
          Begin self-consistency iteration #    8

  Date     :  20190514, Time     :  123623.264
------------------------------------------------------------
  Evaluating new KS density using the density matrix
  Evaluating density matrix
  Time summed over all CPUs for getting density from density matrix: real work        0.081 s, elapsed        0.081 s
  Integration grid: deviation in total charge (<rho> - N_e) =  -3.552714E-13
  Pulay mixing of updated and previous charge densities.

  Evaluating partitioned Hartree potential by multipole expansion.
  | Analytical far-field extrapolation by fixed multipoles:
  | Hartree multipole sum: apparent total charge =  -0.268921E-03
  Summing up the Hartree potential.
  Time summed over all CPUs for potential: real work        0.120 s, elapsed        0.120 s
  | RMS charge density error from multipole expansion :   0.130865E-02
  | Average real-space part of the electrostatic potential :     -0.33761358 eV

  Integrating Hamiltonian matrix: batch-based integration.
  Time summed over all CPUs for integration: real work        0.053 s, elapsed        0.053 s

  Updating Kohn-Sham eigenvalues, eigenvectors, occupation numbers, and Fermi level.
  Solving generalized eigenproblem

  Obtaining occupation numbers and chemical potential using ELSI.
  | Chemical potential (Fermi level):    -4.72060743eV
  What follows are estimated values for band gap, HOMO, LUMO, etc.
  | They are estimated on a discrete k-point grid and not necessarily exact.
  | For converged numbers, create a DOS and/or band structure plot on a denser k-grid.

  Highest occupied state (VBM) at     -4.74047082 eV (relative to internal zero)
  | Occupation number:      1.42576234
  | K-point:     566 at    0.416667    0.500000    0.583333 (in units of recip. lattice)

  Lowest unoccupied state (CBM) at    -4.71003756 eV (relative to internal zero)
  | Occupation number:      0.76496966
  | K-point:     456 at    0.333333    0.500000    0.333333 (in units of recip. lattice)

  ESTIMATED overall HOMO-LUMO gap:      0.03043326 eV between HOMO at k-point 566 and LUMO at k-point 456
  | This appears to be an indirect band gap.
  | Smallest direct gap :      0.03323010 eV for k_point 566 at    0.333333    0.500000    0.333333 (in units of recip. lattice)
  However, this system has fractional occupation numbers. Since we use a finite k-point grid,
  this material is metallic within the approximate finite broadening function (occupation_type)
  applied to determine the occupation numbers.

  Total energy components:
  | Sum of eigenvalues            :        -163.82329931 Ha       -4457.85878763 eV
  | XC energy correction          :         -19.59208921 Ha        -533.12787260 eV
  | XC potential correction       :          25.88662005 Ha         704.41077149 eV
  | Free-atom electrostatic energy:        -132.20477218 Ha       -3597.47488847 eV
  | Hartree energy correction     :           0.50818377 Ha          13.82838390 eV
  | Entropy correction            :          -0.00004995 Ha          -0.00135921 eV
  | ---------------------------
  | Total energy                  :        -289.22535688 Ha       -7870.22239331 eV
  | Total energy, T -> 0          :        -289.22540683 Ha       -7870.22375252 eV  <-- do not rely on this value for anything but (periodic) metals
  | Electronic free energy        :        -289.22545678 Ha       -7870.22511172 eV

  Derived energy quantities:
  | Kinetic energy                :         289.33482954 Ha        7873.20129589 eV
  | Electrostatic energy          :        -558.96809722 Ha      -15210.29581660 eV
  | Energy correction for multipole
  | error in Hartree potential    :           0.00017347 Ha           0.00472044 eV
  | Sum of eigenvalues per atom                           :       -4457.85878763 eV
  | Total energy (T->0) per atom                          :       -7870.22375252 eV  <-- do not rely on this value for anything but (periodic) metals
  | Electronic free energy per atom                       :       -7870.22511172 eV

  Self-consistency convergence accuracy:
  | Change of charge density      :  0.4505E-03
  | Change of sum of eigenvalues  :  0.1874E+00 eV
  | Change of total energy        : -0.9719E-05 eV

  End self-consistency iteration #     8       :  max(cpu_time)    wall_clock(cpu1)
  | Time for this iteration                    :        0.377 s           0.376 s
  | Charge density update                      :        0.090 s           0.090 s
  | Density mixing & preconditioning           :        0.011 s           0.011 s
  | Hartree multipole update                   :        0.000 s           0.000 s
  | Hartree multipole summation                :        0.122 s           0.122 s
  | Integration                                :        0.053 s           0.053 s
  | Solution of K.-S. eqns.                    :        0.100 s           0.100 s
  | Total energy evaluation                    :        0.000 s           0.000 s

  Partial memory accounting:
  | Current value for overall tracked memory usage on task 0  :           2.614 MB
  | Peak value for overall tracked memory usage on task 0     :           3.363 MB after allocating wave
  | Largest tracked array allocation on task 0 so far         :           2.500 MB  when allocating +KS_eigenvector_complex
  Note:  These values currently only include a subset of arrays which are explicitly tracked.
  The "true" memory usage will be greater.
------------------------------------------------------------

------------------------------------------------------------
          Begin self-consistency iteration #    9

  Date     :  20190514, Time     :  123623.640
------------------------------------------------------------
  Evaluating new KS density using the density matrix
  Evaluating density matrix
  Time summed over all CPUs for getting density from density matrix: real work        0.082 s, elapsed        0.082 s
  Integration grid: deviation in total charge (<rho> - N_e) =  -3.659295E-13
  Pulay mixing of updated and previous charge densities.

  Evaluating partitioned Hartree potential by multipole expansion.
  | Analytical far-field extrapolation by fixed multipoles:
  | Hartree multipole sum: apparent total charge =  -0.265777E-03
  Summing up the Hartree potential.
  Time summed over all CPUs for potential: real work        0.121 s, elapsed        0.121 s
  | RMS charge density error from multipole expansion :   0.130865E-02
  | Average real-space part of the electrostatic potential :     -0.33762129 eV

  Integrating Hamiltonian matrix: batch-based integration.
  Time summed over all CPUs for integration: real work        0.053 s, elapsed        0.053 s

  Updating Kohn-Sham eigenvalues, eigenvectors, occupation numbers, and Fermi level.
  Solving generalized eigenproblem

  Obtaining occupation numbers and chemical potential using ELSI.
  | Chemical potential (Fermi level):    -4.72059766eV
  What follows are estimated values for band gap, HOMO, LUMO, etc.
  | They are estimated on a discrete k-point grid and not necessarily exact.
  | For converged numbers, create a DOS and/or band structure plot on a denser k-grid.

  Highest occupied state (VBM) at     -4.74046076 eV (relative to internal zero)
  | Occupation number:      1.42575674
  | K-point:     662 at    0.500000    0.416667    0.500000 (in units of recip. lattice)

  Lowest unoccupied state (CBM) at    -4.71002785 eV (relative to internal zero)
  | Occupation number:      0.76497095
  | K-point:     656 at    0.500000    0.333333    0.833333 (in units of recip. lattice)

  ESTIMATED overall HOMO-LUMO gap:      0.03043291 eV between HOMO at k-point 662 and LUMO at k-point 656
  | This appears to be an indirect band gap.
  | Smallest direct gap :      0.03323014 eV for k_point 662 at    0.500000    0.333333    0.833333 (in units of recip. lattice)
  However, this system has fractional occupation numbers. Since we use a finite k-point grid,
  this material is metallic within the approximate finite broadening function (occupation_type)
  applied to determine the occupation numbers.

  Total energy components:
  | Sum of eigenvalues            :        -163.82327666 Ha       -4457.85817137 eV
  | XC energy correction          :         -19.59209020 Ha        -533.12789950 eV
  | XC potential correction       :          25.88662137 Ha         704.41080744 eV
  | Free-atom electrostatic energy:        -132.20477218 Ha       -3597.47488847 eV
  | Hartree energy correction     :           0.50816079 Ha          13.82775861 eV
  | Entropy correction            :          -0.00004995 Ha          -0.00135920 eV
  | ---------------------------
  | Total energy                  :        -289.22535688 Ha       -7870.22239330 eV
  | Total energy, T -> 0          :        -289.22540683 Ha       -7870.22375250 eV  <-- do not rely on this value for anything but (periodic) metals
  | Electronic free energy        :        -289.22545678 Ha       -7870.22511170 eV

  Derived energy quantities:
  | Kinetic energy                :         289.33484697 Ha        7873.20177008 eV
  | Electrostatic energy          :        -558.96811365 Ha      -15210.29626388 eV
  | Energy correction for multipole
  | error in Hartree potential    :           0.00017347 Ha           0.00472047 eV
  | Sum of eigenvalues per atom                           :       -4457.85817137 eV
[...]
  | Hartree multipole update                   :        0.000 s           0.000 s
  | Hartree multipole summation                :        0.124 s           0.124 s
  | Integration                                :        0.052 s           0.052 s
  | Solution of K.-S. eqns.                    :        0.099 s           0.099 s
  | Total energy evaluation                    :        0.000 s           0.000 s

  Partial memory accounting:
  | Current value for overall tracked memory usage on task 0  :           2.614 MB
  | Peak value for overall tracked memory usage on task 0     :           3.363 MB after allocating wave
  | Largest tracked array allocation on task 0 so far         :           2.500 MB  when allocating +KS_eigenvector_complex
  Note:  These values currently only include a subset of arrays which are explicitly tracked.
  The "true" memory usage will be greater.
------------------------------------------------------------

------------------------------------------------------------
          Begin self-consistency iteration #   12

  Date     :  20190514, Time     :  123624.774
------------------------------------------------------------
  Evaluating new KS density using the density matrix
  Evaluating density matrix
  Time summed over all CPUs for getting density from density matrix: real work        0.081 s, elapsed        0.081 s
  Integration grid: deviation in total charge (<rho> - N_e) =  -4.050094E-13
  Pulay mixing of updated and previous charge densities.

  Evaluating partitioned Hartree potential by multipole expansion.
  | Analytical far-field extrapolation by fixed multipoles:
  | Hartree multipole sum: apparent total charge =  -0.261337E-03
  Summing up the Hartree potential.
  Time summed over all CPUs for potential: real work        0.120 s, elapsed        0.120 s
  | RMS charge density error from multipole expansion :   0.130762E-02
  | Average real-space part of the electrostatic potential :     -0.33731710 eV

  Integrating Hamiltonian matrix: batch-based integration.
  Time summed over all CPUs for integration: real work        0.052 s, elapsed        0.052 s

  Updating Kohn-Sham eigenvalues, eigenvectors, occupation numbers, and Fermi level.
  Solving generalized eigenproblem

  Obtaining occupation numbers and chemical potential using ELSI.
  | Chemical potential (Fermi level):    -4.72023787eV
  What follows are estimated values for band gap, HOMO, LUMO, etc.
  | They are estimated on a discrete k-point grid and not necessarily exact.
  | For converged numbers, create a DOS and/or band structure plot on a denser k-grid.

  Highest occupied state (VBM) at     -4.74009267 eV (relative to internal zero)
  | Occupation number:      1.42559682
  | K-point:     662 at    0.500000    0.416667    0.500000 (in units of recip. lattice)

  Lowest unoccupied state (CBM) at    -4.70967188 eV (relative to internal zero)
  | Occupation number:      0.76505345
  | K-point:     492 at    0.333333    0.833333    0.333333 (in units of recip. lattice)

  ESTIMATED overall HOMO-LUMO gap:      0.03042079 eV between HOMO at k-point 662 and LUMO at k-point 492
  | This appears to be an indirect band gap.
  | Smallest direct gap :      0.03323182 eV for k_point 662 at    0.333333    0.833333    0.333333 (in units of recip. lattice)
  However, this system has fractional occupation numbers. Since we use a finite k-point grid,
  this material is metallic within the approximate finite broadening function (occupation_type)
  applied to determine the occupation numbers.

  Total energy components:
  | Sum of eigenvalues            :        -163.82263282 Ha       -4457.84065158 eV
  | XC energy correction          :         -19.59214013 Ha        -533.12925818 eV
  | XC potential correction       :          25.88668713 Ha         704.41259695 eV
  | Free-atom electrostatic energy:        -132.20477218 Ha       -3597.47488847 eV
  | Hartree energy correction     :           0.50750105 Ha          13.80980631 eV
  | Entropy correction            :          -0.00004994 Ha          -0.00135899 eV
  | ---------------------------
  | Total energy                  :        -289.22535694 Ha       -7870.22239498 eV
  | Total energy, T -> 0          :        -289.22540689 Ha       -7870.22375397 eV  <-- do not rely on this value for anything but (periodic) metals
  | Electronic free energy        :        -289.22545683 Ha       -7870.22511296 eV

  Derived energy quantities:
  | Kinetic energy                :         289.33518909 Ha        7873.21107969 eV
  | Electrostatic energy          :        -558.96840591 Ha      -15210.30421649 eV
  | Energy correction for multipole
  | error in Hartree potential    :           0.00017330 Ha           0.00471571 eV
  | Sum of eigenvalues per atom                           :       -4457.84065158 eV
  | Total energy (T->0) per atom                          :       -7870.22375397 eV  <-- do not rely on this value for anything but (periodic) metals
  | Electronic free energy per atom                       :       -7870.22511296 eV

  Self-consistency convergence accuracy:
  | Change of charge density      :  0.1532E-05
  | Change of sum of eigenvalues  : -0.6465E-03 eV
  | Change of total energy        :  0.6953E-07 eV

  End self-consistency iteration #    12       :  max(cpu_time)    wall_clock(cpu1)
  | Time for this iteration                    :        0.373 s           0.372 s
  | Charge density update                      :        0.091 s           0.090 s
  | Density mixing & preconditioning           :        0.011 s           0.011 s
  | Hartree multipole update                   :        0.000 s           0.000 s
  | Hartree multipole summation                :        0.122 s           0.122 s
  | Integration                                :        0.052 s           0.052 s
  | Solution of K.-S. eqns.                    :        0.097 s           0.097 s
  | Total energy evaluation                    :        0.000 s           0.000 s

  Partial memory accounting:
  | Current value for overall tracked memory usage on task 0  :           2.614 MB
  | Peak value for overall tracked memory usage on task 0     :           3.363 MB after allocating wave
  | Largest tracked array allocation on task 0 so far         :           2.500 MB  when allocating +KS_eigenvector_complex
  Note:  These values currently only include a subset of arrays which are explicitly tracked.
  The "true" memory usage will be greater.
------------------------------------------------------------

------------------------------------------------------------
          Begin self-consistency iteration #   13

  Date     :  20190514, Time     :  123625.147
------------------------------------------------------------
  Evaluating new KS density using the density matrix
  Evaluating density matrix
  Time summed over all CPUs for getting density from density matrix: real work        0.081 s, elapsed        0.081 s
  Integration grid: deviation in total charge (<rho> - N_e) =  -4.067857E-13
  Pulay mixing of updated and previous charge densities.

  Evaluating partitioned Hartree potential by multipole expansion.
  | Analytical far-field extrapolation by fixed multipoles:
  | Hartree multipole sum: apparent total charge =  -0.261336E-03
  Summing up the Hartree potential.
  Time summed over all CPUs for potential: real work        0.121 s, elapsed        0.121 s
  | RMS charge density error from multipole expansion :   0.130762E-02
  | Average real-space part of the electrostatic potential :     -0.33731699 eV

  Integrating Hamiltonian matrix: batch-based integration.
  Time summed over all CPUs for integration: real work        0.052 s, elapsed        0.052 s

  Updating Kohn-Sham eigenvalues, eigenvectors, occupation numbers, and Fermi level.
  Solving generalized eigenproblem

  Obtaining occupation numbers and chemical potential using ELSI.
  | Chemical potential (Fermi level):    -4.72023770eV
  What follows are estimated values for band gap, HOMO, LUMO, etc.
  | They are estimated on a discrete k-point grid and not necessarily exact.
  | For converged numbers, create a DOS and/or band structure plot on a denser k-grid.

  Highest occupied state (VBM) at     -4.74009249 eV (relative to internal zero)
  | Occupation number:      1.42559672
  | K-point:     662 at    0.500000    0.416667    0.500000 (in units of recip. lattice)

  Lowest unoccupied state (CBM) at    -4.70967171 eV (relative to internal zero)
  | Occupation number:      0.76505348
  | K-point:     259 at    0.166667    0.666667    0.500000 (in units of recip. lattice)

  ESTIMATED overall HOMO-LUMO gap:      0.03042079 eV between HOMO at k-point 662 and LUMO at k-point 259
  | This appears to be an indirect band gap.
  | Smallest direct gap :      0.03323183 eV for k_point 672 at    0.166667    0.666667    0.500000 (in units of recip. lattice)
  However, this system has fractional occupation numbers. Since we use a finite k-point grid,
  this material is metallic within the approximate finite broadening function (occupation_type)
  applied to determine the occupation numbers.

  Total energy components:
  | Sum of eigenvalues            :        -163.82263255 Ha       -4457.84064399 eV
  | XC energy correction          :         -19.59214014 Ha        -533.12925859 eV
  | XC potential correction       :          25.88668715 Ha         704.41259749 eV
  | Free-atom electrostatic energy:        -132.20477218 Ha       -3597.47488847 eV
  | Hartree energy correction     :           0.50750077 Ha          13.80979858 eV
  | Entropy correction            :          -0.00004994 Ha          -0.00135899 eV
  | ---------------------------
  | Total energy                  :        -289.22535694 Ha       -7870.22239498 eV
  | Total energy, T -> 0          :        -289.22540689 Ha       -7870.22375397 eV  <-- do not rely on this value for anything but (periodic) metals
  | Electronic free energy        :        -289.22545683 Ha       -7870.22511296 eV

  Derived energy quantities:
  | Kinetic energy                :         289.33518915 Ha        7873.21108145 eV
  | Electrostatic energy          :        -558.96840596 Ha      -15210.30421784 eV
  | Energy correction for multipole
  | error in Hartree potential    :           0.00017330 Ha           0.00471571 eV
  | Sum of eigenvalues per atom                           :       -4457.84064399 eV
  | Total energy (T->0) per atom                          :       -7870.22375397 eV  <-- do not rely on this value for anything but (periodic) metals
  | Electronic free energy per atom                       :       -7870.22511296 eV

  Self-consistency convergence accuracy:
  | Change of charge density      :  0.4119E-07
  | Change of sum of eigenvalues  :  0.7592E-05 eV
  | Change of total energy        : -0.5661E-09 eV

  Preliminary charge convergence reached. Turning off preconditioner.

  Writing Kohn-Sham eigenvalues.
  K-point:       1 at    0.000000    0.000000    0.000000 (in units of recip. lattice)

  State    Occupation    Eigenvalue [Ha]    Eigenvalue [eV]
      1       2.00000         -65.541292        -1783.46930
      2       2.00000          -5.129716         -139.58669
      3       2.00000          -3.544584          -96.45305
      4       2.00000          -3.544584          -96.45304
      5       2.00000          -3.544584          -96.45304
      6       2.00000          -0.437602          -11.90776
      7       0.00000          -0.111072           -3.02243
      8       0.00000          -0.111072           -3.02243
      9       0.00000          -0.111072           -3.02243
     10       0.00000           0.037551            1.02182

  What follows are estimated values for band gap, HOMO, LUMO, etc.
  | They are estimated on a discrete k-point grid and not necessarily exact.
  | For converged numbers, create a DOS and/or band structure plot on a denser k-grid.

  Highest occupied state (VBM) at     -4.74009249 eV (relative to internal zero)
  | Occupation number:      1.42559672
  | K-point:     662 at    0.500000    0.416667    0.500000 (in units of recip. lattice)

  Lowest unoccupied state (CBM) at    -4.70967171 eV (relative to internal zero)
  | Occupation number:      0.76505348
  | K-point:     259 at    0.166667    0.666667    0.500000 (in units of recip. lattice)

  ESTIMATED overall HOMO-LUMO gap:      0.03042079 eV between HOMO at k-point 662 and LUMO at k-point 259
  | This appears to be an indirect band gap.
  | Smallest direct gap :      0.03323183 eV for k_point 672 at    0.166667    0.666667    0.500000 (in units of recip. lattice)
  However, this system has fractional occupation numbers. Since we use a finite k-point grid,
  this material is metallic within the approximate finite broadening function (occupation_type)
  applied to determine the occupation numbers.

  Self-consistency cycle converged.

  End self-consistency iteration #    13       :  max(cpu_time)    wall_clock(cpu1)
  | Time for this iteration                    :        0.377 s           0.376 s
  | Charge density update                      :        0.091 s           0.091 s
  | Density mixing                             :        0.010 s           0.010 s
  | Hartree multipole update                   :        0.001 s           0.001 s
  | Hartree multipole summation                :        0.122 s           0.122 s
  | Integration                                :        0.053 s           0.052 s
  | Solution of K.-S. eqns.                    :        0.100 s           0.100 s
  | Total energy evaluation                    :        0.000 s           0.000 s

  Partial memory accounting:
  | Current value for overall tracked memory usage on task 0  :           2.614 MB
  | Peak value for overall tracked memory usage on task 0     :           3.363 MB after allocating wave
  | Largest tracked array allocation on task 0 so far         :           2.500 MB  when allocating +KS_eigenvector_complex
  Note:  These values currently only include a subset of arrays which are explicitly tracked.
  The "true" memory usage will be greater.
------------------------------------------------------------

  Energy and forces in a compact form:
  | Total energy uncorrected      :         -0.787022239497929E+04 eV
  | Total energy corrected        :         -0.787022375397155E+04 eV  <-- do not rely on this value for anything but (periodic) metals
  | Electronic free energy        :         -0.787022511296382E+04 eV

  ------------------------------------ 
  Start decomposition of the XC Energy 
  ------------------------------------ 
  X and C from original XC functional choice 
  Hartree-Fock Energy :          0.000000000 Ha              0.000000000 eV
  X Energy            :        -18.541341150 Ha           -504.535563189 eV
  C Energy            :         -1.050798992 Ha            -28.593695406 eV
  Total XC Energy     :        -19.592140142 Ha           -533.129258594 eV
  ------------------------------------ 
  LDA X and C from self-consistent density 
  X Energy LDA        :        -18.541341150 Ha           -504.535563189 eV
  C Energy LDA        :         -1.050798992 Ha            -28.593695406 eV
  ------------------------------------ 
  End decomposition of the XC Energy 
  ------------------------------------ 

------------------------------------------------------------

------------------------------------------------------------------------------
  Final output of selected total energy values:

  The following output summarizes some interesting total energy values
  at the end of a run (AFTER all relaxation, molecular dynamics, etc.).

  | Total energy of the DFT / Hartree-Fock s.c.f. calculation      :          -7870.222394979 eV
  | Final zero-broadening corrected energy (caution - metals only) :          -7870.223753972 eV
  | For reference only, the value of 1 Hartree used in FHI-aims is :             27.211384500 eV

  Before relying on these values, please be sure to understand exactly which
  total energy value is referred to by a given number. Different objects may
  all carry the same name 'total energy'. Definitions:

  Total energy of the DFT / Hartree-Fock s.c.f. calculation:
  | Note that this energy does not include ANY quantities calculated after the
  | s.c.f. cycle, in particular not ANY RPA, MP2, etc. many-body perturbation terms.

  Final zero-broadening corrected energy:
  | For metallic systems only, a broadening of the occupation numbers at the Fermi
  | level can be extrapolated back to zero broadening by an electron-gas inspired
  | formula. For all systems that are not real metals, this value can be
  | meaningless and should be avoided.

------------------------------------------------------------------------------
  Methods described in the following list of references were used in this FHI-aims run.
  If you publish the results, please make sure to cite these reference if they apply.
  FHI-aims is an academic code, and for our developers (often, Ph.D. students
  and postdocs), scientific credit in the community is essential.
  Thank you for helping us!

  For any use of FHI-aims, please cite:

    Volker Blum, Ralf Gehrke, Felix Hanke, Paula Havu, Ville Havu,
    Xinguo Ren, Karsten Reuter, and Matthias Scheffler
    'Ab initio molecular simulations with numeric atom-centered orbitals'
    Computer Physics Communications 180, 2175-2196 (2009)
    http://dx.doi.org/10.1016/j.cpc.2009.06.022


  For the real-space grid partitioning and parallelization used in this calculation, please cite:

    Ville Havu, Volker Blum, Paula Havu, and Matthias Scheffler,
    'Efficient O(N) integration for all-electron electronic structure calculation'
    'using numerically tabulated basis functions'
    Journal of Computational Physics 228, 8367-8379 (2009).
    http://dx.doi.org/10.1016/j.jcp.2009.08.008

  Of course, there are many other important community references, e.g., those cited in the
  above references. Our list is limited to references that describe implementations in the
  FHI-aims code. The reason is purely practical (length of this list) - please credit others as well.

------------------------------------------------------------
          Leaving FHI-aims.
          Date     :  20190514, Time     :  123625.528

          Computational steps:
          | Number of self-consistency cycles          :           13
          | Number of SCF (re)initializations          :            1

          Detailed time accounting                     :  max(cpu_time)    wall_clock(cpu1)
          | Total time                                 :        5.343 s           5.343 s
          | Preparation time                           :        0.103 s           0.102 s
          | Boundary condition initalization           :        0.038 s           0.039 s
          | Grid partitioning                          :        0.007 s           0.007 s
          | Preloading free-atom quantities on grid    :        0.001 s           0.001 s
          | Free-atom superposition energy             :        0.007 s           0.007 s
          | Total time for integrations                :        0.766 s           0.767 s
          | Total time for solution of K.-S. equations :        1.495 s           1.495 s
          | Total time for density update              :        1.184 s           1.184 s
          | Total time for mixing & preconditioning    :        0.143 s           0.145 s
          | Total time for Hartree multipole update    :        0.006 s           0.002 s
          | Total time for Hartree multipole sum       :        1.562 s           1.563 s
          | Total time for total energy evaluation     :        0.003 s           0.001 s
          | Total time for scaled ZORA corrections     :        0.000 s           0.000 s

 This is a stub MPI_ALLREDUCE call.
 You should not be here. Check your
 setting on the use_mpi variable, or
 link against true MPI-libraries.
