------------------------------------------------------------
          Invoking FHI-aims ...
          Version 171221_1
          Compiled on 2019/05/06 at 14:26:40 on host ffph0xx.

          When using FHI-aims, please cite the following reference:

          Volker Blum, Ralf Gehrke, Felix Hanke, Paula Havu,
          Ville Havu, Xinguo Ren, Karsten Reuter, and Matthias Scheffler,
          'Ab Initio Molecular Simulations with Numeric Atom-Centered Orbitals',
          Computer Physics Communications 180, 2175-2196 (2009)

          For any questions about FHI-aims, please visit the aimsclub website
          with its forums and wiki. Contributions to both the forums and the
          wiki are warmly encouraged - they are for you, and everyone is welcome there.

------------------------------------------------------------



  Date     :  20190507, Time     :  191118.869
  Time zero on CPU 1             :   0.953000000000000E-03  s.
  Internal wall clock time zero  :           326488278.869  s.

  FHI-aims created a unique identifier for this run for later identification
  aims_uuid : 90861435-D990-442C-AB92-98D154CAF84C


  Performing system and environment tests:
  *** Environment variable OMP_NUM_THREADS is not set
  *** For performance reasons you might want to set it to 1
  | Stacksize not measured: no C compiler

  Obtaining array dimensions for all initial allocations:
  
  -----------------------------------------------------------------------
  Parsing control.in (first pass over file, find array dimensions only).
  The contents of control.in will be repeated verbatim below
  unless switched off by setting 'verbatim_writeout .false.' .
  in the first line of control.in .
  -----------------------------------------------------------------------
  
  #--- Specification of method ---
  xc hf
  charge 0.0
  spin none
  #---
  
  #--- iteration limit ---
  sc_iter_limit 100
  
  # other possible thresholds
  # sc_accuracy_eev ... for sum of Kohn-Sham eigen values
  # sc_accuracy_etot .. total energy
  # sc_accuracy_rho ... electron density
  #---
  
  #--- tasks (what to calculate) ---
  output dipole
  #---
  
  
  ################################################################################
  ############# Species Defaults ####################
  ################################################################################
  
  ################################################################################
  #
  #  FHI-aims code project
  # Volker Blum, Fritz Haber Institute Berlin, 2009
  #
  #  Suggested "tight" defaults for H atom (to be pasted into control.in file)
  #
  ################################################################################
    species        H
  #     global species definitions
      nucleus             1
      mass                1.00794
  #
      l_hartree           6
  #
      cut_pot             4.0  2.0  1.0
      basis_dep_cutoff    1e-4
  #
      radial_base         24 7.0
      radial_multiplier   2
      angular_grids       specified
        division   0.1930   50
        division   0.3175  110
        division   0.4293  194
        division   0.5066  302
        division   0.5626  434
  #      division   0.5922  590
  #      division   0.6227  974
  #      division   0.6868 1202
  #      outer_grid  770
        outer_grid  434
  ################################################################################
  #
  #  Definition of "minimal" basis
  #
  ################################################################################
  #     valence basis states
      valence      1  s   1.
  #     ion occupancy
      ion_occ      1  s   0.5
  ################################################################################
  #
  #  Suggested additional basis functions. For production calculations,
  #  uncomment them one after another (the most important basis functions are
  #  listed first).
  #
  #  Basis constructed for dimers: 0.5 A, 0.7 A, 1.0 A, 1.5 A, 2.5 A
  #
  ################################################################################
  #  "First tier" - improvements: -1014.90 meV to -62.69 meV
       hydro 2 s 2.1
       hydro 2 p 3.5
  #  "Second tier" - improvements: -12.89 meV to -1.83 meV
       hydro 1 s 0.85
       hydro 2 p 3.7
       hydro 2 s 1.2
       hydro 3 d 7
  #  "Third tier" - improvements: -0.25 meV to -0.12 meV
  #     hydro 4 f 11.2
  #     hydro 3 p 4.8
  #     hydro 4 d 9
  #     hydro 3 s 3.2
  ################################################################################
  #
  # For methods that use the localized form of the "resolution of identity" for
  # the two-electron Coulomb operator (RI_method LVL), particularly Hartree-Fock and
  # hybrid density functional calculations, the highest accuracy can be obtained by
  # uncommenting the line beginning with "for_aux"  below, thus adding an extra g radial
  # function to the construction of the product basis set for the expansion.
  # See Ref. New J. Phys. 17, 093020 (2015) for more information, particularly Figs. 1 and 6.
  #
  ################################################################################
  #
  # for_aux hydro 5 g 6.0
  
  
  ################################################################################
  #
  #  FHI-aims code project
  # Volker Blum, Fritz Haber Institute Berlin, 2009
  #
  #  Suggested "tight" defaults for F atom (to be pasted into control.in file)
  #
  ################################################################################
    species        F
  #     global species definitions
      nucleus             9
      mass                18.9984032
  #
      l_hartree           6
  #
      cut_pot             4.0  2.0  1.0
      basis_dep_cutoff    1e-4
  #
      radial_base         37 7.0
      radial_multiplier   2
      angular_grids specified
        division   0.4014  110
        division   0.5291  194
        division   0.6019  302
        division   0.6814  434
  #      division   0.7989  590
  #      division   0.8965  770
  #      division   1.3427  974
  #      outer_grid   974
        outer_grid  434
  ################################################################################
  #
  #  Definition of "minimal" basis
  #
  ################################################################################
  #     valence basis states
      valence      2  s   2.
      valence      2  p   5.
  #     ion occupancy
      ion_occ      2  s   1.
      ion_occ      2  p   4.
  ################################################################################
  #
  #  Suggested additional basis functions. For production calculations,
  #  uncomment them one after another (the most important basis functions are
  #  listed first).
  #
  #  Constructed for dimers: 1.2 A, 1.418 A, 1.75 A, 2.25 A, 3.25 A
  #
  ################################################################################
  #  "First tier" - improvements: -149.44 meV to -45.88 meV
       hydro 2 p 1.7
       hydro 3 d 7.4
       hydro 3 s 6.8
  #  "Second tier" - improvements: -12.96 meV to -1.56 meV
       hydro 4 f 11.2
       ionic 2 p auto
       hydro 1 s 0.75
       hydro 4 d 8.8
       hydro 5 g 16.8
  #  "Third tier" - improvements: -0.58 meV to -0.05 meV
  #     hydro 3 p 6.2
  #     hydro 3 s 3.2
  #     hydro 4 f 9.6
  #     hydro 3 s 19.6
  #     hydro 4 d 8.6
  #     hydro 5 g 14.4
  # Further basis functions: -0.05 meV and below
  #     hydro 3 p 4.2
  ################################################################################
  #
  # For methods that use the localized form of the "resolution of identity" for
  # the two-electron Coulomb operator (RI_method LVL), particularly Hartree-Fock and
  # hybrid density functional calculations, the highest accuracy can be obtained by
  # uncommenting the line beginning with "for_aux"  below, thus adding an extra g radial
  # function to the construction of the product basis set for the expansion.
  # See Ref. New J. Phys. 17, 093020 (2015) for more information, particularly Figs. 1 and 6.
  #
  ################################################################################
  #
  # for_aux hydro 5 g 6.0
  
  -----------------------------------------------------------------------
  Completed first pass over input file control.in .
  -----------------------------------------------------------------------
  
  
  -----------------------------------------------------------------------
  Parsing geometry.in (first pass over file, find array dimensions only).
  The contents of geometry.in will be repeated verbatim below
  unless switched off by setting 'verbatim_writeout .false.' .
  in the first line of geometry.in .
  -----------------------------------------------------------------------
  
  # HF with variable bonding distance
  atom 0.0 0.0 0.0 H
  atom 0.0 0.0 1.3 F
  
  -----------------------------------------------------------------------
  Completed first pass over input file geometry.in .
  -----------------------------------------------------------------------
  

  Basic array size parameters:
  | Number of species                 :        2
  | Number of atoms                   :        2
  | Max. basis fn. angular momentum   :        4
  | Max. atomic/ionic basis occupied n:        2
  | Max. number of basis fn. types    :        3
  | Max. radial fns per species/type  :        7
  | Max. logarithmic grid size        :     1310
  | Max. radial integration grid size :       75
  | Max. angular integration grid size:      434
  | Max. angular grid division number :        8
  | Radial grid for Hartree potential :     1310
  | Number of spin channels           :        1

------------------------------------------------------------
          Reading file control.in.
------------------------------------------------------------

  Hartree-Fock calculation starts ...... 
  Attention: this version of Hartree-Fock employs an auxiliary basis. 

  Charge =   0.000000E+00: Neutral system requested explicitly.
  Spin treatment: No spin polarisation.
  Maximum number of s.-c. iterations  :   100
  Dipole moment will be written out.

  Reading configuration options for species H                   .
  | Found nuclear charge :   1.0000
  | Found atomic mass :    1.0079400000000001      amu
  | Found l_max for Hartree potential  :   6
  | Found cutoff potl. onset [A], width [A], scale factor :    4.00000    2.00000    1.00000
  | Threshold for basis-dependent cutoff potential is   0.100000E-03
  | Found data for basic radial integration grid :    24 points, outermost radius =    7.000 A
  | Found multiplier for basic radial grid :   2
  | Found angular grid specification: user-specified.
  | Specified grid contains     6 separate shells.
  | Check grid settings after all constraints further below.
  | Found free-atom valence shell :  1 s   1.000
  | Found free-ion valence shell :  1 s   0.500
  | Found hydrogenic basis function :  2 s   2.100
  | Found hydrogenic basis function :  2 p   3.500
  | Found hydrogenic basis function :  1 s   0.850
  | Found hydrogenic basis function :  2 p   3.700
  | Found hydrogenic basis function :  2 s   1.200
  | Found hydrogenic basis function :  3 d   7.000
  Species H                   : Missing cutoff potential type.
  Defaulting to exp(1/x)/(1-x)^2 type cutoff potential.
  Species H : No 'logarithmic' tag. Using default grid for free atom:
  | Default logarithmic grid data [bohr] : 0.1000E-03 0.1000E+03 0.1012E+01
  Species H : On-site basis accuracy parameter (for Gram-Schmidt orthonormalisation) not specified.
  Using default value basis_acc =  0.1000000E-03.
  Species H                   : Using default innermost maximum threshold i_radial=  2 for radial functions.
  Species H                   : Default cutoff onset for free atom density etc. : 0.40000000E+01 AA.
  Species H                   : Basic radial grid will be enhanced according to radial_multiplier =   2, to contain    49 grid points.

  Reading configuration options for species F                   .
  | Found nuclear charge :   9.0000
  | Found atomic mass :    18.998403199999998      amu
  | Found l_max for Hartree potential  :   6
  | Found cutoff potl. onset [A], width [A], scale factor :    4.00000    2.00000    1.00000
  | Threshold for basis-dependent cutoff potential is   0.100000E-03
  | Found data for basic radial integration grid :    37 points, outermost radius =    7.000 A
  | Found multiplier for basic radial grid :   2
  | Found angular grid specification: user-specified.
  | Specified grid contains     5 separate shells.
  | Check grid settings after all constraints further below.
  | Found free-atom valence shell :  2 s   2.000
  | Found free-atom valence shell :  2 p   5.000
  | Found free-ion valence shell :  2 s   1.000
  | Found free-ion valence shell :  2 p   4.000
  | Found hydrogenic basis function :  2 p   1.700
  | Found hydrogenic basis function :  3 d   7.400
  | Found hydrogenic basis function :  3 s   6.800
  | Found hydrogenic basis function :  4 f  11.200
  | Found ionic basis function :  2 p , default cutoff radius.
  | Found hydrogenic basis function :  1 s   0.750
  | Found hydrogenic basis function :  4 d   8.800
  | Found hydrogenic basis function :  5 g  16.800
  Species F                   : Missing cutoff potential type.
  Defaulting to exp(1/x)/(1-x)^2 type cutoff potential.
  Species F : No 'logarithmic' tag. Using default grid for free atom:
  | Default logarithmic grid data [bohr] : 0.1000E-03 0.1000E+03 0.1012E+01
  | Will include ionic basis functions of  2.0-fold positive F                    ion.
  Species F : On-site basis accuracy parameter (for Gram-Schmidt orthonormalisation) not specified.
  Using default value basis_acc =  0.1000000E-03.
  Species F                   : Using default innermost maximum threshold i_radial=  2 for radial functions.
  Species F                   : Default cutoff onset for free atom density etc. : 0.40000000E+01 AA.
  Species F                   : Basic radial grid will be enhanced according to radial_multiplier =   2, to contain    75 grid points.

  Finished reading input file 'control.in'. Consistency checks are next.

  MPI_IN_PLACE appears to work with this MPI implementation.
  | Keeping use_mpi_in_place .true. (see manual).
  Explicit treatment of the Coulomb operator is needed, but the RI method is not specified.
  Coulomb operator: Defaulting to 'LVL fast' resolution of identity - RI_type = LVL_fast 
  Species H: Using default value for prodbas_acc =   1.000000E-04.
  Species H: Using default value max_l_prodbas =    20.
  Explicit treatment of the Coulomb operator is needed, but the RI method is not specified.
  Coulomb operator: Defaulting to 'LVL fast' resolution of identity - RI_type = LVL_fast 
  Species F: Using default value for prodbas_acc =   1.000000E-04.
  Species F: Using default value max_l_prodbas =    20.
  Target number of points in a grid batch is not set. Defaulting to  100
  Method for grid partitioning is not set. Defaulting to 'maxmin' partitioning.
  Batch size limit is not set. Defaulting to    200
  By default, will store active basis functions for each batch.
  If in need of memory, prune_basis_once .false. can be used to disable this option.
  communication_type for Hartree potential was not specified.
  Defaulting to calc_hartree .
 * Attention: 
 * You may want to set distributed_spline_storage to .true. in order to save memory.
 * This doesn't harm performance and is perfectly ok unless:
 * - you get error messages in postprocessing (about missing atoms in get_rho_multipole_spl)
 * - you need full spline storage in hirshfeld_analysis
  Defaulting to Pulay charge density mixer.
  Pulay mixer: Number of relevant iterations not set.
  Defaulting to    8 iterations.
  Pulay mixer: Number of initial linear mixing iterations not set.
  Defaulting to    0 iterations.
  Work space size for distributed Hartree potential not set.
  Defaulting to   0.200000E+03 MB.
  Mixing parameter for charge density mixing has not been set.
  Using default: charge_mix_param =     0.0500.
  The mixing parameter will be adjusted in iteration number     2 of the first full s.c.f. cycle only.
  Algorithm-dependent basis array size parameters:
  | n_max_pulay                         :        8
 * Notice: The s.c.f. convergence criterion sc_accuracy_rho was not provided.
 * We used to stop in this case, and ask the user to provide reasonable
 * scf convergence criteria. However, this led some users to employ criteria
 * that led to extremely long run times, e.g., for simple relaxation.
 * We now preset a default value for sc_accuracy_rho if it is not set.
 * You may still wish to check if this setting is too tight or too loose for your needs.
 * Based on n_atoms, FHI-aims chose sc_accuracy_rho =  0.100000E-05 .
  Presetting      1001 iterations before the initial mixing cycle
  is restarted anyway using the sc_init_iter criterion / keyword.
  Presetting a factor      1.000 between actual scf density residual
  and density convergence criterion sc_accuracy_rho below which sc_init_iter
  takes no effect.
 * No s.c.f. convergence criteria (sc_accuracy_*) were provided in control.in.
 * The run will proceed with a reasonable default guess, but please check whether.
 * the s.c.f. cycles seem to take too much or too little time.
  Calculation of forces was not defined in control.in. No forces will be calculated.
  Geometry relaxation not requested: no relaxation will be performed.
  No accuracy limit for integral partition fn. given. Defaulting to  0.1000E-14.
  No threshold value for u(r) in integrations given. Defaulting to  0.1000E-05.
  No occupation type (smearing scheme) given. Defaulting to Gaussian broadening, width =  0.1000E-01 eV.
  The width will be adjusted in iteration number     2 of the first full s.c.f. cycle only.
  S.C.F. convergence parameters will be adjusted in iteration number     2 of the first full s.c.f. cycle only.
  No accuracy for occupation numbers given. Defaulting to  0.1000E-12.
  No threshold value for occupation numbers given. Defaulting to  0.0000E+00.
  No accuracy for fermi level given. Defaulting to  0.1000E-19.
  Maximum # of iterations to find E_F not set. Defaulting to  200.
  Preferred method for the eigenvalue solver ('KS_method') not specified in 'control.in'.
  Defaulting to serial version, 'lapack_fast'.
  Will not use alltoall communication since running on < 1024 CPUs.
  Threshold for basis singularities not set.
  Default threshold for basis singularities:  0.1000E-04
  partition_type (choice of integration weights) for integrals was not specified.
  | Using a version of the partition function of Stratmann and coworkers ('stratmann_smoother').
  | At each grid point, the set of atoms used to build the partition table is smoothly restricted to
  | only those atoms whose free-atom density would be non-zero at that grid point.
  Partitioning for Hartree potential was not defined. Using partition_type for integrals.
  | Adjusted default value of keyword multip_moments_threshold to:       0.10000000E-11
  | This value may affect high angular momentum components of the Hartree potential in periodic systems.
  Threshold for auxiliary basis singularities not set.
  Default threshold for auxiliary basis singularities:  0.1000E-04
  No q(lm)/r^(l+1) cutoff set for long-range Hartree potential.
  | Using default value of  0.100000E-09 .
  | Verify using the multipole_threshold keyword.
  Defaulting to new monopole extrapolation.
  Density update method: automatic selection selected.
  Coulomb operator: Defaulting to screening threshold for four-center integrals:   0.100000E-06
  Coulomb operator: Defaulting to screening threshold for Coulomb matrix:   0.100000E-09
  Coulomb operator: Defaulting to 'LVL_fast' resolution of identity - RI_type = LVL_fast 
  No other resolution of identity version is supported for periodic boundary conditions at present.
  Coulomb operator: Defaulting to logarithmic spherical Bessel transform integrals (use_logsbt .true.).
  LVL not implemented with density matrix yet
  -> switching to transformed overlap
  LVL probably works better with logsbt
  Default to 1D ("use_logsbt") integrations for auxiliary 2-center integrals.
  Default onset of logarithmic r-grid for SBT is-38.000000000000
  Default onset of logarithmic k-grid for SBT is-25.000000000000
  Default range of logarithmic r- and k-grid for SBT is 45.000000000000
  Default number of logarithmic r- and k-grid for SBT is  4096
------------------------------------------------------------


------------------------------------------------------------
          Reading geometry description geometry.in.
------------------------------------------------------------
 * Warning! You did not set the 'relativistic' flag in input file 'control.in'.
 * Since you are not attempting to treat any elements beyond Ca(Z=20), FHI-aims
 * will default to 'relativistic none'.
 * You must ensure that this is really what you want!!
 * For example, DO NOT compute total-energy differences between results from
 * different settings of the 'relativistic' flag.
  Input structure read successfully.
  The structure contains        2 atoms,  and a total of         10.000 electrons.

  Input geometry:
  | No unit cell requested.
  | Atomic structure:
  |       Atom                x [A]            y [A]            z [A]
  |    1: Species H             0.00000000        0.00000000        0.00000000
  |    2: Species F             0.00000000        0.00000000        1.30000000
  |

  | The smallest distance between any two atoms is         1.30000000 AA.
  |
  | The first atom of this pair is atom number                      1 .
  | The second atom of this pair is atom number                     2 .

  Number of empty states per atom not set in control.in - providing a guess from actual geometry.
  | Total number of empty states used during s.c.f. cycle:        5
  If you use a very high smearing, use empty_states (per atom!) in control.in to increase this value.

  Structure-dependent array size parameters: 
  | Maximum number of distinct radial functions  :       18
  | Maximum number of basis functions            :       54
  | Number of Kohn-Sham states (occupied + empty):       10
------------------------------------------------------------
  Setting Coulomb cut-width to  1.091868692359 * rcut.
  Setting Coulomb cutting radius rcut to  8.000000000000 A.

------------------------------------------------------------
          Preparing all fixed parts of the calculation.
------------------------------------------------------------
  Determining machine precision:
     2.2250738585072014E-308
  Setting up grids for atomic and cluster calculations.

  Creating wave function, potential, and density for free atoms.

  Species: H

  List of occupied orbitals and eigenvalues:
    n    l              occ      energy [Ha]    energy [eV]
    1    0           1.0000        -0.233220        -6.3462


  Species: F

  List of occupied orbitals and eigenvalues:
    n    l              occ      energy [Ha]    energy [eV]
    1    0           2.0000       -24.189290      -658.2241
    2    0           2.0000        -1.086670       -29.5698
    2    1           5.0000        -0.415437       -11.3046

  Creating fixed part of basis set: Ionic, confined, hydrogenic.

  H                    hydrogenic:

  List of hydrogenic basis orbitals: 
    n    l      effective z      eigenvalue [eV]  inner max. [A]     outer max. [A]     outer radius [A]   
    2    0         2.100000       -14.9965           0.193243           1.317208           5.373006
    2    1         3.500000       -41.6672           0.602369           0.602369           4.056063
    1    0         0.850000        -9.8292           0.624871           0.624871           5.373006
    2    1         3.700000       -46.5653           0.573622           0.573622           3.910002
    2    0         1.200000        -4.5995           0.334980           2.228188           5.505995
    3    2         7.000000       -74.0753           0.680699           0.680699           3.769201


  F                    ion:

  List of free ionic orbitals and eigenvalues:
    n    l      energy [Ha]    energy [eV]
    1    0       -25.877814      -704.1711
    2    0        -2.473609       -67.3103
    2    1        -1.793419       -48.8014


  List of ionic basis orbitals and eigenvalues:
    n    l      energy [Ha]    energy [eV]    outer radius [A]
    2    1        -1.793414       -48.8013       3.346402


  F                    hydrogenic:

  List of hydrogenic basis orbitals: 
    n    l      effective z      eigenvalue [eV]  inner max. [A]     outer max. [A]     outer radius [A]   
    2    1         1.700000        -9.8152           1.243167           1.243167           5.456923
    3    2         7.400000       -82.7830           0.642437           0.642437           3.645380
    3    0         6.800000       -69.9029           0.057798           1.022307           4.119412
    4    3        11.200000      -106.6685           0.753096           0.753096           3.645380
    1    0         0.750000        -7.6499           0.708442           0.708442           5.390618
    4    2         8.800000       -65.8514           0.408685           1.273937           4.598524
    5    4        16.800000      -153.6028           0.790838           0.790838           3.471409


  Adding cutoff potential to free-atom effective potential.
  Creating atomic-like basis functions for current effective potential.

  Species H                   :

  List of atomic basis orbitals and eigenvalues:
    n    l      energy [Ha]    energy [eV]    outer radius [A]
    1    0        -0.233220        -6.3462       5.373006


  Species F                   :

  List of atomic basis orbitals and eigenvalues:
    n    l      energy [Ha]    energy [eV]    outer radius [A]
    1    0       -24.189290      -658.2241       1.258458
    2    0        -1.086670       -29.5698       4.948503
    2    1        -0.415437       -11.3046       5.260416

  Assembling full basis from fixed parts.
  | Species H :   atomic orbital   1 s accepted.
  | Species H :    hydro orbital   2 s accepted.
  | Species H :    hydro orbital   1 s accepted.
  | Species H :    hydro orbital   2 s accepted.
  | Species H :    hydro orbital   2 p accepted.
  | Species H :    hydro orbital   2 p accepted.
  | Species H :    hydro orbital   3 d accepted.
  | Species F :   atomic orbital   1 s accepted.
  | Species F :    hydro orbital   3 s accepted.
  | Species F :   atomic orbital   2 s accepted.
  | Species F :    hydro orbital   1 s accepted.
  | Species F :    ionic orbital   2 p accepted.
  | Species F :   atomic orbital   2 p accepted.
  | Species F :    hydro orbital   2 p accepted.
  | Species F :    hydro orbital   3 d accepted.
  | Species F :    hydro orbital   4 d accepted.
  | Species F :    hydro orbital   4 f accepted.
  | Species F :    hydro orbital   5 g accepted.

  Basis size parameters after reduction:
  | Total number of radial functions:       18
  | Total number of basis functions :       54

  Per-task memory consumption for arrays in subroutine allocate_ext:
  |           3.020624MB.
  Testing on-site integration grid accuracy.
  |  Species  Function  <phi|h_atom|phi> (log., in eV)  <phi|h_atom|phi> (rad., in eV)
           1        1                 -6.3465499670                 -6.3466517897
           1        2                 13.9255123248                 13.9252158366
           1        3                 42.5820300838                 42.5725529183
           1        4                 44.6080800718                 44.5543339253 ***
           1        5                 28.9862042128                 28.9862042374
           1        6                 59.7424928664                 59.7425632637
           1        7                 60.2977264576                 60.2977262009
           2        8               -658.2240627282               -658.2240559877
           2        9                 16.5676115618                 16.5675928460
           2       10                -27.9944307831                -27.9944408000
           2       11                 12.6576950751                 12.6574271497
           2       12                -10.3243022769                -10.3243022526
           2       13                 13.9678398311                 13.9678356816
           2       14                 14.3732245560                 14.3725150718
           2       15                 44.6852168372                 44.6852168669
           2       16                 56.5164537384                 56.5164546144
           2       17                 81.0888475213                 81.0888475523
           2       18                131.0308046382                131.0308045638
 * Note: Onsite integrals marked "***" above are less accurate than
 * onsite_accuracy_threshold =    0.03000 eV. Usually, this is harmless.
 * When in doubt, tighten the "radial" and/or "radial_multiplier" flags to check.

  Preparing densities etc. for the partition functions (integrals / Hartree potential).

  Preparations completed.
  max(cpu_time)          :      0.099 s.
  Wall clock time (cpu1) :      0.099 s.
------------------------------------------------------------

------------------------------------------------------------
          Begin self-consistency loop: Initialization.

          Date     :  20190507, Time     :  191118.970
------------------------------------------------------------

  Initializing index lists of integration centers etc. from given atomic structure:
  | Number of centers in hartree potential         :         2
  | Number of centers in hartree multipole         :         2
  | Number of centers in electron density summation:         2
  | Number of centers in basis integrals           :         2
  | Number of centers in integrals                 :         2
  | Number of centers in hamiltonian               :         2
  Partitioning the integration grid into batches with maxmin method.
  | Maximal weight for a single point:     1.000
  | Minimal weight for a single point:     0.000
  | Number of batches:      492
  | Maximal batch size:     144
  | Minimal batch size:      67
  | Average batch size:      73.285
  | Standard deviation of batch sizes:      13.961
  Initializing partition tables, free-atom densities, potentials, etc. across the integration grid (initialize_grid_storage).
  | initialize_grid_storage: Actual outermost partition radius vs. multipole_radius_free
  | (-- VB: in principle, multipole_radius_free should be larger, hence this output)
  | Species        1: Confinement radius =              6.000000000000000 AA, multipole_radius_free =              6.071692442739658 AA.
  | Species        1: outer_partition_radius set to              6.071692442739658 AA .
  | Species        2: Confinement radius =              6.000000000000000 AA, multipole_radius_free =              6.017578497268912 AA.
  | Species        2: outer_partition_radius set to              6.017578497268912 AA .
  | Original list of interatomic distances with           2 x          2 entries is created.
  | Net number of integration points:    36056
  | of which are non-zero points    :    34221
  Renormalizing the initial density to the exact electron count on the 3D integration grid.
  | Initial density: Formal number of electrons (from input files) :      10.0000000000
  | Integrated number of electrons on 3D grid     :       9.9999991576
  | Charge integration error                      :      -0.0000008424
  | Normalization factor for density and gradient :       1.0000000842
  Obtaining max. number of non-zero basis functions in each batch (get_n_compute_maxes).
  | Maximal number of non-zero basis functions:       54 in task     0
  Selecting the method for density update.
  Loop over occupied states selected for charge density update.
  Allocating        0.004 MB for KS_eigenvector
  Integrating Hamiltonian matrix: batch-based integration.
  Time summed over all CPUs for integration: real work        0.072 s, elapsed        0.072 s
  Integrating overlap matrix.
  Time summed over all CPUs for integration: real work        0.040 s, elapsed        0.040 s

  Updating Kohn-Sham eigenvalues, eigenvectors, occupation numbers, and Fermi level.
  Solving generalized eigenproblem
  Updating Kohn-Sham eigenvalues and eigenfunctions.
  Transforming overlap matrix and checking for singularities.
  Overlap matrix is nonsingular:
  | Lowest eigenvalue:  0.204578E-02
  Solving real generalised eigenvalue problem by standard LAPACK (fast)

  Obtaining occupation numbers and chemical potential using ELSI.
  | Chemical potential (Fermi level):    -7.31839446eV
  Writing Kohn-Sham eigenvalues.

  State    Occupation    Eigenvalue [Ha]    Eigenvalue [eV]
      1       2.00000         -24.206606         -658.69527
      2       2.00000          -1.120027          -30.47749
      3       2.00000          -0.498158          -13.55556
      4       2.00000          -0.436653          -11.88193
      5       2.00000          -0.436653          -11.88193
      6       0.00000          -0.135563           -3.68885
      7       0.00000           0.062147            1.69110
      8       0.00000           0.109062            2.96773
      9       0.00000           0.109062            2.96773
     10       0.00000           0.111017            3.02092

  Highest occupied state (VBM) at    -11.88192771 eV
  | Occupation number:      2.00000000

  Lowest unoccupied state (CBM) at    -3.68884707 eV
  | Occupation number:      0.00000000

  Overall HOMO-LUMO gap:      8.19308064 eV.
  Calculating total energy contributions from superposition of free atom densities.

  Total energy components:
  | Sum of eigenvalues            :         -53.39619331 Ha       -1452.98434706 eV
  | XC energy correction          :          -9.92051541 Ha        -269.95095939 eV
  | XC potential correction       :          13.07822521 Ha         355.87661479 eV
  | Free-atom electrostatic energy:         -49.58546032 Ha       -1349.28902651 eV
  | Hartree energy correction     :          -0.00000000 Ha          -0.00000000 eV
  | Entropy correction            :          -0.00000000 Ha          -0.00000000 eV
  | ---------------------------
  | Total energy                  :         -99.82394384 Ha       -2716.34771817 eV
  | Total energy, T -> 0          :         -99.82394384 Ha       -2716.34771817 eV  <-- do not rely on this value for anything but (periodic) metals
  | Electronic free energy        :         -99.82394384 Ha       -2716.34771817 eV

  Derived energy quantities:
  | Kinetic energy                :          98.95058070 Ha        2692.58229793 eV
  | Electrostatic energy          :        -188.85400913 Ha       -5138.97905671 eV
  | Energy correction for multipole
  | error in Hartree potential    :           0.00000000 Ha           0.00000000 eV
  | Sum of eigenvalues per atom                           :        -726.49217353 eV
  | Total energy (T->0) per atom                          :       -1358.17385908 eV  <-- do not rely on this value for anything but (periodic) metals
  | Electronic free energy per atom                       :       -1358.17385908 eV
  
  --------------------------------------------
  Constructing auxiliary basis (full product) ...
  
  Product basis:
  | charge radius: extent of product basis function
  | field radius: extent of its Coulomb potential
  | Species   l  charge radius    field radius  multipol momen
  |    H      3     3.910002 A      3.910002 A       -9.840990E-16 a.u.
  |    H      3     3.910002 A      3.910002 A       -2.040079E-15 a.u.
  |    H      2     4.006780 A      4.006780 A       -2.838067E-17 a.u.
  |    H      2     4.156456 A      4.156456 A       -8.084987E-16 a.u.
  |    H      2     4.105953 A      4.156456 A        3.817252E-16 a.u.
  |    H      1     4.207581 A      4.207581 A        1.786776E-16 a.u.
  |    H      2     4.207581 A      4.207581 A       -1.403301E-16 a.u.
  |    H      2     4.207581 A      4.207581 A        1.672761E-15 a.u.
  |    H      1     4.259334 A      4.259334 A        5.930818E-16 a.u.
  |    H      1     4.311724 A      4.311724 A        1.508426E-16 a.u.
  |    H      1     4.472792 A      4.527807 A       -1.913603E-16 a.u.
  |    H      1     4.527807 A      4.527807 A       -1.924865E-17 a.u.
  |    H      0     5.307721 A      5.307721 A        7.196200E-17 a.u.
  |    H      0     5.307721 A      5.373006 A       -9.960206E-17 a.u.
  |    H      0     5.439094 A      5.505995 A       -3.196049E-17 a.u.
  |    H      0     5.439094 A      5.505995 A        2.238865E-16 a.u.
  |    H      0     5.439094 A      5.505995 A       -1.716769E-16 a.u.
  |    H      0     5.439094 A      5.505995 A        3.055919E-17 a.u.
  |    H      0     5.505995 A      5.573719 A       -2.809702E-16 a.u.
  |    H      4     3.723403 A  2.580116E+02 A            2.192707 a.u.
  |    H      3     3.958095 A  1.432892E+03 A            4.277983 a.u.
  |    H      2     4.207581 A  2.109876E+04 A            5.043794 a.u.
  |    H      1     4.472792 A  2.575321E+06 A            1.884736 a.u.
  |    H      0     5.505995 A  4.932155E+12 A            0.741696 a.u.
  |    F      0     1.816000 A      1.816000 A       -2.579486E-17 a.u.
  |    F      1     3.514108 A      3.514108 A       -5.541214E-17 a.u.
  |    F      1     3.514108 A      3.514108 A        1.164079E-17 a.u.
  |    F      7     3.601087 A      3.601087 A        3.155157E-15 a.u.
  |    F      2     3.645380 A      3.645380 A       -1.073290E-16 a.u.
  |    F      6     3.645380 A      3.645380 A       -3.872603E-15 a.u.
  |    F      1     3.735608 A      3.735608 A        6.409203E-17 a.u.
  |    F      1     3.735608 A      3.735608 A        3.341170E-17 a.u.
  |    F      0     3.828069 A      3.828069 A        1.218043E-17 a.u.
  |    F      6     3.828069 A      3.828069 A        2.515853E-14 a.u.
  |    F      4     3.875154 A      3.875154 A       -6.754096E-16 a.u.
  |    F      5     3.875154 A      3.875154 A        3.800743E-16 a.u.
  |    F      5     3.875154 A      3.875154 A       -8.954779E-15 a.u.
  |    F      3     3.922819 A      3.922819 A        8.469615E-17 a.u.
  |    F      5     3.922819 A      3.922819 A       -1.388839E-15 a.u.
  |    F      5     3.971070 A      3.971070 A        4.576144E-15 a.u.
  |    F      0     4.019914 A      4.019914 A       -5.065194E-17 a.u.
  |    F      3     4.019914 A      4.019914 A       -1.843481E-15 a.u.
  |    F      3     4.019914 A      4.019914 A        2.170020E-15 a.u.
  |    F      0     4.221373 A      4.221373 A       -2.091296E-17 a.u.
  |    F      1     4.432928 A      4.432928 A        2.179877E-16 a.u.
  |    F      4     4.542649 A      4.542649 A       -1.256674E-15 a.u.
  |    F      4     4.542649 A      4.542649 A        5.325042E-15 a.u.
  |    F      4     4.598524 A      4.598524 A       -1.291636E-14 a.u.
  |    F      4     4.598524 A      4.598524 A        1.462419E-14 a.u.
  |    F      4     4.655085 A      4.655085 A        2.651053E-15 a.u.
  |    F      0     4.828980 A      4.828980 A        6.673675E-16 a.u.
  |    F      0     4.828980 A      4.828980 A        7.132555E-17 a.u.
  |    F      0     4.828980 A      4.828980 A        4.328030E-17 a.u.
  |    F      3     4.888376 A      4.888376 A        7.735342E-15 a.u.
  |    F      3     4.888376 A      4.888376 A       -4.084850E-15 a.u.
  |    F      3     4.948503 A      4.948503 A        3.230627E-15 a.u.
  |    F      3     4.948503 A      4.948503 A        2.162562E-15 a.u.
  |    F      2     5.260416 A      5.260416 A       -4.195041E-16 a.u.
  |    F      2     5.325119 A      5.325119 A        1.439299E-17 a.u.
  |    F      0     5.325119 A      5.390618 A        3.263079E-16 a.u.
  |    F      1     5.390618 A      5.390618 A       -5.388251E-16 a.u.
  |    F      2     5.390618 A      5.390618 A       -4.152974E-16 a.u.
  |    F      2     5.390618 A      5.390618 A        4.807701E-16 a.u.
  |    F      0     5.390618 A      5.456923 A        5.768619E-17 a.u.
  |    F      1     5.390618 A      5.456923 A       -4.092902E-16 a.u.
  |    F      2     5.456923 A      5.456923 A        1.071490E-15 a.u.
  |    F      2     5.456923 A      5.456923 A       -1.534630E-15 a.u.
  |    F      0     5.456923 A      5.524043 A       -2.831613E-18 a.u.
  |    F      1     5.456923 A      5.524043 A       -6.677601E-16 a.u.
  |    F      1     5.456923 A      5.524043 A        2.431791E-16 a.u.
  |    F      2     5.456923 A      5.524043 A       -2.928908E-15 a.u.
  |    F      8     3.471409 A  2.457866E+01 A           80.057807 a.u.
  |    F      7     3.601087 A  3.944074E+01 A           75.777761 a.u.
  |    F      6     3.875154 A  7.810777E+01 A          121.462406 a.u.
  |    F      5     3.922819 A  1.814322E+02 A          129.261746 a.u.
  |    F      4     4.655085 A  5.204464E+02 A           73.225897 a.u.
  |    F      3     4.948503 A  2.433569E+03 A           35.592657 a.u.
  |    F      2     5.456923 A  2.974555E+04 A           14.133597 a.u.
  |    F      1     5.456923 A  3.137337E+06 A            2.797114 a.u.
  |    F      0     5.456923 A  4.659896E+12 A            0.700753 a.u.

  | Shrink_full_auxil_basis : there are       80  radial auxiliary wave functions
                            accepted and     112 rejected.
  | Shrink_full_auxil_basis : there are totally                 432 partial auxiliary wave functions.
  prodbas_tasks_distribution_pbc not up to date - distributing tasks.

  | Number of product basis functions per thread :   432
  Parallel distribution of product basis not up to date - distributing tasks.

  | Number of product basis functions per thread :   432
  | Minimal requirement for computer memory :           0.006 Gbs
  -----------------------------------------
  --- Initializing Fock matrix calculations
  -----------------------------------------
  screening_threshold (crit_val) =  0.000000100000
  coul_mat_threshold =  0.000000000100
  Number of super-cells in X Y Z:       0       0       0
  Number of atoms pairs total:            4
  Atom pair distribution:
  Cell:        0       0       0 atom pairs:        4
  Number of atoms pairs in BvK cells:            4
  Initializing work distribution for fock matrix calculation
  -----------------------------------------------------
  Dividing atoms among tasks for exact exchange energy:
  Atom:     1 Weight:   86.000
  Atom:     2 Weight:   346.00

  Average weight per task:   432.00

  Number of "big" (above average) atoms  :     0
  Number of "small" (below average) atoms:     2

  All atoms have below average work per task
  No atom will be divided among tasks, atoms will be sorted to get best load distribution

  Atom division among tasks:
  Atom     1: (initial) task:     0, # of tasks:     1
  Atom     2: (initial) task:     0, # of tasks:     1

  -----------------------------------------------------
  Task     0 : Coulomb matrix distribution changed.
  Overall Coulomb matrix distribution changed.
  Coulomb matrix subdivision:
  Task     0 works on full atoms (no Coulomb matrix division)
  Task      0: my_n_atoms:      2 my_atom_list:      1     2
  Task      0: my_n_atom_pairs:      4
  Memory needs for ovlp3fn and Coulomb matrix:
  For Coulomb matrix, this is the upper limit if no compression occurs
  ovlp3fn:        6.387 MB, Coulomb:        1.493 MB
  --- Initializing LVL triples
  | Storage requirements for basis-basbas products (processor-local):
  |   Species H: n_prodsfn:   226; storage:        7.06 MiB.
  |   Species F: n_prodsfn:  1141; storage:       35.66 MiB.

  --- Initializing Coulomb matrix calculations
  Preparing TB like auxiliary 2-center Coulomb matrix
  SBT integration errors (all should be 'small'):
  large logFT aliasing -> increase N/lnrange
  large SBT aliasing -> decrease lnk0 & increase lnk0+lnrange
  large SBT ringing -> decrease lnr0 & increase lnr0+lnrange
  |            El't  L: logFT-al.   small-k   large-k   small-r   large-r
  | Need to store  6915 splines of   199 points taking      10864 KiB.
  | Spline reduction from  4096 to   199 points by (cutting and)     1 x coarsening gives error:  0.00E+00
  Finished with initialize_tb_auxmat/lvl_triples, time:        1.378
  --- Calculating OVLP3FN
  Allocating        8.420 MB for coeff_3fn
  --- Done calculating OVLP3FN, time:        2.018
  Atomic logSBT for LVL-triples                :  max(cpu_time)    wall_clock(cpu1)
  | Multiplication with kernel                 :        0.002 s           0.004 s
  | Main matrix multiplication                 :        0.158 s           0.147 s
  | Analytic angular integration               :        0.004 s           0.005 s
  | Kernel construction                        :        0.002 s           0.001 s
  | Overall 2-center overlap time              :        0.177 s           0.174 s
  | 3-center preparation multiplications       :        0.043 s           0.044 s
  | 3-center preparation SBTs                  :        0.776 s           0.775 s
  | 3-center combinations                      :        0.211 s           0.213 s
  | Overal 3-center time                       :        1.036 s           1.037 s
  | LVL initialization                         :        0.068 s           0.069 s
  | Whole LVL-triples                          :        0.068 s           0.069 s

  --- Done getting norm of OVLP3FN, time:        0.001
  --- Calculating Coulomb matrices
  Allocating        0.958 MB for aux_mat
  Time to calculate Coulomb Matrices   :        0.001
  Number of Coulomb matrix elements:
  | Task     0 total:         186624, > threshold:          10064, stored:         179400
  --- Done init_fock_matrix_calculations
  Atomic logSBT for 2-center Coulomb matrix    :  max(cpu_time)    wall_clock(cpu1)
  | TB initialization                          :        1.310 s           1.309 s
  | TB usage                                   :        0.004 s           0.003 s

  Calculating non-local Hartree-Fock exchange by two-center RI (RI-LVL).
  screening_threshold (crit_val) =  0.000000100000
  Allocating        0.023 MB for dm_cols
  Allocating        0.299 MB for ovlp3fn_rcv
  Allocating        0.023 MB for fock_matrix
  Allocating        0.000 MB for fock_matrix_row
  Exact exchange progress report - outermost basis function loop i_basis_r1: 1 ..  54
  |        1         2         3         4         5         6         7         8         9        10
  |       11        12        13        14        15        16        17        18        19        20
  |       21        22        23        24        25        26        27        28        29        30
  |       31        32        33        34        35        36        37        38        39        40
  |       41        42        43        44        45        46        47        48        49        50
  |       51        52        53        54  
  Full exact exchange energy:     284.808466867397 eV.
  Times            DM_x_o3fn   CM_x_o3fn    Products        Sync   Imbalance    Pre/Post       Other  Total calc
  | Times    0:        0.022       0.506       0.121       0.002       0.001       0.000       0.016       0.668
  | Times  sum:        0.022       0.506       0.121       0.002       0.001       0.000       0.016       0.668

  Decomposition of Other based on code block (only on MPI task 0):
  Times             Block #1    Block #2    Block #3    Block #4    Block #5    Block #6    Block #7    Block #8
  | Times    0:        0.000       0.000       0.000       0.000       0.000       0.000       0.004       0.000

  Times             Block #9   Block #10   Block #11   Block #12   Block #13   Block #14   Block #15   Block #16
  | Times    0:        0.001       0.003       0.000       0.000       0.001       0.000       0.000       0.000

  Times            Block Sum    Expected
  | Times    0:        0.009       0.016
  Initialize hartree_potential_storage
  Max. number of atoms included in rho_multipole:            2

  End scf initialization - timings             :  max(cpu_time)    wall_clock(cpu1)
  | Time for scf. initialization               :        4.289 s           4.289 s
  | Boundary condition initialization          :        0.000 s           0.000 s
  | Integration                                :        0.112 s           0.112 s
  | Solution of K.-S. eqns.                    :        0.002 s           0.002 s
  | Grid partitioning                          :        0.033 s           0.033 s
  | Preloading free-atom quantities on grid    :        0.006 s           0.005 s
  | Free-atom superposition energy             :        0.019 s           0.020 s
  | Total energy evaluation                    :        0.000 s           0.000 s
  | Product basis setup: Total time            :        4.102 s           4.102 s

  Partial memory accounting:
  | Current value for overall tracked memory usage on task 0  :           7.904 MB
  | Peak value for overall tracked memory usage on task 0     :          14.882 MB after allocating d_coeff_3fn
  | Largest tracked array allocation on task 0 so far         :           8.420 MB  when allocating +coeff_3fn
  Note:  These values currently only include a subset of arrays which are explicitly tracked.
  The "true" memory usage will be greater.
------------------------------------------------------------

------------------------------------------------------------
          Begin self-consistency iteration #    1

  Date     :  20190507, Time     :  191123.259
------------------------------------------------------------
  Evaluating new KS density.
  Integration grid: deviation in total charge (<rho> - N_e) =  -1.243450E-14
  Pulay mixing of updated and previous charge densities.

  Evaluating partitioned Hartree potential by multipole expansion.
  | Analytical far-field extrapolation by fixed multipoles:
  | Hartree multipole sum: apparent total charge =  -0.988992E-06
  Summing up the Hartree potential.
  Time summed over all CPUs for potential: real work        0.027 s, elapsed        0.027 s
  | RMS charge density error from multipole expansion :   0.459530E-04

  Integrating Hamiltonian matrix: batch-based integration.
  Time summed over all CPUs for integration: real work        0.058 s, elapsed        0.058 s
  Calculating non-local Hartree-Fock exchange by two-center RI (RI-LVL).
  screening_threshold (crit_val) =  0.000000100000
  Allocating        0.023 MB for dm_cols
  Allocating        0.299 MB for ovlp3fn_rcv
  Allocating        0.023 MB for fock_matrix
  Allocating        0.000 MB for fock_matrix_row
  Exact exchange progress report - outermost basis function loop i_basis_r1: 1 ..  54
  |        1         2         3         4         5         6         7         8         9        10
  |       11        12        13        14        15        16        17        18        19        20
  |       21        22        23        24        25        26        27        28        29        30
  |       31        32        33        34        35        36        37        38        39        40
  |       41        42        43        44        45        46        47        48        49        50
  |       51        52        53        54  
  Full exact exchange energy:     284.808466867397 eV.
  Times            DM_x_o3fn   CM_x_o3fn    Products        Sync   Imbalance    Pre/Post       Other  Total calc
  | Times    0:        0.023       0.497       0.117       0.001       0.000       0.000       0.019       0.657
  | Times  sum:        0.023       0.497       0.117       0.001       0.000       0.000       0.019       0.657

  Decomposition of Other based on code block (only on MPI task 0):
  Times             Block #1    Block #2    Block #3    Block #4    Block #5    Block #6    Block #7    Block #8
  | Times    0:        0.000       0.000       0.000       0.000       0.000       0.000       0.005       0.000

  Times             Block #9   Block #10   Block #11   Block #12   Block #13   Block #14   Block #15   Block #16
  | Times    0:        0.000       0.001       0.002       0.000       0.000       0.000       0.002       0.000

  Times            Block Sum    Expected
  | Times    0:        0.010       0.019

  Updating Kohn-Sham eigenvalues, eigenvectors, occupation numbers, and Fermi level.
  Solving generalized eigenproblem
  Updating Kohn-Sham eigenvalues and eigenfunctions.
  Solving real generalised eigenvalue problem by standard LAPACK (fast)

  Obtaining occupation numbers and chemical potential using ELSI.
  | Chemical potential (Fermi level):   -17.02996346eV
  Writing Kohn-Sham eigenvalues.

  State    Occupation    Eigenvalue [Ha]    Eigenvalue [eV]
      1       2.00000         -26.418267         -718.87762
      2       2.00000          -1.665563          -45.32228
      3       2.00000          -0.772344          -21.01656
      4       2.00000          -0.772344          -21.01656
      5       2.00000          -0.756193          -20.57705
      6       0.00000           0.044269            1.20461
      7       0.00000           0.191473            5.21024
      8       0.00000           0.201946            5.49524
      9       0.00000           0.206174            5.61028
     10       0.00000           0.206174            5.61028

  Highest occupied state (VBM) at    -20.57704851 eV
  | Occupation number:      2.00000000

  Lowest unoccupied state (CBM) at     1.20461073 eV
  | Occupation number:      0.00000000

  Overall HOMO-LUMO gap:     21.78165924 eV.

  Total energy components:
  | Sum of eigenvalues            :         -60.76942260 Ha       -1653.62012414 eV
  | XC energy correction          :          10.51595244 Ha         286.15362534 eV
  | XC potential correction       :          -0.00000000 Ha          -0.00000000 eV
  | Free-atom electrostatic energy:         -49.58546032 Ha       -1349.28902651 eV
  | Hartree energy correction     :          -0.15871352 Ha          -4.31881472 eV
  | Entropy correction            :          -0.00000000 Ha          -0.00000000 eV
  | ---------------------------
  | Total energy                  :         -99.99764400 Ha       -2721.07434003 eV
  | Total energy, T -> 0          :         -99.99764400 Ha       -2721.07434003 eV  <-- do not rely on this value for anything but (periodic) metals
  | Electronic free energy        :         -99.99764400 Ha       -2721.07434003 eV

  Derived energy quantities:
  | Kinetic energy                :          99.44402946 Ha        2706.00972200 eV
  | Electrostatic energy          :        -188.92572102 Ha       -5140.93043668 eV
  | Energy correction for multipole
  | error in Hartree potential    :          -0.00004197 Ha          -0.00114202 eV
  | Sum of eigenvalues per atom                           :        -826.81006207 eV
  | Total energy (T->0) per atom                          :       -1360.53717001 eV  <-- do not rely on this value for anything but (periodic) metals
  | Electronic free energy per atom                       :       -1360.53717001 eV

  Self-consistency convergence accuracy:
  | Change of charge density      :  0.2245E+00
  | Change of sum of eigenvalues  : -0.2006E+03 eV
  | Change of total energy        : -0.4727E+01 eV

  End self-consistency iteration #     1       :  max(cpu_time)    wall_clock(cpu1)
  | Time for this iteration                    :        0.766 s           0.767 s
  | Charge density update                      :        0.022 s           0.022 s
  | Density mixing                             :        0.000 s           0.000 s
  | Hartree multipole update                   :        0.002 s           0.002 s
  | Hartree multipole summation                :        0.027 s           0.027 s
  | Integration                                :        0.058 s           0.058 s
  | Fock matrix evaluation                     :        0.657 s           0.657 s
  | Solution of K.-S. eqns.                    :        0.001 s           0.000 s
  | Total energy evaluation                    :        0.000 s           0.001 s

  Partial memory accounting:
  | Current value for overall tracked memory usage on task 0  :           7.904 MB
  | Peak value for overall tracked memory usage on task 0     :          14.882 MB after allocating d_coeff_3fn
  | Largest tracked array allocation on task 0 so far         :           8.420 MB  when allocating +coeff_3fn
  Note:  These values currently only include a subset of arrays which are explicitly tracked.
  The "true" memory usage will be greater.
------------------------------------------------------------

------------------------------------------------------------
          Begin self-consistency iteration #    2

  Date     :  20190507, Time     :  191124.026
------------------------------------------------------------
  Evaluating new KS density.
  Integration grid: deviation in total charge (<rho> - N_e) =   1.776357E-14
  Pulay mixing of updated and previous charge densities.

  Evaluating partitioned Hartree potential by multipole expansion.
  | Analytical far-field extrapolation by fixed multipoles:
  | Hartree multipole sum: apparent total charge =  -0.443814E-06
  Summing up the Hartree potential.
  Time summed over all CPUs for potential: real work        0.024 s, elapsed        0.024 s
  | RMS charge density error from multipole expansion :   0.136293E-03

  Integrating Hamiltonian matrix: batch-based integration.
  Time summed over all CPUs for integration: real work        0.058 s, elapsed        0.058 s
  Calculating non-local Hartree-Fock exchange by two-center RI (RI-LVL).
  screening_threshold (crit_val) =  0.000000100000
  Allocating        0.023 MB for dm_cols
  Allocating        0.299 MB for ovlp3fn_rcv
  Allocating        0.023 MB for fock_matrix
  Allocating        0.000 MB for fock_matrix_row
  Exact exchange progress report - outermost basis function loop i_basis_r1: 1 ..  54
  |        1         2         3         4         5         6         7         8         9        10
  |       11        12        13        14        15        16        17        18        19        20
  |       21        22        23        24        25        26        27        28        29        30
  |       31        32        33        34        35        36        37        38        39        40
  |       41        42        43        44        45        46        47        48        49        50
  |       51        52        53        54  
  Full exact exchange energy:     287.631812538830 eV.
  Times            DM_x_o3fn   CM_x_o3fn    Products        Sync   Imbalance    Pre/Post       Other  Total calc
  | Times    0:        0.024       0.506       0.108       0.001       0.000       0.000       0.019       0.658
  | Times  sum:        0.024       0.506       0.108       0.001       0.000       0.000       0.019       0.658

  Decomposition of Other based on code block (only on MPI task 0):
  Times             Block #1    Block #2    Block #3    Block #4    Block #5    Block #6    Block #7    Block #8
  | Times    0:        0.000       0.000       0.002       0.002       0.000       0.001       0.000       0.000

  Times             Block #9   Block #10   Block #11   Block #12   Block #13   Block #14   Block #15   Block #16
  | Times    0:        0.000       0.002       0.000       0.000       0.000       0.002       0.001       0.000

  Times            Block Sum    Expected
  | Times    0:        0.010       0.019

  Updating Kohn-Sham eigenvalues, eigenvectors, occupation numbers, and Fermi level.
  Solving generalized eigenproblem
  Updating Kohn-Sham eigenvalues and eigenfunctions.
  Solving real generalised eigenvalue problem by standard LAPACK (fast)

  Obtaining occupation numbers and chemical potential using ELSI.
  | Chemical potential (Fermi level):   -17.12400642eV
  Highest occupied state (VBM) at    -21.90273902 eV
  | Occupation number:      2.00000000

  Lowest unoccupied state (CBM) at     1.35319662 eV
  | Occupation number:      0.00000000

  Overall HOMO-LUMO gap:     23.25593564 eV.

  Checking to see if s.c.f. parameters should be adjusted.
  The system likely has a gap. Increased the default Pulay mixing parameter (charge_mix_param). Value:   0.200000 .
  Kept the default occupation width. Value:   0.010000 eV.

  Total energy components:
  | Sum of eigenvalues            :         -61.48594649 Ha       -1673.11773128 eV
  | XC energy correction          :          10.54784493 Ha         287.02146395 eV
  | XC potential correction       :          -0.00000000 Ha          -0.00000000 eV
  | Free-atom electrostatic energy:         -49.58546032 Ha       -1349.28902651 eV
  | Hartree energy correction     :           0.50815142 Ha          13.82750359 eV
  | Entropy correction            :          -0.00000000 Ha          -0.00000000 eV
  | ---------------------------
  | Total energy                  :        -100.01541047 Ha       -2721.55779025 eV
  | Total energy, T -> 0          :        -100.01541047 Ha       -2721.55779025 eV  <-- do not rely on this value for anything but (periodic) metals
  | Electronic free energy        :        -100.01541047 Ha       -2721.55779025 eV

  Derived energy quantities:
  | Kinetic energy                :          99.11834519 Ha        2697.14740193 eV
  | Electrostatic energy          :        -188.58591073 Ha       -5131.68372822 eV
  | Energy correction for multipole
  | error in Hartree potential    :           0.00012638 Ha           0.00343911 eV
  | Sum of eigenvalues per atom                           :        -836.55886564 eV
  | Total energy (T->0) per atom                          :       -1360.77889512 eV  <-- do not rely on this value for anything but (periodic) metals
  | Electronic free energy per atom                       :       -1360.77889512 eV

  Self-consistency convergence accuracy:
  | Change of charge density      :  0.2531E+00
  | Change of sum of eigenvalues  : -0.1950E+02 eV
  | Change of total energy        : -0.4835E+00 eV

  End self-consistency iteration #     2       :  max(cpu_time)    wall_clock(cpu1)
  | Time for this iteration                    :        0.764 s           0.764 s
  | Charge density update                      :        0.021 s           0.021 s
  | Density mixing                             :        0.000 s           0.000 s
  | Hartree multipole update                   :        0.002 s           0.002 s
  | Hartree multipole summation                :        0.024 s           0.024 s
  | Integration                                :        0.058 s           0.058 s
  | Fock matrix evaluation                     :        0.658 s           0.658 s
  | Solution of K.-S. eqns.                    :        0.001 s           0.001 s
  | Total energy evaluation                    :        0.000 s           0.000 s

  Partial memory accounting:
  | Current value for overall tracked memory usage on task 0  :           7.905 MB
  | Peak value for overall tracked memory usage on task 0     :          14.882 MB after allocating d_coeff_3fn
  | Largest tracked array allocation on task 0 so far         :           8.420 MB  when allocating +coeff_3fn
  Note:  These values currently only include a subset of arrays which are explicitly tracked.
  The "true" memory usage will be greater.
------------------------------------------------------------

------------------------------------------------------------
          Begin self-consistency iteration #    3

  Date     :  20190507, Time     :  191124.790
------------------------------------------------------------
  Evaluating new KS density.
  Integration grid: deviation in total charge (<rho> - N_e) =  -1.065814E-14
  Pulay mixing of updated and previous charge densities.

  Evaluating partitioned Hartree potential by multipole expansion.
  | Analytical far-field extrapolation by fixed multipoles:
  | Hartree multipole sum: apparent total charge =  -0.262672E-05
  Summing up the Hartree potential.
  Time summed over all CPUs for potential: real work        0.025 s, elapsed        0.025 s
  | RMS charge density error from multipole expansion :   0.739724E-03

  Integrating Hamiltonian matrix: batch-based integration.
  Time summed over all CPUs for integration: real work        0.057 s, elapsed        0.057 s
  Calculating non-local Hartree-Fock exchange by two-center RI (RI-LVL).
  screening_threshold (crit_val) =  0.000000100000
  Allocating        0.023 MB for dm_cols
  Allocating        0.299 MB for ovlp3fn_rcv
  Allocating        0.023 MB for fock_matrix
  Allocating        0.000 MB for fock_matrix_row
  Exact exchange progress report - outermost basis function loop i_basis_r1: 1 ..  54
  |        1         2         3         4         5         6         7         8         9        10
  |       11        12        13        14        15        16        17        18        19        20
  |       21        22        23        24        25        26        27        28        29        30
  |       31        32        33        34        35        36        37        38        39        40
  |       41        42        43        44        45        46        47        48        49        50
  |       51        52        53        54  
  Full exact exchange energy:     290.127207710690 eV.
  Times            DM_x_o3fn   CM_x_o3fn    Products        Sync   Imbalance    Pre/Post       Other  Total calc
  | Times    0:        0.024       0.505       0.114       0.001       0.001       0.000       0.013       0.658
  | Times  sum:        0.024       0.505       0.114       0.001       0.001       0.000       0.013       0.658

  Decomposition of Other based on code block (only on MPI task 0):
  Times             Block #1    Block #2    Block #3    Block #4    Block #5    Block #6    Block #7    Block #8
  | Times    0:        0.000       0.000       0.000       0.000       0.000       0.000       0.001       0.001

  Times             Block #9   Block #10   Block #11   Block #12   Block #13   Block #14   Block #15   Block #16
  | Times    0:        0.000       0.000       0.000       0.001       0.003       0.000       0.000       0.000

  Times            Block Sum    Expected
  | Times    0:        0.006       0.013

  Updating Kohn-Sham eigenvalues, eigenvectors, occupation numbers, and Fermi level.
  Solving generalized eigenproblem
  Updating Kohn-Sham eigenvalues and eigenfunctions.
  Solving real generalised eigenvalue problem by standard LAPACK (fast)

  Obtaining occupation numbers and chemical potential using ELSI.
  | Chemical potential (Fermi level):    -4.85568508eV
  Highest occupied state (VBM) at    -15.77051663 eV
  | Occupation number:      2.00000000

  Lowest unoccupied state (CBM) at     0.61978861 eV
  | Occupation number:      0.00000000

  Overall HOMO-LUMO gap:     16.39030524 eV.

  Total energy components:
  | Sum of eigenvalues            :         -58.70992599 Ha       -1597.57837004 eV
  | XC energy correction          :          10.36570212 Ha         282.06510589 eV
  | XC potential correction       :          -0.00000000 Ha          -0.00000000 eV
  | Free-atom electrostatic energy:         -49.58546032 Ha       -1349.28902651 eV
  | Hartree energy correction     :          -2.15335010 Ha         -58.59563766 eV
  | Entropy correction            :          -0.00000000 Ha          -0.00000000 eV
  | ---------------------------
  | Total energy                  :        -100.08303430 Ha       -2723.39792831 eV
  | Total energy, T -> 0          :        -100.08303430 Ha       -2723.39792831 eV  <-- do not rely on this value for anything but (periodic) metals
  | Electronic free energy        :        -100.08303430 Ha       -2723.39792831 eV

  Derived energy quantities:
  | Kinetic energy                :         100.02207787 Ha        2721.73921933 eV
  | Electrostatic energy          :        -189.73941005 Ha       -5163.07204176 eV
  | Energy correction for multipole
  | error in Hartree potential    :          -0.00071672 Ha          -0.01950302 eV
  | Sum of eigenvalues per atom                           :        -798.78918502 eV
  | Total energy (T->0) per atom                          :       -1361.69896416 eV  <-- do not rely on this value for anything but (periodic) metals
  | Electronic free energy per atom                       :       -1361.69896416 eV

  Self-consistency convergence accuracy:
  | Change of charge density      :  0.3431E+00
  | Change of sum of eigenvalues  :  0.7554E+02 eV
  | Change of total energy        : -0.1840E+01 eV

  End self-consistency iteration #     3       :  max(cpu_time)    wall_clock(cpu1)
  | Time for this iteration                    :        0.764 s           0.764 s
  | Charge density update                      :        0.022 s           0.022 s
  | Density mixing                             :        0.001 s           0.000 s
  | Hartree multipole update                   :        0.002 s           0.002 s
  | Hartree multipole summation                :        0.025 s           0.025 s
  | Integration                                :        0.057 s           0.057 s
  | Fock matrix evaluation                     :        0.657 s           0.658 s
  | Solution of K.-S. eqns.                    :        0.001 s           0.000 s
  | Total energy evaluation                    :        0.000 s           0.000 s

  Partial memory accounting:
  | Current value for overall tracked memory usage on task 0  :           7.905 MB
  | Peak value for overall tracked memory usage on task 0     :          14.882 MB after allocating d_coeff_3fn
  | Largest tracked array allocation on task 0 so far         :           8.420 MB  when allocating +coeff_3fn
  Note:  These values currently only include a subset of arrays which are explicitly tracked.
  The "true" memory usage will be greater.
------------------------------------------------------------

------------------------------------------------------------
          Begin self-consistency iteration #    4

  Date     :  20190507, Time     :  191125.554
------------------------------------------------------------
  Evaluating new KS density.
  Integration grid: deviation in total charge (<rho> - N_e) =   3.552714E-15
  Pulay mixing of updated and previous charge densities.

  Evaluating partitioned Hartree potential by multipole expansion.
  | Analytical far-field extrapolation by fixed multipoles:
  | Hartree multipole sum: apparent total charge =  -0.298405E-05
  Summing up the Hartree potential.
  Time summed over all CPUs for potential: real work        0.024 s, elapsed        0.024 s
  | RMS charge density error from multipole expansion :   0.138873E-02

  Integrating Hamiltonian matrix: batch-based integration.
  Time summed over all CPUs for integration: real work        0.058 s, elapsed        0.058 s
  Calculating non-local Hartree-Fock exchange by two-center RI (RI-LVL).
  screening_threshold (crit_val) =  0.000000100000
  Allocating        0.023 MB for dm_cols
  Allocating        0.299 MB for ovlp3fn_rcv
  Allocating        0.023 MB for fock_matrix
  Allocating        0.000 MB for fock_matrix_row
  Exact exchange progress report - outermost basis function loop i_basis_r1: 1 ..  54
  |        1         2         3         4         5         6         7         8         9        10
  |       11        12        13        14        15        16        17        18        19        20
  |       21        22        23        24        25        26        27        28        29        30
  |       31        32        33        34        35        36        37        38        39        40
  |       41        42        43        44        45        46        47        48        49        50
  |       51        52        53        54  
  Full exact exchange energy:     279.116381005806 eV.
  Times            DM_x_o3fn   CM_x_o3fn    Products        Sync   Imbalance    Pre/Post       Other  Total calc
  | Times    0:        0.019       0.510       0.112       0.002       0.000       0.000       0.015       0.658
  | Times  sum:        0.019       0.510       0.112       0.002       0.000       0.000       0.015       0.658

  Decomposition of Other based on code block (only on MPI task 0):
  Times             Block #1    Block #2    Block #3    Block #4    Block #5    Block #6    Block #7    Block #8
  | Times    0:        0.000       0.000       0.001       0.000       0.000       0.002       0.004       0.000

  Times             Block #9   Block #10   Block #11   Block #12   Block #13   Block #14   Block #15   Block #16
  | Times    0:        0.000       0.001       0.001       0.000       0.002       0.001       0.000       0.000

  Times            Block Sum    Expected
  | Times    0:        0.012       0.015

  Updating Kohn-Sham eigenvalues, eigenvectors, occupation numbers, and Fermi level.
  Solving generalized eigenproblem
  Updating Kohn-Sham eigenvalues and eigenfunctions.
  Solving real generalised eigenvalue problem by standard LAPACK (fast)

  Obtaining occupation numbers and chemical potential using ELSI.
  | Chemical potential (Fermi level):    -4.70949305eV
  Highest occupied state (VBM) at    -15.53058691 eV
  | Occupation number:      2.00000000

  Lowest unoccupied state (CBM) at     0.32155170 eV
  | Occupation number:      0.00000000

  Overall HOMO-LUMO gap:     15.85213861 eV.

  Total energy components:
  | Sum of eigenvalues            :         -58.78279970 Ha       -1599.56136473 eV
  | XC energy correction          :          10.28372615 Ha         279.83442628 eV
  | XC potential correction       :          -0.00000000 Ha          -0.00000000 eV
  | Free-atom electrostatic energy:         -49.58546032 Ha       -1349.28902651 eV
  | Hartree energy correction     :          -1.95694579 Ha         -53.25120422 eV
  | Entropy correction            :          -0.00000000 Ha          -0.00000000 eV
  | ---------------------------
  | Total energy                  :        -100.04147967 Ha       -2722.26716918 eV
  | Total energy, T -> 0          :        -100.04147967 Ha       -2722.26716918 eV  <-- do not rely on this value for anything but (periodic) metals
  | Electronic free energy        :        -100.04147967 Ha       -2722.26716918 eV

  Derived energy quantities:
  | Kinetic energy                :          99.54993915 Ha        2708.89167117 eV
  | Electrostatic energy          :        -189.30769267 Ha       -5151.32441407 eV
  | Energy correction for multipole
  | error in Hartree potential    :          -0.00134801 Ha          -0.03668121 eV
  | Sum of eigenvalues per atom                           :        -799.78068237 eV
  | Total energy (T->0) per atom                          :       -1361.13358459 eV  <-- do not rely on this value for anything but (periodic) metals
  | Electronic free energy per atom                       :       -1361.13358459 eV

  Self-consistency convergence accuracy:
  | Change of charge density      :  0.1097E+00
  | Change of sum of eigenvalues  : -0.1983E+01 eV
  | Change of total energy        :  0.1131E+01 eV

  End self-consistency iteration #     4       :  max(cpu_time)    wall_clock(cpu1)
  | Time for this iteration                    :        0.765 s           0.765 s
  | Charge density update                      :        0.021 s           0.022 s
  | Density mixing                             :        0.001 s           0.001 s
  | Hartree multipole update                   :        0.002 s           0.002 s
  | Hartree multipole summation                :        0.024 s           0.024 s
  | Integration                                :        0.058 s           0.058 s
  | Fock matrix evaluation                     :        0.658 s           0.658 s
  | Solution of K.-S. eqns.                    :        0.001 s           0.000 s
  | Total energy evaluation                    :        0.000 s           0.000 s

  Partial memory accounting:
  | Current value for overall tracked memory usage on task 0  :           7.905 MB
  | Peak value for overall tracked memory usage on task 0     :          14.882 MB after allocating d_coeff_3fn
  | Largest tracked array allocation on task 0 so far         :           8.420 MB  when allocating +coeff_3fn
  Note:  These values currently only include a subset of arrays which are explicitly tracked.
  The "true" memory usage will be greater.
------------------------------------------------------------

------------------------------------------------------------
          Begin self-consistency iteration #    5

  Date     :  20190507, Time     :  191126.319
------------------------------------------------------------
  Evaluating new KS density.
  Integration grid: deviation in total charge (<rho> - N_e) =   7.283063E-14
  Pulay mixing of updated and previous charge densities.

  Evaluating partitioned Hartree potential by multipole expansion.
  | Analytical far-field extrapolation by fixed multipoles:
  | Hartree multipole sum: apparent total charge =  -0.323436E-05
  Summing up the Hartree potential.
  Time summed over all CPUs for potential: real work        0.025 s, elapsed        0.025 s
  | RMS charge density error from multipole expansion :   0.177596E-02

  Integrating Hamiltonian matrix: batch-based integration.
  Time summed over all CPUs for integration: real work        0.057 s, elapsed        0.057 s
  Calculating non-local Hartree-Fock exchange by two-center RI (RI-LVL).
  screening_threshold (crit_val) =  0.000000100000
  Allocating        0.023 MB for dm_cols
  Allocating        0.299 MB for ovlp3fn_rcv
  Allocating        0.023 MB for fock_matrix
  Allocating        0.000 MB for fock_matrix_row
  Exact exchange progress report - outermost basis function loop i_basis_r1: 1 ..  54
  |        1         2         3         4         5         6         7         8         9        10
  |       11        12        13        14        15        16        17        18        19        20
  |       21        22        23        24        25        26        27        28        29        30
  |       31        32        33        34        35        36        37        38        39        40
  |       41        42        43        44        45        46        47        48        49        50
  |       51        52        53        54  
  Full exact exchange energy:     278.009692523057 eV.
  Times            DM_x_o3fn   CM_x_o3fn    Products        Sync   Imbalance    Pre/Post       Other  Total calc
  | Times    0:        0.020       0.505       0.107       0.000       0.002       0.000       0.020       0.654
  | Times  sum:        0.020       0.505       0.107       0.000       0.002       0.000       0.020       0.654

  Decomposition of Other based on code block (only on MPI task 0):
  Times             Block #1    Block #2    Block #3    Block #4    Block #5    Block #6    Block #7    Block #8
  | Times    0:        0.000       0.000       0.000       0.000       0.000       0.000       0.005       0.002

  Times             Block #9   Block #10   Block #11   Block #12   Block #13   Block #14   Block #15   Block #16
  | Times    0:        0.000       0.001       0.003       0.001       0.002       0.002       0.000       0.000

  Times            Block Sum    Expected
  | Times    0:        0.016       0.020

  Updating Kohn-Sham eigenvalues, eigenvectors, occupation numbers, and Fermi level.
  Solving generalized eigenproblem
  Updating Kohn-Sham eigenvalues and eigenfunctions.
  Solving real generalised eigenvalue problem by standard LAPACK (fast)

  Obtaining occupation numbers and chemical potential using ELSI.
  | Chemical potential (Fermi level):    -4.57788842eV
[...]
  |       51        52        53        54  
  Full exact exchange energy:     278.486123736954 eV.
  Times            DM_x_o3fn   CM_x_o3fn    Products        Sync   Imbalance    Pre/Post       Other  Total calc
  | Times    0:        0.020       0.500       0.114       0.002       0.001       0.000       0.022       0.659
  | Times  sum:        0.020       0.500       0.114       0.002       0.001       0.000       0.022       0.659

  Decomposition of Other based on code block (only on MPI task 0):
  Times             Block #1    Block #2    Block #3    Block #4    Block #5    Block #6    Block #7    Block #8
  | Times    0:        0.000       0.000       0.002       0.000       0.000       0.000       0.001       0.000

  Times             Block #9   Block #10   Block #11   Block #12   Block #13   Block #14   Block #15   Block #16
  | Times    0:        0.002       0.001       0.001       0.002       0.002       0.002       0.000       0.000

  Times            Block Sum    Expected
  | Times    0:        0.013       0.022

  Updating Kohn-Sham eigenvalues, eigenvectors, occupation numbers, and Fermi level.
  Solving generalized eigenproblem
  Updating Kohn-Sham eigenvalues and eigenfunctions.
  Solving real generalised eigenvalue problem by standard LAPACK (fast)

  Obtaining occupation numbers and chemical potential using ELSI.
  | Chemical potential (Fermi level):   -16.30689812eV
  Highest occupied state (VBM) at    -16.88466768 eV
  | Occupation number:      2.00000000

  Lowest unoccupied state (CBM) at     0.48569609 eV
  | Occupation number:      0.00000000

  Overall HOMO-LUMO gap:     17.37036377 eV.

  Total energy components:
  | Sum of eigenvalues            :         -59.34668034 Ha       -1614.90533760 eV
  | XC energy correction          :          10.23418208 Ha         278.48626356 eV
  | XC potential correction       :          -0.00000000 Ha          -0.00000000 eV
  | Free-atom electrostatic energy:         -49.58546032 Ha       -1349.28902651 eV
  | Hartree energy correction     :          -1.27219045 Ha         -34.61806350 eV
  | Entropy correction            :          -0.00000000 Ha          -0.00000000 eV
  | ---------------------------
  | Total energy                  :         -99.97014904 Ha       -2720.32616405 eV
  | Total energy, T -> 0          :         -99.97014904 Ha       -2720.32616405 eV  <-- do not rely on this value for anything but (periodic) metals
  | Electronic free energy        :         -99.97014904 Ha       -2720.32616405 eV

  Derived energy quantities:
  | Kinetic energy                :          99.18816551 Ha        2699.04730964 eV
  | Electrostatic energy          :        -188.92413248 Ha       -5140.88721013 eV
  | Energy correction for multipole
  | error in Hartree potential    :          -0.00123913 Ha          -0.03371845 eV
  | Sum of eigenvalues per atom                           :        -807.45266880 eV
  | Total energy (T->0) per atom                          :       -1360.16308202 eV  <-- do not rely on this value for anything but (periodic) metals
  | Electronic free energy per atom                       :       -1360.16308202 eV

  Self-consistency convergence accuracy:
  | Change of charge density      :  0.8508E-05
  | Change of sum of eigenvalues  : -0.7095E-03 eV
  | Change of total energy        :  0.3631E-03 eV

  End self-consistency iteration #    16       :  max(cpu_time)    wall_clock(cpu1)
  | Time for this iteration                    :        0.768 s           0.768 s
  | Charge density update                      :        0.021 s           0.021 s
  | Density mixing                             :        0.001 s           0.002 s
  | Hartree multipole update                   :        0.002 s           0.002 s
  | Hartree multipole summation                :        0.025 s           0.024 s
  | Integration                                :        0.057 s           0.058 s
  | Fock matrix evaluation                     :        0.660 s           0.660 s
  | Solution of K.-S. eqns.                    :        0.001 s           0.000 s
  | Total energy evaluation                    :        0.000 s           0.001 s

  Partial memory accounting:
  | Current value for overall tracked memory usage on task 0  :           7.907 MB
  | Peak value for overall tracked memory usage on task 0     :          14.882 MB after allocating d_coeff_3fn
  | Largest tracked array allocation on task 0 so far         :           8.420 MB  when allocating +coeff_3fn
  Note:  These values currently only include a subset of arrays which are explicitly tracked.
  The "true" memory usage will be greater.
------------------------------------------------------------

------------------------------------------------------------
          Begin self-consistency iteration #   17

  Date     :  20190507, Time     :  191135.552
------------------------------------------------------------
  Evaluating new KS density.
  Integration grid: deviation in total charge (<rho> - N_e) =  -1.776357E-14
  Pulay mixing of updated and previous charge densities.

  Evaluating partitioned Hartree potential by multipole expansion.
  | Analytical far-field extrapolation by fixed multipoles:
  | Hartree multipole sum: apparent total charge =  -0.235847E-05
  Summing up the Hartree potential.
  Time summed over all CPUs for potential: real work        0.025 s, elapsed        0.025 s
  | RMS charge density error from multipole expansion :   0.146182E-02

  Integrating Hamiltonian matrix: batch-based integration.
  Time summed over all CPUs for integration: real work        0.058 s, elapsed        0.058 s
  Calculating non-local Hartree-Fock exchange by two-center RI (RI-LVL).
  screening_threshold (crit_val) =  0.000000100000
  Allocating        0.023 MB for dm_cols
  Allocating        0.299 MB for ovlp3fn_rcv
  Allocating        0.023 MB for fock_matrix
  Allocating        0.000 MB for fock_matrix_row
  Exact exchange progress report - outermost basis function loop i_basis_r1: 1 ..  54
  |        1         2         3         4         5         6         7         8         9        10
  |       11        12        13        14        15        16        17        18        19        20
  |       21        22        23        24        25        26        27        28        29        30
  |       31        32        33        34        35        36        37        38        39        40
  |       41        42        43        44        45        46        47        48        49        50
  |       51        52        53        54  
  Full exact exchange energy:     278.486330376182 eV.
  Times            DM_x_o3fn   CM_x_o3fn    Products        Sync   Imbalance    Pre/Post       Other  Total calc
  | Times    0:        0.020       0.507       0.109       0.000       0.003       0.000       0.019       0.658
  | Times  sum:        0.020       0.507       0.109       0.000       0.003       0.000       0.019       0.658

  Decomposition of Other based on code block (only on MPI task 0):
  Times             Block #1    Block #2    Block #3    Block #4    Block #5    Block #6    Block #7    Block #8
  | Times    0:        0.000       0.000       0.000       0.000       0.000       0.000       0.005       0.002

  Times             Block #9   Block #10   Block #11   Block #12   Block #13   Block #14   Block #15   Block #16
  | Times    0:        0.004       0.001       0.000       0.002       0.001       0.000       0.000       0.000

  Times            Block Sum    Expected
  | Times    0:        0.015       0.019

  Updating Kohn-Sham eigenvalues, eigenvectors, occupation numbers, and Fermi level.
  Solving generalized eigenproblem
  Updating Kohn-Sham eigenvalues and eigenfunctions.
  Solving real generalised eigenvalue problem by standard LAPACK (fast)

  Obtaining occupation numbers and chemical potential using ELSI.
  | Chemical potential (Fermi level):   -16.30689715eV
  Highest occupied state (VBM) at    -16.88466842 eV
  | Occupation number:      2.00000000

  Lowest unoccupied state (CBM) at     0.48569804 eV
  | Occupation number:      0.00000000

  Overall HOMO-LUMO gap:     17.37036646 eV.

  Total energy components:
  | Sum of eigenvalues            :         -59.34667894 Ha       -1614.90529948 eV
  | XC energy correction          :          10.23418302 Ha         278.48628913 eV
  | XC potential correction       :          -0.00000000 Ha          -0.00000000 eV
  | Free-atom electrostatic energy:         -49.58546032 Ha       -1349.28902651 eV
  | Hartree energy correction     :          -1.27219333 Ha         -34.61814189 eV
  | Entropy correction            :          -0.00000000 Ha          -0.00000000 eV
  | ---------------------------
  | Total energy                  :         -99.97014958 Ha       -2720.32617876 eV
  | Total energy, T -> 0          :         -99.97014958 Ha       -2720.32617876 eV  <-- do not rely on this value for anything but (periodic) metals
  | Electronic free energy        :         -99.97014958 Ha       -2720.32617876 eV

  Derived energy quantities:
  | Kinetic energy                :          99.18816715 Ha        2699.04735420 eV
  | Electrostatic energy          :        -188.92413371 Ha       -5140.88724383 eV
  | Energy correction for multipole
  | error in Hartree potential    :          -0.00123913 Ha          -0.03371846 eV
  | Sum of eigenvalues per atom                           :        -807.45264974 eV
  | Total energy (T->0) per atom                          :       -1360.16308938 eV  <-- do not rely on this value for anything but (periodic) metals
  | Electronic free energy per atom                       :       -1360.16308938 eV

  Self-consistency convergence accuracy:
  | Change of charge density      :  0.7655E-06
  | Change of sum of eigenvalues  :  0.3812E-04 eV
  | Change of total energy        : -0.1471E-04 eV

  Writing Kohn-Sham eigenvalues.

  State    Occupation    Eigenvalue [Ha]    Eigenvalue [eV]
      1       2.00000         -26.276853         -715.02955
      2       2.00000          -1.517557          -41.29482
      3       2.00000          -0.637930          -17.35895
      4       2.00000          -0.620500          -16.88467
      5       2.00000          -0.620500          -16.88467
      6       0.00000           0.017849            0.48570
      7       0.00000           0.164447            4.47483
      8       0.00000           0.225828            6.14510
      9       0.00000           0.225828            6.14510
     10       0.00000           0.229042            6.23254

  Highest occupied state (VBM) at    -16.88466842 eV
  | Occupation number:      2.00000000

  Lowest unoccupied state (CBM) at     0.48569804 eV
  | Occupation number:      0.00000000

  Overall HOMO-LUMO gap:     17.37036646 eV.

  Self-consistency cycle converged.

  End self-consistency iteration #    17       :  max(cpu_time)    wall_clock(cpu1)
  | Time for this iteration                    :        0.773 s           0.773 s
  | Charge density update                      :        0.028 s           0.028 s
  | Density mixing                             :        0.001 s           0.001 s
  | Hartree multipole update                   :        0.002 s           0.002 s
  | Hartree multipole summation                :        0.025 s           0.025 s
  | Integration                                :        0.057 s           0.058 s
  | Fock matrix evaluation                     :        0.658 s           0.658 s
  | Solution of K.-S. eqns.                    :        0.001 s           0.000 s
  | Total energy evaluation                    :        0.000 s           0.000 s

  Partial memory accounting:
  | Current value for overall tracked memory usage on task 0  :           7.907 MB
  | Peak value for overall tracked memory usage on task 0     :          14.882 MB after allocating d_coeff_3fn
  | Largest tracked array allocation on task 0 so far         :           8.420 MB  when allocating +coeff_3fn
  Note:  These values currently only include a subset of arrays which are explicitly tracked.
  The "true" memory usage will be greater.
------------------------------------------------------------
  ------------------------------------------------------------
   Computing monopole / dipole moments for complete molecule:
  | Total electronic charge [e]         :          0.999999999999993E+01
  | Total ionic charge [e]              :          0.100000000000000E+02
  | Total charge [e]                    :          0.675015598972095E-13
  | Total dipole moment [eAng]          :          0.547946184176268E-12        -0.195352428056911E-12        -0.574995798169500E+00
  | Absolute dipole moment              :          0.574995798169500E+00 eAng              /                   0.276139209465045E+01 Debye  .

  Energy and forces in a compact form:
  | Total energy uncorrected      :         -0.272032617875859E+04 eV
  | Total energy corrected        :         -0.272032617875859E+04 eV  <-- do not rely on this value for anything but (periodic) metals
  | Electronic free energy        :         -0.272032617875859E+04 eV

  ------------------------------------ 
  Start decomposition of the XC Energy 
  ------------------------------------ 
  X and C from original XC functional choice 
  Hartree-Fock Energy :        -10.234184533 Ha           -278.486330376 eV
  X Energy            :        -10.234184533 Ha           -278.486330376 eV
  C Energy            :          0.000000000 Ha              0.000000000 eV
  Total XC Energy     :        -10.234184533 Ha           -278.486330376 eV
  ------------------------------------ 
  LDA X and C from self-consistent density 
  X Energy LDA        :         -9.346230854 Ha           -254.323881385 eV
  C Energy LDA        :         -0.693317831 Ha            -18.866138090 eV
  ------------------------------------ 
  End decomposition of the XC Energy 
  ------------------------------------ 

------------------------------------------------------------

------------------------------------------------------------------------------
  Final output of selected total energy values:

  The following output summarizes some interesting total energy values
  at the end of a run (AFTER all relaxation, molecular dynamics, etc.).

  | Total energy of the DFT / Hartree-Fock s.c.f. calculation      :          -2720.326178759 eV
  | Final zero-broadening corrected energy (caution - metals only) :          -2720.326178759 eV
  | For reference only, the value of 1 Hartree used in FHI-aims is :             27.211384500 eV

  Before relying on these values, please be sure to understand exactly which
  total energy value is referred to by a given number. Different objects may
  all carry the same name 'total energy'. Definitions:

  Total energy of the DFT / Hartree-Fock s.c.f. calculation:
  | Note that this energy does not include ANY quantities calculated after the
  | s.c.f. cycle, in particular not ANY RPA, MP2, etc. many-body perturbation terms.

  Final zero-broadening corrected energy:
  | For metallic systems only, a broadening of the occupation numbers at the Fermi
  | level can be extrapolated back to zero broadening by an electron-gas inspired
  | formula. For all systems that are not real metals, this value can be
  | meaningless and should be avoided.

------------------------------------------------------------------------------
  Methods described in the following list of references were used in this FHI-aims run.
  If you publish the results, please make sure to cite these reference if they apply.
  FHI-aims is an academic code, and for our developers (often, Ph.D. students
  and postdocs), scientific credit in the community is essential.
  Thank you for helping us!

  For any use of FHI-aims, please cite:

    Volker Blum, Ralf Gehrke, Felix Hanke, Paula Havu, Ville Havu,
    Xinguo Ren, Karsten Reuter, and Matthias Scheffler
    'Ab initio molecular simulations with numeric atom-centered orbitals'
    Computer Physics Communications 180, 2175-2196 (2009)
    http://dx.doi.org/10.1016/j.cpc.2009.06.022


  For Hartree-Fock, hybrid functionals, or many-body perturbation theory used in your run, please cite:

    Xinguo Ren, Patrick Rinke, Volker Blum, Juergen Wieferink, Alex Tkatchenko,
    Andrea Sanfilippo, Karsten Reuter, and Matthias Scheffler,
    'Resolution-of-identity approach to Hartree-Fock, hybrid density functionals,
    RPA, MP2, and GW with numeric atom-centered orbital basis functions'
    New Journal of Physics 14, 053020 (2012).
    http://dx.doi.org/10.1088/1367-2630/14/5/053020


  For the real-space grid partitioning and parallelization used in this calculation, please cite:

    Ville Havu, Volker Blum, Paula Havu, and Matthias Scheffler,
    'Efficient O(N) integration for all-electron electronic structure calculation'
    'using numerically tabulated basis functions'
    Journal of Computational Physics 228, 8367-8379 (2009).
    http://dx.doi.org/10.1016/j.jcp.2009.08.008


  The high-level electronic structure method used in your calculation
  employed our efficient localized resolution of identity for the Coulomb operator.
  Some calculations, especially large-scale hybrid density functional theory,
  are only possible thanks to this development. For this feature, please cite:

    Arvid Ihrig, Juergen Wieferink, Igor Ying Zhang, Matti Ropo, Xinguo Ren,
    Patrick Rinke, Matthias Scheffler, and Volker Blum,
    'Accurate localized resolution of identity approach for linear-scaling
    hybrid density functionals and for many-body perturbation theory'
    New Journal of Physics 117, 093020 (2015).
    http://dx.doi.org/10.1088/1367-2630/17/9/093020

  Of course, there are many other important community references, e.g., those cited in the
  above references. Our list is limited to references that describe implementations in the
  FHI-aims code. The reason is purely practical (length of this list) - please credit others as well.

------------------------------------------------------------
          Leaving FHI-aims.
          Date     :  20190507, Time     :  191136.341

          Computational steps:
          | Number of self-consistency cycles          :           17
          | Number of SCF (re)initializations          :            1

          Detailed time accounting                     :  max(cpu_time)    wall_clock(cpu1)
          | Total time                                 :       17.471 s          17.472 s
          | Preparation time                           :        0.099 s           0.099 s
          | Boundary condition initalization           :        0.000 s           0.000 s
          | Grid partitioning                          :        0.033 s           0.033 s
          | Preloading free-atom quantities on grid    :        0.006 s           0.005 s
          | Free-atom superposition energy             :        0.019 s           0.020 s
          | Total time for integrations                :        1.101 s           1.103 s
          | Product basis setup: Total time            :        4.102 s           4.102 s
          | Total time evaluating exchange matrix      :       11.197 s          11.198 s
          | Total time for solution of K.-S. equations :        0.011 s           0.010 s
          | Total time for density update              :        0.381 s           0.385 s
          | Total time for mixing                      :        0.020 s           0.016 s
          | Total time for Hartree multipole update    :        0.035 s           0.036 s
          | Total time for Hartree multipole sum       :        0.429 s           0.428 s
          | Total time for total energy evaluation     :        0.001 s           0.003 s

 This is a stub MPI_ALLREDUCE call.
 You should not be here. Check your
 setting on the use_mpi variable, or
 link against true MPI-libraries.
