------------------------------------------------------------
          Invoking FHI-aims ...
          Version 171221_1
          Compiled on 2019/05/06 at 14:26:40 on host ffph0xx.

          When using FHI-aims, please cite the following reference:

          Volker Blum, Ralf Gehrke, Felix Hanke, Paula Havu,
          Ville Havu, Xinguo Ren, Karsten Reuter, and Matthias Scheffler,
          'Ab Initio Molecular Simulations with Numeric Atom-Centered Orbitals',
          Computer Physics Communications 180, 2175-2196 (2009)

          For any questions about FHI-aims, please visit the aimsclub website
          with its forums and wiki. Contributions to both the forums and the
          wiki are warmly encouraged - they are for you, and everyone is welcome there.

------------------------------------------------------------



  Date     :  20190509, Time     :  114658.884
  Time zero on CPU 1             :   0.829000000000000E-03  s.
  Internal wall clock time zero  :           326634418.884  s.

  FHI-aims created a unique identifier for this run for later identification
  aims_uuid : 3E13BF58-792D-4A38-A013-2ED370E45D2F


  Performing system and environment tests:
  *** Environment variable OMP_NUM_THREADS is not set
  *** For performance reasons you might want to set it to 1
  | Stacksize not measured: no C compiler

  Obtaining array dimensions for all initial allocations:
  
  -----------------------------------------------------------------------
  Parsing control.in (first pass over file, find array dimensions only).
  The contents of control.in will be repeated verbatim below
  unless switched off by setting 'verbatim_writeout .false.' .
  in the first line of control.in .
  -----------------------------------------------------------------------
  
  # Sample input file for the relaxation
  # of the H3O+ molecule
  #######################################
    xc  pw-lda
    charge 1.0
    spin none
  
  #######Iteration limit####################
    sc_iter_limit 100
  
  #######Relaxation######################
    relax_geometry trm 1E-3
  
  #######Species#########################
  ################################################################################
  #
  #  FHI-aims code project
  #  VB, Fritz-Haber Institut, 2009
  #
  #  Suggested "light" defaults for H atom (to be pasted into control.in file)
  #  Be sure to double-check any results obtained with these settings for post-processing,
  #  e.g., with the "tight" defaults and larger basis sets.
  #
  ################################################################################
    species        H
  #     global species definitions
      nucleus             1
      mass                1.00794
  #
      l_hartree           4
  #
      cut_pot             3.5  1.5  1.0
      basis_dep_cutoff    1e-4
  #
      radial_base         24 5.0
      radial_multiplier   1
      angular_grids       specified
        division   0.2421   50
        division   0.3822  110
        division   0.4799  194
        division   0.5341  302
  #      division   0.5626  434
  #      division   0.5922  590
  #      division   0.6542  770
  #      division   0.6868 1202
  #      outer_grid  770
        outer_grid  302
  ################################################################################
  #
  #  Definition of "minimal" basis
  #
  ################################################################################
  #     valence basis states
      valence      1  s   1.
  #     ion occupancy
      ion_occ      1  s   0.5
  ################################################################################
  #
  #  Suggested additional basis functions. For production calculations,
  #  uncomment them one after another (the most important basis functions are
  #  listed first).
  #
  #  Basis constructed for dimers: 0.5 A, 0.7 A, 1.0 A, 1.5 A, 2.5 A
  #
  ################################################################################
  #  "First tier" - improvements: -1014.90 meV to -62.69 meV
       hydro 2 s 2.1
       hydro 2 p 3.5
  #  "Second tier" - improvements: -12.89 meV to -1.83 meV
  #     hydro 1 s 0.85
  #     hydro 2 p 3.7
  #     hydro 2 s 1.2
  #     hydro 3 d 7
  #  "Third tier" - improvements: -0.25 meV to -0.12 meV
  #     hydro 4 f 11.2
  #     hydro 3 p 4.8
  #     hydro 4 d 9
  #     hydro 3 s 3.2
  ################################################################################
  #
  #  FHI-aims code project
  #  VB, Fritz-Haber Institut, 2009
  #
  #  Suggested "light" defaults for O atom (to be pasted into control.in file)
  #  Be sure to double-check any results obtained with these settings for post-processing,
  #  e.g., with the "tight" defaults and larger basis sets.
  #
  ################################################################################
    species        O
  #     global species definitions
      nucleus             8
      mass                15.9994
  #
      l_hartree           4
  #
      cut_pot             3.5  1.5  1.0
      basis_dep_cutoff    1e-4
  #
      radial_base         36 5.0
      radial_multiplier   1
       angular_grids specified
        division   0.2659   50
        division   0.4451  110
        division   0.6052  194
        division   0.7543  302
  #      division   0.8014  434
  #      division   0.8507  590
  #      division   0.8762  770
  #      division   0.9023  974
  #      division   1.2339 1202
  #      outer_grid 974
        outer_grid 302
  ################################################################################
  #
  #  Definition of "minimal" basis
  #
  ################################################################################
  #     valence basis states
      valence      2  s   2.
      valence      2  p   4.
  #     ion occupancy
      ion_occ      2  s   1.
      ion_occ      2  p   3.
  ################################################################################
  #
  #  Suggested additional basis functions. For production calculations,
  #  uncomment them one after another (the most important basis functions are
  #  listed first).
  #
  #  Constructed for dimers: 1.0 A, 1.208 A, 1.5 A, 2.0 A, 3.0 A
  #
  ################################################################################
  #  "First tier" - improvements: -699.05 meV to -159.38 meV
       hydro 2 p 1.8
       hydro 3 d 7.6
       hydro 3 s 6.4
  #  "Second tier" - improvements: -49.91 meV to -5.39 meV
  #     hydro 4 f 11.6
  #     hydro 3 p 6.2
  #     hydro 3 d 5.6
  #     hydro 5 g 17.6
  #     hydro 1 s 0.75
  #  "Third tier" - improvements: -2.83 meV to -0.50 meV
  #     ionic 2 p auto
  #     hydro 4 f 10.8
  #     hydro 4 d 4.7
  #     hydro 2 s 6.8
  #  "Fourth tier" - improvements: -0.40 meV to -0.12 meV
  #     hydro 3 p 5
  #     hydro 3 s 3.3
  #     hydro 5 g 15.6
  #     hydro 4 f 17.6
  #     hydro 4 d 14
  # Further basis functions - -0.08 meV and below
  #     hydro 3 s 2.1
  #     hydro 4 d 11.6
  #     hydro 3 p 16
  #     hydro 2 s 17.2
  /afs/ictp.it/public/shared/smr2475/fhi-aims/species_defaults/light/01_H_default
  relax_geometry trm 1E-3
  
  -----------------------------------------------------------------------
  Completed first pass over input file control.in .
  -----------------------------------------------------------------------
  
  
  -----------------------------------------------------------------------
  Parsing geometry.in (first pass over file, find array dimensions only).
  The contents of geometry.in will be repeated verbatim below
  unless switched off by setting 'verbatim_writeout .false.' .
  in the first line of geometry.in .
  -----------------------------------------------------------------------
  
  #
  # This is the geometry file that corresponds to the current relaxation step.
  # If you do not want this file to be written, set the "write_restart_geometry" flag to .false.
  #  aims_uuid : 5CBA53E3-6CC5-4D2B-AAB0-BCE5174FA384
  #
  atom       0.00000000      0.00001836      0.19077151 O
  atom       0.82425584     -0.47587261      0.47423563 H
  atom      -0.82425584     -0.47587261      0.47423563 H
  atom      -0.00000000      0.95172688      0.47446636 H
  #
  # What follows is the current estimated Hessian matrix constructed by the BFGS algorithm.
  # This is NOT the true Hessian matrix of the system.
  # If you do not want this information here, switch it off using the "hessian_to_restart_geometry" keyword.
  #
  trust_radius             0.1838581862
  hessian_block                1       1          36.935757           0.000000           0.000000           0.000000          44.14515
  hessian_block                1       2         -16.647768           7.230241         -10.620025           8.663153         -10.34777
  hessian_block                1       3         -16.647768          -7.230241          10.620025          -8.663153         -10.34777
  hessian_block                1       4          -1.640221          -0.000000          -0.000000          -0.000000         -21.44960
  hessian_block                2       2          25.197100         -11.501189          11.829716         -11.501189          12.54812
  hessian_block                2       3          -6.559558           1.908798           1.452214          -1.908798           3.93786
  hessian_block                2       4           0.010225           0.929238           0.654565           6.179745          -4.13822
  hessian_block                3       3          25.197100          11.501189         -11.829716          11.501189          12.54812
  hessian_block                3       4           0.010225          -0.929238          -0.654565          -6.179745          -4.13822
  hessian_block                4       4           3.619771           0.000000           0.000000           0.000000          31.72605
  
  -----------------------------------------------------------------------
  Completed first pass over input file geometry.in .
  -----------------------------------------------------------------------
  

  Basic array size parameters:
  | Number of species                 :        2
  | Number of atoms                   :        4
  | Max. basis fn. angular momentum   :        2
  | Max. atomic/ionic basis occupied n:        2
  | Max. number of basis fn. types    :        2
  | Max. radial fns per species/type  :        3
  | Max. logarithmic grid size        :     1301
  | Max. radial integration grid size :       36
  | Max. angular integration grid size:      302
  | Max. angular grid division number :        8
  | Radial grid for Hartree potential :     1301
  | Number of spin channels           :        1

------------------------------------------------------------
          Reading file control.in.
------------------------------------------------------------
  XC: Using Perdew-Wang parametrisation of Ceperley-Alder LDA.
  Charged system requested: Charge =   0.100000E+01.
  Spin treatment: No spin polarisation.
  Maximum number of s.-c. iterations  :   100
  Geometry relaxation: Modified BFGS - TRM (trust radius method, i.e., trusted quadratic extrapolation).
  Convergence accuracy for geometry relaxation: Maximum force <   0.100000E-02 eV/A.

  Reading configuration options for species H                   .
  | Found nuclear charge :   1.0000
  | Found atomic mass :    1.0079400000000001      amu
  | Found l_max for Hartree potential  :   4
  | Found cutoff potl. onset [A], width [A], scale factor :    3.50000    1.50000    1.00000
  | Threshold for basis-dependent cutoff potential is   0.100000E-03
  | Found data for basic radial integration grid :    24 points, outermost radius =    5.000 A
  | Found multiplier for basic radial grid :   1
  | Found angular grid specification: user-specified.
  | Specified grid contains     5 separate shells.
  | Check grid settings after all constraints further below.
  | Found free-atom valence shell :  1 s   1.000
  | No ionic wave fns used. Skipping ion_occ.
  | Found hydrogenic basis function :  2 s   2.100
  | Found hydrogenic basis function :  2 p   3.500
  Species H                   : Missing cutoff potential type.
  Defaulting to exp(1/x)/(1-x)^2 type cutoff potential.
  Species H : No 'logarithmic' tag. Using default grid for free atom:
  | Default logarithmic grid data [bohr] : 0.1000E-03 0.1000E+03 0.1012E+01
  Species H : On-site basis accuracy parameter (for Gram-Schmidt orthonormalisation) not specified.
  Using default value basis_acc =  0.1000000E-03.
  Species H                   : Using default innermost maximum threshold i_radial=  2 for radial functions.
  Species H                   : Default cutoff onset for free atom density etc. : 0.35000000E+01 AA.
  Species H                   : Basic radial grid will be enhanced according to radial_multiplier =   1, to contain    24 grid points.

  Reading configuration options for species O                   .
  | Found nuclear charge :   8.0000
  | Found atomic mass :    15.999400000000000      amu
  | Found l_max for Hartree potential  :   4
  | Found cutoff potl. onset [A], width [A], scale factor :    3.50000    1.50000    1.00000
  | Threshold for basis-dependent cutoff potential is   0.100000E-03
  | Found data for basic radial integration grid :    36 points, outermost radius =    5.000 A
  | Found multiplier for basic radial grid :   1
  | Found angular grid specification: user-specified.
  | Specified grid contains     5 separate shells.
  | Check grid settings after all constraints further below.
  | Found free-atom valence shell :  2 s   2.000
  | Found free-atom valence shell :  2 p   4.000
  | No ionic wave fns used. Skipping ion_occ.
  | No ionic wave fns used. Skipping ion_occ.
  | Found hydrogenic basis function :  2 p   1.800
  | Found hydrogenic basis function :  3 d   7.600
  | Found hydrogenic basis function :  3 s   6.400
  Species O                   : Missing cutoff potential type.
  Defaulting to exp(1/x)/(1-x)^2 type cutoff potential.
  Species O : No 'logarithmic' tag. Using default grid for free atom:
  | Default logarithmic grid data [bohr] : 0.1000E-03 0.1000E+03 0.1012E+01
  Species O : On-site basis accuracy parameter (for Gram-Schmidt orthonormalisation) not specified.
  Using default value basis_acc =  0.1000000E-03.
  Species O                   : Using default innermost maximum threshold i_radial=  2 for radial functions.
  Species O                   : Default cutoff onset for free atom density etc. : 0.35000000E+01 AA.
  Species O                   : Basic radial grid will be enhanced according to radial_multiplier =   1, to contain    36 grid points.
  Geometry relaxation: Modified BFGS - TRM (trust radius method, i.e., trusted quadratic extrapolation).
  Convergence accuracy for geometry relaxation: Maximum force <   0.100000E-02 eV/A.

  Finished reading input file 'control.in'. Consistency checks are next.

  MPI_IN_PLACE appears to work with this MPI implementation.
  | Keeping use_mpi_in_place .true. (see manual).
  Target number of points in a grid batch is not set. Defaulting to  100
  Method for grid partitioning is not set. Defaulting to 'maxmin' partitioning.
  Batch size limit is not set. Defaulting to    200
  By default, will store active basis functions for each batch.
  If in need of memory, prune_basis_once .false. can be used to disable this option.
  communication_type for Hartree potential was not specified.
  Defaulting to calc_hartree .
 * Attention: 
 * You may want to set distributed_spline_storage to .true. in order to save memory.
 * This doesn't harm performance and is perfectly ok unless:
 * - you get error messages in postprocessing (about missing atoms in get_rho_multipole_spl)
 * - you need full spline storage in hirshfeld_analysis
  Defaulting to Pulay charge density mixer.
  Pulay mixer: Number of relevant iterations not set.
  Defaulting to    8 iterations.
  Pulay mixer: Number of initial linear mixing iterations not set.
  Defaulting to    0 iterations.
  Work space size for distributed Hartree potential not set.
  Defaulting to   0.200000E+03 MB.
  Mixing parameter for charge density mixing has not been set.
  Using default: charge_mix_param =     0.0500.
  The mixing parameter will be adjusted in iteration number     2 of the first full s.c.f. cycle only.
  Algorithm-dependent basis array size parameters:
  | n_max_pulay                         :        8
 * Notice: The s.c.f. convergence criterion sc_accuracy_rho was not provided.
 * We used to stop in this case, and ask the user to provide reasonable
 * scf convergence criteria. However, this led some users to employ criteria
 * that led to extremely long run times, e.g., for simple relaxation.
 * We now preset a default value for sc_accuracy_rho if it is not set.
 * You may still wish to check if this setting is too tight or too loose for your needs.
 * Based on n_atoms, FHI-aims chose sc_accuracy_rho =  0.100000E-05 .
  Presetting      1001 iterations before the initial mixing cycle
  is restarted anyway using the sc_init_iter criterion / keyword.
  Presetting a factor      1.000 between actual scf density residual
  and density convergence criterion sc_accuracy_rho below which sc_init_iter
  takes no effect.
 * No s.c.f. convergence criteria (sc_accuracy_*) were provided in control.in.
 * The run will proceed with a reasonable default guess, but please check whether.
 * the s.c.f. cycles seem to take too much or too little time.
  No maximum number of relaxation steps, defaulting to     1000
  Using explicit Hessian from geometry.in.
  No maximum energy tolerance for TRM/BFGS moves, defaulting to   0.200000E-03
  No harmonic length scale. Defaulting to   0.250000E-01 A.
  No trust radius initializer. Defaulting to   0.200000E+00 A.
  Force calculation: scf convergence accuracy of forces not set.
  Defaulting to 'sc_accuracy_forces not_checked'.
  Handling of forces: Unphysical translation and rotation will be removed from forces.
  No accuracy limit for integral partition fn. given. Defaulting to  0.1000E-14.
  No threshold value for u(r) in integrations given. Defaulting to  0.1000E-05.
  No occupation type (smearing scheme) given. Defaulting to Gaussian broadening, width =  0.1000E-01 eV.
  The width will be adjusted in iteration number     2 of the first full s.c.f. cycle only.
  S.C.F. convergence parameters will be adjusted in iteration number     2 of the first full s.c.f. cycle only.
  No accuracy for occupation numbers given. Defaulting to  0.1000E-12.
  No threshold value for occupation numbers given. Defaulting to  0.0000E+00.
  No accuracy for fermi level given. Defaulting to  0.1000E-19.
  Maximum # of iterations to find E_F not set. Defaulting to  200.
  Preferred method for the eigenvalue solver ('KS_method') not specified in 'control.in'.
  Defaulting to serial version, 'lapack_fast'.
  Will not use alltoall communication since running on < 1024 CPUs.
  Threshold for basis singularities not set.
  Default threshold for basis singularities:  0.1000E-04
  partition_type (choice of integration weights) for integrals was not specified.
  | Using a version of the partition function of Stratmann and coworkers ('stratmann_smoother').
  | At each grid point, the set of atoms used to build the partition table is smoothly restricted to
  | only those atoms whose free-atom density would be non-zero at that grid point.
  Partitioning for Hartree potential was not defined. Using partition_type for integrals.
  | Adjusted default value of keyword multip_moments_threshold to:       0.10000000E-11
  | This value may affect high angular momentum components of the Hartree potential in periodic systems.
  No q(lm)/r^(l+1) cutoff set for long-range Hartree potential.
  | Using default value of  0.100000E-09 .
  | Verify using the multipole_threshold keyword.
  Defaulting to new monopole extrapolation.
  Density update method: automatic selection selected.
  Geometry relaxation: A file "geometry.in.next_step" is written out by default after each step.
  | This file contains the geometry of the current relaxation step as well as
  | the current Hessian matrix needed to restart the relaxation algorithm.
  | If you do not want part or all of this information, use the keywords
  | "write_restart_geometry" or "hessian_to_restart_geometry" to switch the output off.
------------------------------------------------------------


------------------------------------------------------------
          Reading geometry description geometry.in.
------------------------------------------------------------
 * Warning: Initial charge and total charge of the system are inconsistent.
 * Selected charge in control.in:     1.0000* Sum of initial charges in geometry.in:     0.0000
 * Warning! You did not set the 'relativistic' flag in input file 'control.in'.
 * Since you are not attempting to treat any elements beyond Ca(Z=20), FHI-aims
 * will default to 'relativistic none'.
 * You must ensure that this is really what you want!!
 * For example, DO NOT compute total-energy differences between results from
 * different settings of the 'relativistic' flag.
  Input structure read successfully.
  The structure contains        4 atoms,  and a total of         10.000 electrons.

  Input geometry:
  | No unit cell requested.
  | Atomic structure:
  |       Atom                x [A]            y [A]            z [A]
  |    1: Species O             0.00000000        0.00001836        0.19077151
  |    2: Species H             0.82425584       -0.47587261        0.47423563
  |    3: Species H            -0.82425584       -0.47587261        0.47423563
  |    4: Species H            -0.00000000        0.95172688        0.47446636
  |

  | The smallest distance between any two atoms is         0.99308701 AA.
  |
  | The first atom of this pair is atom number                      1 .
  | The second atom of this pair is atom number                     2 .

  Number of empty states per atom not set in control.in - providing a guess from actual geometry.
  | Total number of empty states used during s.c.f. cycle:        8
  If you use a very high smearing, use empty_states (per atom!) in control.in to increase this value.

  Structure-dependent array size parameters: 
  | Maximum number of distinct radial functions  :        9
  | Maximum number of basis functions            :       29
  | Number of Kohn-Sham states (occupied + empty):       13
------------------------------------------------------------

------------------------------------------------------------
          Preparing all fixed parts of the calculation.
------------------------------------------------------------
  Determining machine precision:
     2.2250738585072014E-308
  Setting up grids for atomic and cluster calculations.

  Creating wave function, potential, and density for free atoms.

  Species: H

  List of occupied orbitals and eigenvalues:
    n    l              occ      energy [Ha]    energy [eV]
    1    0           1.0000        -0.232375        -6.3233


  Species: O

  List of occupied orbitals and eigenvalues:
    n    l              occ      energy [Ha]    energy [eV]
    1    0           2.0000       -18.757744      -510.4242
    2    0           2.0000        -0.870917       -23.6989
    2    1           4.0000        -0.337950        -9.1961

  Creating fixed part of basis set: Ionic, confined, hydrogenic.

  H                    hydrogenic:

  List of hydrogenic basis orbitals: 
    n    l      effective z      eigenvalue [eV]  inner max. [A]     outer max. [A]     outer radius [A]   
    2    0         2.100000       -14.9728           0.193243           1.317208           4.583499
    2    1         3.500000       -41.6669           0.602369           0.602369           3.723403


  O                    hydrogenic:

  List of hydrogenic basis orbitals: 
    n    l      effective z      eigenvalue [eV]  inner max. [A]     outer max. [A]     outer radius [A]   
    2    1         1.800000       -10.9749           1.164242           1.164242           4.578029
    3    2         7.600000       -87.3180           0.624125           0.624125           3.251020
    3    0         6.400000       -61.9207           0.061167           1.081902           4.001998


  Adding cutoff potential to free-atom effective potential.
  Creating atomic-like basis functions for current effective potential.

  Species H                   :

  List of atomic basis orbitals and eigenvalues:
    n    l      energy [Ha]    energy [eV]    outer radius [A]
    1    0        -0.232375        -6.3233       4.527807


  Species O                   :

  List of atomic basis orbitals and eigenvalues:
    n    l      energy [Ha]    energy [eV]    outer radius [A]
    1    0       -18.757744      -510.4242       1.433179
    2    0        -0.870917       -23.6989       4.413171
    2    1        -0.337950        -9.1961       4.522403

  Assembling full basis from fixed parts.
  | Species H :   atomic orbital   1 s accepted.
  | Species H :    hydro orbital   2 s accepted.
  | Species H :    hydro orbital   2 p accepted.
  | Species O :   atomic orbital   1 s accepted.
  | Species O :    hydro orbital   3 s accepted.
  | Species O :   atomic orbital   2 s accepted.
  | Species O :   atomic orbital   2 p accepted.
  | Species O :    hydro orbital   2 p accepted.
  | Species O :    hydro orbital   3 d accepted.

  Basis size parameters after reduction:
  | Total number of radial functions:        9
  | Total number of basis functions :       29

  Per-task memory consumption for arrays in subroutine allocate_ext:
  |           2.249476MB.
  Testing on-site integration grid accuracy.
  |  Species  Function  <phi|h_atom|phi> (log., in eV)  <phi|h_atom|phi> (rad., in eV)
           1        1                 -6.3245358373                 -6.3232436907
           1        2                 14.1326137532                 14.1384481100
           1        3                 25.3627025200                 25.3628451197
           2        4               -510.4241781769               -510.4240769412
           2        5                 14.9072942218                 14.9072945276
           2        6                -21.2004736467                -21.2005650544
           2        7                 -9.1962086499                 -9.1963509828
           2        8                  8.1896755011                  8.1702200086
           2        9                 45.7920584945                 45.7920228528

  Preparing densities etc. for the partition functions (integrals / Hartree potential).

  Preparations completed.
  max(cpu_time)          :      0.044 s.
  Wall clock time (cpu1) :      0.044 s.
------------------------------------------------------------

------------------------------------------------------------
          Begin self-consistency loop: Initialization.

          Date     :  20190509, Time     :  114658.929
------------------------------------------------------------

  Initializing index lists of integration centers etc. from given atomic structure:
  | Number of centers in hartree potential         :         4
  | Number of centers in hartree multipole         :         4
  | Number of centers in electron density summation:         4
  | Number of centers in basis integrals           :         4
  | Number of centers in integrals                 :         4
  | Number of centers in hamiltonian               :         4
  Initializing relaxation algorithms.
  Partitioning the integration grid into batches with maxmin method.
  | Maximal weight for a single point:     1.000
  | Minimal weight for a single point:     0.000
  | Number of batches:      256
  | Maximal batch size:      83
  | Minimal batch size:      78
  | Average batch size:      80.719
  | Standard deviation of batch sizes:       1.484
  Initializing partition tables, free-atom densities, potentials, etc. across the integration grid (initialize_grid_storage).
  | initialize_grid_storage: Actual outermost partition radius vs. multipole_radius_free
  | (-- VB: in principle, multipole_radius_free should be larger, hence this output)
  | Species        1: Confinement radius =              4.999999999999999 AA, multipole_radius_free =              5.054417573612229 AA.
  | Species        1: outer_partition_radius set to              5.054417573612229 AA .
  | Species        2: Confinement radius =              4.999999999999999 AA, multipole_radius_free =              5.048384829883283 AA.
  | Species        2: outer_partition_radius set to              5.048384829883283 AA .
  | Original list of interatomic distances with           4 x          4 entries is created.
  | Net number of integration points:    20664
  | of which are non-zero points    :    18385
  Renormalizing the initial density to the exact electron count on the 3D integration grid.
  | Initial density: Formal number of electrons (from input files) :      11.0000000000
  | Integrated number of electrons on 3D grid     :      10.9999413866
  | Charge integration error                      :      -0.0000586134
  | Normalization factor for density and gradient :       1.0000053285
  Obtaining max. number of non-zero basis functions in each batch (get_n_compute_maxes).
  | Maximal number of non-zero basis functions:       29 in task     0
  Selecting the method for density update.
  Loop over occupied states selected for charge density update.
  Allocating        0.003 MB for KS_eigenvector
  Integrating Hamiltonian matrix: batch-based integration.
  Time summed over all CPUs for integration: real work        0.029 s, elapsed        0.029 s
  Integrating overlap matrix.
  Time summed over all CPUs for integration: real work        0.015 s, elapsed        0.015 s

  Updating Kohn-Sham eigenvalues, eigenvectors, occupation numbers, and Fermi level.
  Solving generalized eigenproblem
  Updating Kohn-Sham eigenvalues and eigenfunctions.
  Transforming overlap matrix and checking for singularities.
  Overlap matrix is nonsingular:
  | Lowest eigenvalue:  0.148351E-01
  Solving real generalised eigenvalue problem by standard LAPACK (fast)

  Obtaining occupation numbers and chemical potential using ELSI.
  | Chemical potential (Fermi level):    -6.76463175eV
  Writing Kohn-Sham eigenvalues.

  State    Occupation    Eigenvalue [Ha]    Eigenvalue [eV]
      1       2.00000         -18.911545         -514.60931
      2       2.00000          -1.150932          -31.31845
      3       2.00000          -0.670972          -18.25807
      4       2.00000          -0.670959          -18.25774
      5       2.00000          -0.507507          -13.80996
      6       0.00000          -0.090459           -2.46150
      7       0.00000           0.002441            0.06641
      8       0.00000           0.002444            0.06651
      9       0.00000           0.199730            5.43493
     10       0.00000           0.264759            7.20446
     11       0.00000           0.264772            7.20482
     12       0.00000           0.466901           12.70503
     13       0.00000           0.669254           18.21134

  Highest occupied state (VBM) at    -13.80996410 eV
  | Occupation number:      2.00000000

  Lowest unoccupied state (CBM) at    -2.46150438 eV
  | Occupation number:      0.00000000

  Overall HOMO-LUMO gap:     11.34845972 eV.
  Calculating total energy contributions from superposition of free atom densities.

  Total energy components:
  | Sum of eigenvalues            :         -43.82382934 Ha       -1192.50707039 eV
  | XC energy correction          :          -8.86347414 Ha        -241.18740280 eV
  | XC potential correction       :          11.67113287 Ha         317.58768404 eV
  | Free-atom electrostatic energy:         -35.29706310 Ha        -960.48195573 eV
  | Hartree energy correction     :          -0.00000000 Ha          -0.00000000 eV
  | Entropy correction            :          -0.00000000 Ha          -0.00000000 eV
  | ---------------------------
  | Total energy                  :         -76.31323371 Ha       -2076.58874488 eV
  | Total energy, T -> 0          :         -76.31323371 Ha       -2076.58874488 eV  <-- do not rely on this value for anything but (periodic) metals
  | Electronic free energy        :         -76.31323371 Ha       -2076.58874488 eV

  Derived energy quantities:
  | Kinetic energy                :          75.66381556 Ha        2058.91717792 eV
  | Electrostatic energy          :        -143.11357513 Ha       -3894.31852000 eV
  | Energy correction for multipole
  | error in Hartree potential    :           0.00000000 Ha           0.00000000 eV
  | Sum of eigenvalues per atom                           :        -298.12676760 eV
  | Total energy (T->0) per atom                          :        -519.14718622 eV  <-- do not rely on this value for anything but (periodic) metals
  | Electronic free energy per atom                       :        -519.14718622 eV
  Initialize hartree_potential_storage
  Max. number of atoms included in rho_multipole:            4

  End scf initialization - timings             :  max(cpu_time)    wall_clock(cpu1)
  | Time for scf. initialization               :        0.085 s           0.085 s
  | Boundary condition initialization          :        0.000 s           0.000 s
  | Relaxation initialization                  :        0.000 s           0.000 s
  | Integration                                :        0.043 s           0.044 s
  | Solution of K.-S. eqns.                    :        0.001 s           0.000 s
  | Grid partitioning                          :        0.014 s           0.013 s
  | Preloading free-atom quantities on grid    :        0.001 s           0.001 s
  | Free-atom superposition energy             :        0.013 s           0.013 s
  | Total energy evaluation                    :        0.000 s           0.000 s

  Partial memory accounting:
  | Current value for overall tracked memory usage on task 0  :           0.017 MB
  | Peak value for overall tracked memory usage on task 0     :           0.075 MB after allocating wave
  | Largest tracked array allocation on task 0 so far         :           0.019 MB  when allocating H_times_psi
  Note:  These values currently only include a subset of arrays which are explicitly tracked.
  The "true" memory usage will be greater.
------------------------------------------------------------

------------------------------------------------------------
          Begin self-consistency iteration #    1

  Date     :  20190509, Time     :  114659.015
------------------------------------------------------------
  Evaluating new KS density.
  Integration grid: deviation in total charge (<rho> - N_e) =  -3.730349E-14
  Pulay mixing of updated and previous charge densities.

  Evaluating partitioned Hartree potential by multipole expansion.
  | Analytical far-field extrapolation by fixed multipoles:
  | Hartree multipole sum: apparent total charge =   0.499215E-01
  Summing up the Hartree potential.
  Time summed over all CPUs for potential: real work        0.017 s, elapsed        0.017 s
  | RMS charge density error from multipole expansion :   0.486129E-03

  Integrating Hamiltonian matrix: batch-based integration.
  Time summed over all CPUs for integration: real work        0.028 s, elapsed        0.028 s

  Updating Kohn-Sham eigenvalues, eigenvectors, occupation numbers, and Fermi level.
  Solving generalized eigenproblem
  Updating Kohn-Sham eigenvalues and eigenfunctions.
  Solving real generalised eigenvalue problem by standard LAPACK (fast)

  Obtaining occupation numbers and chemical potential using ELSI.
  | Chemical potential (Fermi level):    -6.98227861eV
  Writing Kohn-Sham eigenvalues.

  State    Occupation    Eigenvalue [Ha]    Eigenvalue [eV]
      1       2.00000         -18.901994         -514.34943
      2       2.00000          -1.155078          -31.43126
      3       2.00000          -0.676408          -18.40599
      4       2.00000          -0.676395          -18.40565
      5       2.00000          -0.510148          -13.88183
      6       0.00000          -0.100761           -2.74186
      7       0.00000          -0.007193           -0.19574
      8       0.00000          -0.007190           -0.19564
      9       0.00000           0.192604            5.24103
     10       0.00000           0.254892            6.93598
     11       0.00000           0.254905            6.93633
     12       0.00000           0.456263           12.41554
     13       0.00000           0.660393           17.97020

  Highest occupied state (VBM) at    -13.88183270 eV
  | Occupation number:      2.00000000

  Lowest unoccupied state (CBM) at    -2.74185850 eV
  | Occupation number:      0.00000000

  Overall HOMO-LUMO gap:     11.13997420 eV.

  Total energy components:
  | Sum of eigenvalues            :         -43.84004450 Ha       -1192.94830740 eV
  | XC energy correction          :          -8.86661922 Ha        -241.27298480 eV
  | XC potential correction       :          11.67549746 Ha         317.70645066 eV
  | Free-atom electrostatic energy:         -35.29706310 Ha        -960.48195573 eV
  | Hartree energy correction     :           0.03279510 Ha           0.89240005 eV
  | Entropy correction            :          -0.00000000 Ha          -0.00000000 eV
  | ---------------------------
  | Total energy                  :         -76.29543426 Ha       -2076.10439722 eV
  | Total energy, T -> 0          :         -76.29543426 Ha       -2076.10439722 eV  <-- do not rely on this value for anything but (periodic) metals
  | Electronic free energy        :         -76.29543426 Ha       -2076.10439722 eV

  Derived energy quantities:
  | Kinetic energy                :          75.75290204 Ha        2061.34134450 eV
  | Electrostatic energy          :        -143.18171708 Ha       -3896.17275692 eV
  | Energy correction for multipole
  | error in Hartree potential    :           0.00050731 Ha           0.01380473 eV
  | Sum of eigenvalues per atom                           :        -298.23707685 eV
  | Total energy (T->0) per atom                          :        -519.02609930 eV  <-- do not rely on this value for anything but (periodic) metals
  | Electronic free energy per atom                       :        -519.02609930 eV

  Self-consistency convergence accuracy:
  | Change of charge density      :  0.2573E+00
  | Change of sum of eigenvalues  : -0.4412E+00 eV
  | Change of total energy        :  0.4843E+00 eV

  End self-consistency iteration #     1       :  max(cpu_time)    wall_clock(cpu1)
  | Time for this iteration                    :        0.060 s           0.060 s
  | Charge density update                      :        0.013 s           0.012 s
  | Density mixing                             :        0.000 s           0.001 s
  | Hartree multipole update                   :        0.001 s           0.001 s
  | Hartree multipole summation                :        0.017 s           0.017 s
  | Integration                                :        0.028 s           0.028 s
  | Solution of K.-S. eqns.                    :        0.000 s           0.000 s
  | Total energy evaluation                    :        0.000 s           0.001 s

  Partial memory accounting:
  | Current value for overall tracked memory usage on task 0  :           0.017 MB
  | Peak value for overall tracked memory usage on task 0     :           0.082 MB after allocating wave
  | Largest tracked array allocation on task 0 so far         :           0.019 MB  when allocating H_times_psi
  Note:  These values currently only include a subset of arrays which are explicitly tracked.
  The "true" memory usage will be greater.
------------------------------------------------------------

------------------------------------------------------------
          Begin self-consistency iteration #    2

  Date     :  20190509, Time     :  114659.075
------------------------------------------------------------
  Evaluating new KS density.
  Integration grid: deviation in total charge (<rho> - N_e) =  -1.953993E-14
  Pulay mixing of updated and previous charge densities.

  Evaluating partitioned Hartree potential by multipole expansion.
  | Analytical far-field extrapolation by fixed multipoles:
  | Hartree multipole sum: apparent total charge =   0.436442E+00
  Summing up the Hartree potential.
  Time summed over all CPUs for potential: real work        0.016 s, elapsed        0.016 s
  | RMS charge density error from multipole expansion :   0.419034E-02

  Integrating Hamiltonian matrix: batch-based integration.
  Time summed over all CPUs for integration: real work        0.030 s, elapsed        0.030 s

  Updating Kohn-Sham eigenvalues, eigenvectors, occupation numbers, and Fermi level.
  Solving generalized eigenproblem
  Updating Kohn-Sham eigenvalues and eigenfunctions.
  Solving real generalised eigenvalue problem by standard LAPACK (fast)

  Obtaining occupation numbers and chemical potential using ELSI.
  | Chemical potential (Fermi level):    -8.70118120eV
  Highest occupied state (VBM) at    -14.67014903 eV
  | Occupation number:      2.00000000

  Lowest unoccupied state (CBM) at    -4.88003954 eV
  | Occupation number:      0.00000000

  Overall HOMO-LUMO gap:      9.79010949 eV.

  Checking to see if s.c.f. parameters should be adjusted.
  The system likely has a gap. Increased the default Pulay mixing parameter (charge_mix_param). Value:   0.200000 .
  Kept the default occupation width. Value:   0.010000 eV.

  Total energy components:
  | Sum of eigenvalues            :         -44.06456177 Ha       -1199.05773313 eV
  | XC energy correction          :          -8.88988519 Ha        -241.90608418 eV
  | XC potential correction       :          11.70778163 Ha         318.58494752 eV
  | Free-atom electrostatic energy:         -35.29706310 Ha        -960.48195573 eV
  | Hartree energy correction     :           0.33531705 Ha           9.12444128 eV
  | Entropy correction            :          -0.00000000 Ha          -0.00000000 eV
  | ---------------------------
  | Total energy                  :         -76.20841138 Ha       -2073.73638423 eV
  | Total energy, T -> 0          :         -76.20841138 Ha       -2073.73638423 eV  <-- do not rely on this value for anything but (periodic) metals
  | Electronic free energy        :         -76.20841138 Ha       -2073.73638423 eV

  Derived energy quantities:
  | Kinetic energy                :          76.28524638 Ha        2075.82717095 eV
  | Electrostatic energy          :        -143.60377257 Ha       -3907.65747100 eV
  | Energy correction for multipole
  | error in Hartree potential    :           0.00418516 Ha           0.11388398 eV
  | Sum of eigenvalues per atom                           :        -299.76443328 eV
  | Total energy (T->0) per atom                          :        -518.43409606 eV  <-- do not rely on this value for anything but (periodic) metals
  | Electronic free energy per atom                       :        -518.43409606 eV

  Self-consistency convergence accuracy:
  | Change of charge density      :  0.2324E+00
  | Change of sum of eigenvalues  : -0.6109E+01 eV
  | Change of total energy        :  0.2368E+01 eV

  End self-consistency iteration #     2       :  max(cpu_time)    wall_clock(cpu1)
  | Time for this iteration                    :        0.060 s           0.059 s
  | Charge density update                      :        0.011 s           0.011 s
  | Density mixing                             :        0.000 s           0.000 s
  | Hartree multipole update                   :        0.001 s           0.002 s
  | Hartree multipole summation                :        0.017 s           0.016 s
  | Integration                                :        0.030 s           0.030 s
  | Solution of K.-S. eqns.                    :        0.000 s           0.000 s
  | Total energy evaluation                    :        0.000 s           0.000 s

  Partial memory accounting:
  | Current value for overall tracked memory usage on task 0  :           0.018 MB
  | Peak value for overall tracked memory usage on task 0     :           0.083 MB after allocating wave
  | Largest tracked array allocation on task 0 so far         :           0.019 MB  when allocating H_times_psi
  Note:  These values currently only include a subset of arrays which are explicitly tracked.
  The "true" memory usage will be greater.
------------------------------------------------------------

------------------------------------------------------------
          Begin self-consistency iteration #    3

  Date     :  20190509, Time     :  114659.134
------------------------------------------------------------
  Evaluating new KS density.
  Integration grid: deviation in total charge (<rho> - N_e) =  -3.197442E-14
  Pulay mixing of updated and previous charge densities.

  Evaluating partitioned Hartree potential by multipole expansion.
  | Analytical far-field extrapolation by fixed multipoles:
  | Hartree multipole sum: apparent total charge =   0.853550E+00
  Summing up the Hartree potential.
  Time summed over all CPUs for potential: real work        0.017 s, elapsed        0.017 s
  | RMS charge density error from multipole expansion :   0.782875E-02

  Integrating Hamiltonian matrix: batch-based integration.
  Time summed over all CPUs for integration: real work        0.029 s, elapsed        0.029 s

  Updating Kohn-Sham eigenvalues, eigenvectors, occupation numbers, and Fermi level.
  Solving generalized eigenproblem
  Updating Kohn-Sham eigenvalues and eigenfunctions.
  Solving real generalised eigenvalue problem by standard LAPACK (fast)

  Obtaining occupation numbers and chemical potential using ELSI.
  | Chemical potential (Fermi level):   -11.61113743eV
  Highest occupied state (VBM) at    -18.15702634 eV
  | Occupation number:      2.00000000

  Lowest unoccupied state (CBM) at    -7.59453225 eV
  | Occupation number:      0.00000000

  Overall HOMO-LUMO gap:     10.56249409 eV.

  Total energy components:
  | Sum of eigenvalues            :         -45.45068516 Ha       -1236.77606964 eV
  | XC energy correction          :          -8.79534622 Ha        -239.33354793 eV
  | XC potential correction       :          11.58433182 Ha         315.22570737 eV
  | Free-atom electrostatic energy:         -35.29706310 Ha        -960.48195573 eV
  | Hartree energy correction     :           1.78254756 Ha          48.50558717 eV
  | Entropy correction            :          -0.00000000 Ha          -0.00000000 eV
  | ---------------------------
  | Total energy                  :         -76.17621510 Ha       -2072.86027876 eV
  | Total energy, T -> 0          :         -76.17621510 Ha       -2072.86027876 eV  <-- do not rely on this value for anything but (periodic) metals
  | Electronic free energy        :         -76.17621510 Ha       -2072.86027876 eV

  Derived energy quantities:
  | Kinetic energy                :          75.81906962 Ha        2063.14185588 eV
  | Electrostatic energy          :        -143.19993849 Ha       -3896.66858671 eV
  | Energy correction for multipole
  | error in Hartree potential    :           0.00574683 Ha           0.15637932 eV
  | Sum of eigenvalues per atom                           :        -309.19401741 eV
  | Total energy (T->0) per atom                          :        -518.21506969 eV  <-- do not rely on this value for anything but (periodic) metals
  | Electronic free energy per atom                       :        -518.21506969 eV

  Self-consistency convergence accuracy:
  | Change of charge density      :  0.1082E+00
  | Change of sum of eigenvalues  : -0.3772E+02 eV
  | Change of total energy        :  0.8761E+00 eV

  End self-consistency iteration #     3       :  max(cpu_time)    wall_clock(cpu1)
  | Time for this iteration                    :        0.059 s           0.060 s
  | Charge density update                      :        0.011 s           0.012 s
  | Density mixing                             :        0.000 s           0.000 s
  | Hartree multipole update                   :        0.001 s           0.001 s
  | Hartree multipole summation                :        0.017 s           0.017 s
  | Integration                                :        0.029 s           0.029 s
  | Solution of K.-S. eqns.                    :        0.000 s           0.001 s
  | Total energy evaluation                    :        0.000 s           0.000 s

  Partial memory accounting:
  | Current value for overall tracked memory usage on task 0  :           0.018 MB
  | Peak value for overall tracked memory usage on task 0     :           0.083 MB after allocating wave
  | Largest tracked array allocation on task 0 so far         :           0.019 MB  when allocating H_times_psi
  Note:  These values currently only include a subset of arrays which are explicitly tracked.
  The "true" memory usage will be greater.
------------------------------------------------------------

------------------------------------------------------------
          Begin self-consistency iteration #    4

  Date     :  20190509, Time     :  114659.194
------------------------------------------------------------
  Evaluating new KS density.
  Integration grid: deviation in total charge (<rho> - N_e) =   0.000000E+00
  Pulay mixing of updated and previous charge densities.

  Evaluating partitioned Hartree potential by multipole expansion.
  | Analytical far-field extrapolation by fixed multipoles:
  | Hartree multipole sum: apparent total charge =   0.100711E+01
  Summing up the Hartree potential.
  Time summed over all CPUs for potential: real work        0.017 s, elapsed        0.017 s
  | RMS charge density error from multipole expansion :   0.925406E-02

  Integrating Hamiltonian matrix: batch-based integration.
  Time summed over all CPUs for integration: real work        0.030 s, elapsed        0.030 s

  Updating Kohn-Sham eigenvalues, eigenvectors, occupation numbers, and Fermi level.
  Solving generalized eigenproblem
  Updating Kohn-Sham eigenvalues and eigenfunctions.
  Solving real generalised eigenvalue problem by standard LAPACK (fast)

  Obtaining occupation numbers and chemical potential using ELSI.
  | Chemical potential (Fermi level):   -12.32839515eV
  Highest occupied state (VBM) at    -18.92629914 eV
  | Occupation number:      2.00000000

  Lowest unoccupied state (CBM) at    -8.35845370 eV
  | Occupation number:      0.00000000

  Overall HOMO-LUMO gap:     10.56784544 eV.

  Total energy components:
  | Sum of eigenvalues            :         -45.73808198 Ha       -1244.59653500 eV
  | XC energy correction          :          -8.79145778 Ha        -239.22773789 eV
  | XC potential correction       :          11.57966689 Ha         315.09876808 eV
  | Free-atom electrostatic energy:         -35.29706310 Ha        -960.48195573 eV
  | Hartree energy correction     :           2.07305335 Ha          56.41065190 eV
  | Entropy correction            :          -0.00000000 Ha          -0.00000000 eV
  | ---------------------------
  | Total energy                  :         -76.17388261 Ha       -2072.79680864 eV
  | Total energy, T -> 0          :         -76.17388261 Ha       -2072.79680864 eV  <-- do not rely on this value for anything but (periodic) metals
  | Electronic free energy        :         -76.17388261 Ha       -2072.79680864 eV

  Derived energy quantities:
  | Kinetic energy                :          75.80081877 Ha        2062.64522490 eV
  | Electrostatic energy          :        -143.18324360 Ha       -3896.21429565 eV
  | Energy correction for multipole
  | error in Hartree potential    :           0.00666205 Ha           0.18128357 eV
  | Sum of eigenvalues per atom                           :        -311.14913375 eV
  | Total energy (T->0) per atom                          :        -518.19920216 eV  <-- do not rely on this value for anything but (periodic) metals
  | Electronic free energy per atom                       :        -518.19920216 eV

  Self-consistency convergence accuracy:
  | Change of charge density      :  0.4483E-01
  | Change of sum of eigenvalues  : -0.7820E+01 eV
  | Change of total energy        :  0.6347E-01 eV

  End self-consistency iteration #     4       :  max(cpu_time)    wall_clock(cpu1)
  | Time for this iteration                    :        0.061 s           0.061 s
  | Charge density update                      :        0.011 s           0.011 s
  | Density mixing                             :        0.000 s           0.000 s
  | Hartree multipole update                   :        0.002 s           0.002 s
  | Hartree multipole summation                :        0.017 s           0.017 s
  | Integration                                :        0.031 s           0.030 s
  | Solution of K.-S. eqns.                    :        0.000 s           0.001 s
  | Total energy evaluation                    :        0.000 s           0.000 s

  Partial memory accounting:
  | Current value for overall tracked memory usage on task 0  :           0.019 MB
  | Peak value for overall tracked memory usage on task 0     :           0.083 MB after allocating wave
  | Largest tracked array allocation on task 0 so far         :           0.019 MB  when allocating H_times_psi
  Note:  These values currently only include a subset of arrays which are explicitly tracked.
  The "true" memory usage will be greater.
------------------------------------------------------------

------------------------------------------------------------
          Begin self-consistency iteration #    5

  Date     :  20190509, Time     :  114659.255
------------------------------------------------------------
  Evaluating new KS density.
  Integration grid: deviation in total charge (<rho> - N_e) =  -5.329071E-15
  Pulay mixing of updated and previous charge densities.

  Evaluating partitioned Hartree potential by multipole expansion.
  | Analytical far-field extrapolation by fixed multipoles:
  | Hartree multipole sum: apparent total charge =   0.101051E+01
  Summing up the Hartree potential.
  Time summed over all CPUs for potential: real work        0.018 s, elapsed        0.018 s
  | RMS charge density error from multipole expansion :   0.935278E-02

  Integrating Hamiltonian matrix: batch-based integration.
  Time summed over all CPUs for integration: real work        0.028 s, elapsed        0.028 s

  Updating Kohn-Sham eigenvalues, eigenvectors, occupation numbers, and Fermi level.
  Solving generalized eigenproblem
  Updating Kohn-Sham eigenvalues and eigenfunctions.
  Solving real generalised eigenvalue problem by standard LAPACK (fast)

  Obtaining occupation numbers and chemical potential using ELSI.
  | Chemical potential (Fermi level):   -12.16750721eV
  Highest occupied state (VBM) at    -18.70849300 eV
  | Occupation number:      2.00000000

  Lowest unoccupied state (CBM) at    -8.23754463 eV
  | Occupation number:      0.00000000

  Overall HOMO-LUMO gap:     10.47094837 eV.

  Total energy components:
  | Sum of eigenvalues            :         -45.64376286 Ha       -1242.02998131 eV
  | XC energy correction          :          -8.80503189 Ha        -239.59710824 eV
  | XC potential correction       :          11.59755020 Ha         315.58539781 eV
  | Free-atom electrostatic energy:         -35.29706310 Ha        -960.48195573 eV
  | Hartree energy correction     :           1.97452514 Ha          53.72956273 eV
  | Entropy correction            :          -0.00000000 Ha          -0.00000000 eV
  | ---------------------------
  | Total energy                  :         -76.17378251 Ha       -2072.79408473 eV
  | Total energy, T -> 0          :         -76.17378251 Ha       -2072.79408473 eV  <-- do not rely on this value for anything but (periodic) metals
  | Electronic free energy        :         -76.17378251 Ha       -2072.79408473 eV

  Derived energy quantities:
  | Kinetic energy                :          75.84849993 Ha        2063.94269535 eV
  | Electrostatic energy          :        -143.21725055 Ha       -3897.13967184 eV
  | Energy correction for multipole
  | error in Hartree potential    :           0.00646083 Ha           0.17580810 eV
  | Sum of eigenvalues per atom                           :        -310.50749533 eV
  | Total energy (T->0) per atom                          :        -518.19852118 eV  <-- do not rely on this value for anything but (periodic) metals
  | Electronic free energy per atom                       :        -518.19852118 eV

  Self-consistency convergence accuracy:
  | Change of charge density      :  0.1072E-01
  | Change of sum of eigenvalues  :  0.2567E+01 eV
  | Change of total energy        :  0.2724E-02 eV

  End self-consistency iteration #     5       :  max(cpu_time)    wall_clock(cpu1)
  | Time for this iteration                    :        0.060 s           0.060 s
  | Charge density update                      :        0.012 s           0.011 s
  | Density mixing                             :        0.001 s           0.001 s
  | Hartree multipole update                   :        0.002 s           0.002 s
  | Hartree multipole summation                :        0.018 s           0.018 s
  | Integration                                :        0.028 s           0.028 s
  | Solution of K.-S. eqns.                    :        0.000 s           0.000 s
  | Total energy evaluation                    :        0.000 s           0.000 s

  Partial memory accounting:
  | Current value for overall tracked memory usage on task 0  :           0.019 MB
  | Peak value for overall tracked memory usage on task 0     :           0.083 MB after allocating wave
  | Largest tracked array allocation on task 0 so far         :           0.019 MB  when allocating H_times_psi
  Note:  These values currently only include a subset of arrays which are explicitly tracked.
  The "true" memory usage will be greater.
------------------------------------------------------------

------------------------------------------------------------
          Begin self-consistency iteration #    6

  Date     :  20190509, Time     :  114659.315
------------------------------------------------------------
  Evaluating new KS density.
  Integration grid: deviation in total charge (<rho> - N_e) =  -1.421085E-14
  Pulay mixing of updated and previous charge densities.

  Evaluating partitioned Hartree potential by multipole expansion.
  | Analytical far-field extrapolation by fixed multipoles:
  | Hartree multipole sum: apparent total charge =   0.100144E+01
  Summing up the Hartree potential.
  Time summed over all CPUs for potential: real work        0.016 s, elapsed        0.016 s
  | RMS charge density error from multipole expansion :   0.925945E-02

  Integrating Hamiltonian matrix: batch-based integration.
  Time summed over all CPUs for integration: real work        0.028 s, elapsed        0.028 s

  Updating Kohn-Sham eigenvalues, eigenvectors, occupation numbers, and Fermi level.
  Solving generalized eigenproblem
  Updating Kohn-Sham eigenvalues and eigenfunctions.
  Solving real generalised eigenvalue problem by standard LAPACK (fast)

  Obtaining occupation numbers and chemical potential using ELSI.
  | Chemical potential (Fermi level):   -12.19705851eV
  Highest occupied state (VBM) at    -18.75859246 eV
  | Occupation number:      2.00000000

  Lowest unoccupied state (CBM) at    -8.23782710 eV
  | Occupation number:      0.00000000

  Overall HOMO-LUMO gap:     10.52076536 eV.

  Total energy components:
  | Sum of eigenvalues            :         -45.66919571 Ha       -1242.72204440 eV
  | XC energy correction          :          -8.79983865 Ha        -239.45579292 eV
  | XC potential correction       :          11.59066841 Ha         315.39813472 eV
  | Free-atom electrostatic energy:         -35.29706310 Ha        -960.48195573 eV
  | Hartree energy correction     :           2.00166988 Ha          54.46820877 eV
  | Entropy correction            :          -0.00000000 Ha          -0.00000000 eV
  | ---------------------------
  | Total energy                  :         -76.17375917 Ha       -2072.79344955 eV
  | Total energy, T -> 0          :         -76.17375917 Ha       -2072.79344955 eV  <-- do not rely on this value for anything but (periodic) metals
  | Electronic free energy        :         -76.17375917 Ha       -2072.79344955 eV

  Derived energy quantities:
  | Kinetic energy                :          75.81804991 Ha        2063.11410807 eV
  | Electrostatic energy          :        -143.19197043 Ha       -3896.45176470 eV
  | Energy correction for multipole
  | error in Hartree potential    :           0.00635491 Ha           0.17292597 eV
  | Sum of eigenvalues per atom                           :        -310.68051110 eV
  | Total energy (T->0) per atom                          :        -518.19836239 eV  <-- do not rely on this value for anything but (periodic) metals
  | Electronic free energy per atom                       :        -518.19836239 eV

  Self-consistency convergence accuracy:
  | Change of charge density      :  0.7276E-02
  | Change of sum of eigenvalues  : -0.6921E+00 eV
  | Change of total energy        :  0.6352E-03 eV

  End self-consistency iteration #     6       :  max(cpu_time)    wall_clock(cpu1)
  | Time for this iteration                    :        0.058 s           0.059 s
  | Charge density update                      :        0.011 s           0.011 s
  | Density mixing                             :        0.001 s           0.001 s
  | Hartree multipole update                   :        0.001 s           0.002 s
  | Hartree multipole summation                :        0.017 s           0.016 s
  | Integration                                :        0.028 s           0.028 s
  | Solution of K.-S. eqns.                    :        0.000 s           0.000 s
  | Total energy evaluation                    :        0.000 s           0.001 s

  Partial memory accounting:
  | Current value for overall tracked memory usage on task 0  :           0.019 MB
  | Peak value for overall tracked memory usage on task 0     :           0.084 MB after allocating wave
  | Largest tracked array allocation on task 0 so far         :           0.019 MB  when allocating H_times_psi
  Note:  These values currently only include a subset of arrays which are explicitly tracked.
  The "true" memory usage will be greater.
------------------------------------------------------------

------------------------------------------------------------
          Begin self-consistency iteration #    7

  Date     :  20190509, Time     :  114659.374
------------------------------------------------------------
  Evaluating new KS density.
  Integration grid: deviation in total charge (<rho> - N_e) =  -1.065814E-14
  Pulay mixing of updated and previous charge densities.

  Evaluating partitioned Hartree potential by multipole expansion.
  | Analytical far-field extrapolation by fixed multipoles:
  | Hartree multipole sum: apparent total charge =   0.999108E+00
  Summing up the Hartree potential.
  Time summed over all CPUs for potential: real work        0.017 s, elapsed        0.017 s
  | RMS charge density error from multipole expansion :   0.925336E-02

  Integrating Hamiltonian matrix: batch-based integration.
  Time summed over all CPUs for integration: real work        0.029 s, elapsed        0.029 s

  Updating Kohn-Sham eigenvalues, eigenvectors, occupation numbers, and Fermi level.
  Solving generalized eigenproblem
  Updating Kohn-Sham eigenvalues and eigenfunctions.
  Solving real generalised eigenvalue problem by standard LAPACK (fast)

  Obtaining occupation numbers and chemical potential using ELSI.
  | Chemical potential (Fermi level):   -12.14478127eV
  Highest occupied state (VBM) at    -18.67934267 eV
  | Occupation number:      2.00000000

  Lowest unoccupied state (CBM) at    -8.19380823 eV
  | Occupation number:      0.00000000

  Overall HOMO-LUMO gap:     10.48553444 eV.

  Total energy components:
  | Sum of eigenvalues            :         -45.63876872 Ha       -1241.89408386 eV
  | XC energy correction          :          -8.80337895 Ha        -239.55212958 eV
  | XC potential correction       :          11.59532023 Ha         315.52471726 eV
  | Free-atom electrostatic energy:         -35.29706310 Ha        -960.48195573 eV
  | Hartree energy correction     :           1.97014600 Ha          53.61040027 eV
  | Entropy correction            :          -0.00000000 Ha          -0.00000000 eV
  | ---------------------------
  | Total energy                  :         -76.17374455 Ha       -2072.79305164 eV
  | Total energy, T -> 0          :         -76.17374455 Ha       -2072.79305164 eV  <-- do not rely on this value for anything but (periodic) metals
  | Electronic free energy        :         -76.17374455 Ha       -2072.79305164 eV

  Derived energy quantities:
  | Kinetic energy                :          75.82776376 Ha        2063.37843537 eV
  | Electrostatic energy          :        -143.19812935 Ha       -3896.61935743 eV
  | Energy correction for multipole
  | error in Hartree potential    :           0.00624509 Ha           0.16993757 eV
  | Sum of eigenvalues per atom                           :        -310.47352097 eV
  | Total energy (T->0) per atom                          :        -518.19826291 eV  <-- do not rely on this value for anything but (periodic) metals
  | Electronic free energy per atom                       :        -518.19826291 eV

  Self-consistency convergence accuracy:
  | Change of charge density      :  0.3743E-02
  | Change of sum of eigenvalues  :  0.8280E+00 eV
  | Change of total energy        :  0.3979E-03 eV

  End self-consistency iteration #     7       :  max(cpu_time)    wall_clock(cpu1)
  | Time for this iteration                    :        0.060 s           0.059 s
  | Charge density update                      :        0.011 s           0.011 s
  | Density mixing                             :        0.001 s           0.001 s
  | Hartree multipole update                   :        0.001 s           0.001 s
  | Hartree multipole summation                :        0.017 s           0.017 s
  | Integration                                :        0.029 s           0.029 s
  | Solution of K.-S. eqns.                    :        0.000 s           0.000 s
  | Total energy evaluation                    :        0.000 s           0.000 s

  Partial memory accounting:
  | Current value for overall tracked memory usage on task 0  :           0.019 MB
  | Peak value for overall tracked memory usage on task 0     :           0.084 MB after allocating wave
  | Largest tracked array allocation on task 0 so far         :           0.019 MB  when allocating H_times_psi
  Note:  These values currently only include a subset of arrays which are explicitly tracked.
  The "true" memory usage will be greater.
------------------------------------------------------------

------------------------------------------------------------
          Begin self-consistency iteration #    8

  Date     :  20190509, Time     :  114659.433
------------------------------------------------------------
  Evaluating new KS density.
  Integration grid: deviation in total charge (<rho> - N_e) =   1.598721E-14
  Pulay mixing of updated and previous charge densities.

  Evaluating partitioned Hartree potential by multipole expansion.
  | Analytical far-field extrapolation by fixed multipoles:
  | Hartree multipole sum: apparent total charge =   0.999325E+00
  Summing up the Hartree potential.
  Time summed over all CPUs for potential: real work        0.017 s, elapsed        0.017 s
  | RMS charge density error from multipole expansion :   0.925652E-02

  Integrating Hamiltonian matrix: batch-based integration.
  Time summed over all CPUs for integration: real work        0.028 s, elapsed        0.028 s

  Updating Kohn-Sham eigenvalues, eigenvectors, occupation numbers, and Fermi level.
  Solving generalized eigenproblem
  Updating Kohn-Sham eigenvalues and eigenfunctions.
  Solving real generalised eigenvalue problem by standard LAPACK (fast)

  Obtaining occupation numbers and chemical potential using ELSI.
  | Chemical potential (Fermi level):   -12.14074076eV
  Highest occupied state (VBM) at    -18.67363444 eV
  | Occupation number:      2.00000000

  Lowest unoccupied state (CBM) at    -8.19083496 eV
  | Occupation number:      0.00000000

  Overall HOMO-LUMO gap:     10.48279949 eV.

  Total energy components:
  | Sum of eigenvalues            :         -45.63665795 Ha       -1241.83664690 eV
  | XC energy correction          :          -8.80371585 Ha        -239.56129711 eV
  | XC potential correction       :          11.59576364 Ha         315.53678298 eV
  | Free-atom electrostatic energy:         -35.29706310 Ha        -960.48195573 eV
  | Hartree energy correction     :           1.96792891 Ha          53.55007015 eV
  | Entropy correction            :          -0.00000000 Ha          -0.00000000 eV
  | ---------------------------
  | Total energy                  :         -76.17374436 Ha       -2072.79304662 eV
  | Total energy, T -> 0          :         -76.17374436 Ha       -2072.79304662 eV  <-- do not rely on this value for anything but (periodic) metals
  | Electronic free energy        :         -76.17374436 Ha       -2072.79304662 eV

  Derived energy quantities:
  | Kinetic energy                :          75.82822381 Ha        2063.39095417 eV
  | Electrostatic energy          :        -143.19825232 Ha       -3896.62270368 eV
  | Energy correction for multipole
  | error in Hartree potential    :           0.00623068 Ha           0.16954541 eV
  | Sum of eigenvalues per atom                           :        -310.45916172 eV
  | Total energy (T->0) per atom                          :        -518.19826165 eV  <-- do not rely on this value for anything but (periodic) metals
  | Electronic free energy per atom                       :        -518.19826165 eV

  Self-consistency convergence accuracy:
  | Change of charge density      :  0.5253E-03
  | Change of sum of eigenvalues  :  0.5744E-01 eV
  | Change of total energy        :  0.5024E-05 eV

  End self-consistency iteration #     8       :  max(cpu_time)    wall_clock(cpu1)
  | Time for this iteration                    :        0.059 s           0.059 s
  | Charge density update                      :        0.011 s           0.012 s
  | Density mixing                             :        0.001 s           0.001 s
  | Hartree multipole update                   :        0.001 s           0.001 s
  | Hartree multipole summation                :        0.017 s           0.017 s
  | Integration                                :        0.028 s           0.028 s
  | Solution of K.-S. eqns.                    :        0.000 s           0.000 s
  | Total energy evaluation                    :        0.000 s           0.000 s

  Partial memory accounting:
  | Current value for overall tracked memory usage on task 0  :           0.020 MB
  | Peak value for overall tracked memory usage on task 0     :           0.084 MB after allocating wave
  | Largest tracked array allocation on task 0 so far         :           0.019 MB  when allocating H_times_psi
  Note:  These values currently only include a subset of arrays which are explicitly tracked.
  The "true" memory usage will be greater.
------------------------------------------------------------

------------------------------------------------------------
          Begin self-consistency iteration #    9

  Date     :  20190509, Time     :  114659.492
------------------------------------------------------------
  Evaluating new KS density.
  Integration grid: deviation in total charge (<rho> - N_e) =   1.776357E-14
  Pulay mixing of updated and previous charge densities.

  Evaluating partitioned Hartree potential by multipole expansion.
  | Analytical far-field extrapolation by fixed multipoles:
  | Hartree multipole sum: apparent total charge =   0.999549E+00
  Summing up the Hartree potential.
  Time summed over all CPUs for potential: real work        0.018 s, elapsed        0.018 s
  | RMS charge density error from multipole expansion :   0.925678E-02

  Integrating Hamiltonian matrix: batch-based integration.
  Time summed over all CPUs for integration: real work        0.030 s, elapsed        0.030 s

  Updating Kohn-Sham eigenvalues, eigenvectors, occupation numbers, and Fermi level.
  Solving generalized eigenproblem
  Updating Kohn-Sham eigenvalues and eigenfunctions.
  Solving real generalised eigenvalue problem by standard LAPACK (fast)

  Obtaining occupation numbers and chemical potential using ELSI.
  | Chemical potential (Fermi level):   -12.13984624eV
  Highest occupied state (VBM) at    -18.67258230 eV
  | Occupation number:      2.00000000

  Lowest unoccupied state (CBM) at    -8.19023065 eV
  | Occupation number:      0.00000000

  Overall HOMO-LUMO gap:     10.48235164 eV.

  Total energy components:
  | Sum of eigenvalues            :         -45.63658785 Ha       -1241.83473929 eV
  | XC energy correction          :          -8.80376458 Ha        -239.56262300 eV
  | XC potential correction       :          11.59582734 Ha         315.53851638 eV
  | Free-atom electrostatic energy:         -35.29706310 Ha        -960.48195573 eV
  | Hartree energy correction     :           1.96784415 Ha          53.54776369 eV
  | Entropy correction            :          -0.00000000 Ha          -0.00000000 eV
  | ---------------------------
  | Total energy                  :         -76.17374404 Ha       -2072.79303795 eV
  | Total energy, T -> 0          :         -76.17374404 Ha       -2072.79303795 eV  <-- do not rely on this value for anything but (periodic) metals
  | Electronic free energy        :         -76.17374404 Ha       -2072.79303795 eV

  Derived energy quantities:
  | Kinetic energy                :          75.82740617 Ha        2063.36870501 eV
  | Electrostatic energy          :        -143.19738564 Ha       -3896.59911996 eV
  | Energy correction for multipole
  | error in Hartree potential    :           0.00621411 Ha           0.16909444 eV
  | Sum of eigenvalues per atom                           :        -310.45868482 eV
  | Total energy (T->0) per atom                          :        -518.19825949 eV  <-- do not rely on this value for anything but (periodic) metals
  | Electronic free energy per atom                       :        -518.19825949 eV

  Self-consistency convergence accuracy:
  | Change of charge density      :  0.2096E-03
  | Change of sum of eigenvalues  :  0.1908E-02 eV
  | Change of total energy        :  0.8666E-05 eV

  End self-consistency iteration #     9       :  max(cpu_time)    wall_clock(cpu1)
  | Time for this iteration                    :        0.063 s           0.063 s
  | Charge density update                      :        0.012 s           0.012 s
  | Density mixing                             :        0.001 s           0.002 s
  | Hartree multipole update                   :        0.001 s           0.001 s
  | Hartree multipole summation                :        0.018 s           0.018 s
  | Integration                                :        0.030 s           0.030 s
  | Solution of K.-S. eqns.                    :        0.000 s           0.000 s
  | Total energy evaluation                    :        0.000 s           0.000 s

  Partial memory accounting:
  | Current value for overall tracked memory usage on task 0  :           0.020 MB
  | Peak value for overall tracked memory usage on task 0     :           0.085 MB after allocating wave
  | Largest tracked array allocation on task 0 so far         :           0.019 MB  when allocating H_times_psi
  Note:  These values currently only include a subset of arrays which are explicitly tracked.
  The "true" memory usage will be greater.
------------------------------------------------------------

------------------------------------------------------------
          Begin self-consistency iteration #   10

  Date     :  20190509, Time     :  114659.555
------------------------------------------------------------
  Evaluating new KS density.
  Integration grid: deviation in total charge (<rho> - N_e) =  -1.776357E-14
  Pulay mixing of updated and previous charge densities.

  Evaluating partitioned Hartree potential by multipole expansion.
  | Analytical far-field extrapolation by fixed multipoles:
  | Hartree multipole sum: apparent total charge =   0.999556E+00
  Summing up the Hartree potential.
  Time summed over all CPUs for potential: real work        0.016 s, elapsed        0.016 s
  | RMS charge density error from multipole expansion :   0.925689E-02

  Integrating Hamiltonian matrix: batch-based integration.
  Time summed over all CPUs for integration: real work        0.028 s, elapsed        0.028 s

  Updating Kohn-Sham eigenvalues, eigenvectors, occupation numbers, and Fermi level.
  Solving generalized eigenproblem
  Updating Kohn-Sham eigenvalues and eigenfunctions.
  Solving real generalised eigenvalue problem by standard LAPACK (fast)

  Obtaining occupation numbers and chemical potential using ELSI.
  | Chemical potential (Fermi level):   -12.13992501eV
  Highest occupied state (VBM) at    -18.67278725 eV
  | Occupation number:      2.00000000

  Lowest unoccupied state (CBM) at    -8.19028836 eV
  | Occupation number:      0.00000000

  Overall HOMO-LUMO gap:     10.48249889 eV.

  Total energy components:
  | Sum of eigenvalues            :         -45.63668128 Ha       -1241.83728157 eV
  | XC energy correction          :          -8.80375517 Ha        -239.56236690 eV
  | XC potential correction       :          11.59581491 Ha         315.53817822 eV
  | Free-atom electrostatic energy:         -35.29706310 Ha        -960.48195573 eV
  | Hartree energy correction     :           1.96794060 Ha          53.55038821 eV
  | Entropy correction            :          -0.00000000 Ha          -0.00000000 eV
  | ---------------------------
  | Total energy                  :         -76.17374404 Ha       -2072.79303776 eV
  | Total energy, T -> 0          :         -76.17374404 Ha       -2072.79303776 eV  <-- do not rely on this value for anything but (periodic) metals
  | Electronic free energy        :         -76.17374404 Ha       -2072.79303776 eV

  Derived energy quantities:
  | Kinetic energy                :          75.82734867 Ha        2063.36714033 eV
  | Electrostatic energy          :        -143.19733754 Ha       -3896.59781119 eV
  | Energy correction for multipole
  | error in Hartree potential    :           0.00621383 Ha           0.16908686 eV
  | Sum of eigenvalues per atom                           :        -310.45932039 eV
  | Total energy (T->0) per atom                          :        -518.19825944 eV  <-- do not rely on this value for anything but (periodic) metals
  | Electronic free energy per atom                       :        -518.19825944 eV

  Self-consistency convergence accuracy:
  | Change of charge density      :  0.2320E-04
  | Change of sum of eigenvalues  : -0.2542E-02 eV
  | Change of total energy        :  0.1897E-06 eV

  End self-consistency iteration #    10       :  max(cpu_time)    wall_clock(cpu1)
  | Time for this iteration                    :        0.058 s           0.058 s
  | Charge density update                      :        0.011 s           0.011 s
  | Density mixing                             :        0.001 s           0.001 s
  | Hartree multipole update                   :        0.001 s           0.002 s
  | Hartree multipole summation                :        0.016 s           0.016 s
  | Integration                                :        0.028 s           0.028 s
[...]
  Summing up the Hartree potential.
  Time summed over all CPUs for potential: real work        0.017 s, elapsed        0.017 s
  | RMS charge density error from multipole expansion :   0.925693E-02

  Integrating Hamiltonian matrix: batch-based integration.
  Time summed over all CPUs for integration: real work        0.028 s, elapsed        0.028 s

  Updating Kohn-Sham eigenvalues, eigenvectors, occupation numbers, and Fermi level.
  Solving generalized eigenproblem
  Updating Kohn-Sham eigenvalues and eigenfunctions.
  Solving real generalised eigenvalue problem by standard LAPACK (fast)

  Obtaining occupation numbers and chemical potential using ELSI.
  | Chemical potential (Fermi level):   -12.13993116eV
  Highest occupied state (VBM) at    -18.67281699 eV
  | Occupation number:      2.00000000

  Lowest unoccupied state (CBM) at    -8.19030013 eV
  | Occupation number:      0.00000000

  Overall HOMO-LUMO gap:     10.48251686 eV.

  Total energy components:
  | Sum of eigenvalues            :         -45.63670248 Ha       -1241.83785839 eV
  | XC energy correction          :          -8.80375443 Ha        -239.56234696 eV
  | XC potential correction       :          11.59581394 Ha         315.53815183 eV
  | Free-atom electrostatic energy:         -35.29706310 Ha        -960.48195573 eV
  | Hartree energy correction     :           1.96796204 Ha          53.55097174 eV
  | Entropy correction            :          -0.00000000 Ha          -0.00000000 eV
  | ---------------------------
  | Total energy                  :         -76.17374403 Ha       -2072.79303751 eV
  | Total energy, T -> 0          :         -76.17374403 Ha       -2072.79303751 eV  <-- do not rely on this value for anything but (periodic) metals
  | Electronic free energy        :         -76.17374403 Ha       -2072.79303751 eV

  Derived energy quantities:
  | Kinetic energy                :          75.82731768 Ha        2063.36629703 eV
  | Electrostatic energy          :        -143.19730727 Ha       -3896.59698758 eV
  | Energy correction for multipole
  | error in Hartree potential    :           0.00621338 Ha           0.16907458 eV
  | Sum of eigenvalues per atom                           :        -310.45946460 eV
  | Total energy (T->0) per atom                          :        -518.19825938 eV  <-- do not rely on this value for anything but (periodic) metals
  | Electronic free energy per atom                       :        -518.19825938 eV

  Self-consistency convergence accuracy:
  | Change of charge density      :  0.6951E-06
  | Change of sum of eigenvalues  :  0.7879E-04 eV
  | Change of total energy        : -0.2396E-07 eV

  Electronic self-consistency reached - switching on the force computation.

  End self-consistency iteration #    12       :  max(cpu_time)    wall_clock(cpu1)
  | Time for this iteration                    :        0.059 s           0.060 s
  | Charge density & force component update    :        0.012 s           0.012 s
  | Density mixing                             :        0.001 s           0.001 s
  | Hartree multipole update                   :        0.001 s           0.001 s
  | Hartree multipole summation                :        0.016 s           0.017 s
  | Integration                                :        0.029 s           0.028 s
  | Solution of K.-S. eqns.                    :        0.000 s           0.000 s
  | Total energy evaluation                    :        0.000 s           0.000 s

  Partial memory accounting:
  | Current value for overall tracked memory usage on task 0  :           0.020 MB
  | Peak value for overall tracked memory usage on task 0     :           0.085 MB after allocating wave
  | Largest tracked array allocation on task 0 so far         :           0.019 MB  when allocating H_times_psi
  Note:  These values currently only include a subset of arrays which are explicitly tracked.
  The "true" memory usage will be greater.
------------------------------------------------------------

------------------------------------------------------------
          Begin self-consistency iteration #   13

  Date     :  20190509, Time     :  114659.735
------------------------------------------------------------
  Evaluating new KS density and force components.
  Integration grid: deviation in total charge (<rho> - N_e) =  -1.065814E-14
  Pulay mixing of updated and previous charge densities.

  Evaluating partitioned Hartree potential by multipole expansion.
  | Analytical far-field extrapolation by fixed multipoles:
  | Hartree multipole sum: apparent total charge =   0.999566E+00
  Summing up the Hartree potential.
  Time summed over all CPUs for potential: real work        0.051 s, elapsed        0.051 s
  | RMS charge density error from multipole expansion :   0.925693E-02

  Integrating Hamiltonian matrix: batch-based integration.
  Time summed over all CPUs for integration: real work        0.027 s, elapsed        0.027 s

  Updating Kohn-Sham eigenvalues, eigenvectors, occupation numbers, and Fermi level.
  Solving generalized eigenproblem
  Updating Kohn-Sham eigenvalues and eigenfunctions.
  Solving real generalised eigenvalue problem by standard LAPACK (fast)

  Obtaining occupation numbers and chemical potential using ELSI.
  | Chemical potential (Fermi level):   -12.13993083eV
  Highest occupied state (VBM) at    -18.67281647 eV
  | Occupation number:      2.00000000

  Lowest unoccupied state (CBM) at    -8.19029987 eV
  | Occupation number:      0.00000000

  Overall HOMO-LUMO gap:     10.48251660 eV.

  Total energy components:
  | Sum of eigenvalues            :         -45.63670223 Ha       -1241.83785171 eV
  | XC energy correction          :          -8.80375446 Ha        -239.56234778 eV
  | XC potential correction       :          11.59581398 Ha         315.53815291 eV
  | Free-atom electrostatic energy:         -35.29706310 Ha        -960.48195573 eV
  | Hartree energy correction     :           1.96796178 Ha          53.55096480 eV
  | Entropy correction            :          -0.00000000 Ha          -0.00000000 eV
  | ---------------------------
  | Total energy                  :         -76.17374403 Ha       -2072.79303751 eV
  | Total energy, T -> 0          :         -76.17374403 Ha       -2072.79303751 eV  <-- do not rely on this value for anything but (periodic) metals
  | Electronic free energy        :         -76.17374403 Ha       -2072.79303751 eV

  Derived energy quantities:
  | Kinetic energy                :          75.82731785 Ha        2063.36630168 eV
  | Electrostatic energy          :        -143.19730741 Ha       -3896.59699141 eV
  | Energy correction for multipole
  | error in Hartree potential    :           0.00621338 Ha           0.16907459 eV
  | Sum of eigenvalues per atom                           :        -310.45946293 eV
  | Total energy (T->0) per atom                          :        -518.19825938 eV  <-- do not rely on this value for anything but (periodic) metals
  | Electronic free energy per atom                       :        -518.19825938 eV

  atomic forces [eV/Ang]:
  -----------------------
  atom #    1
   Hellmann-Feynman              : -0.334082E-12  0.133623E-02 -0.883505E+01
   Ionic forces                  :  0.000000E+00  0.000000E+00  0.000000E+00
   Multipole                     :  0.187560E-12  0.147715E-04 -0.325376E+00
   Pulay                         :  0.758739E-12 -0.570110E-03  0.916029E+01
   ----------------------------------------------------------------
   Total forces(   1)            :  0.612217E-12  0.780888E-03 -0.139992E-03
  atom #    2
   Hellmann-Feynman              :  0.207402E+00 -0.120101E+00  0.134396E+00
   Ionic forces                  :  0.000000E+00  0.000000E+00  0.000000E+00
   Multipole                     :  0.498661E-01 -0.287840E-01  0.627725E-01
   Pulay                         : -0.257414E+00  0.148642E+00 -0.196417E+00
   ----------------------------------------------------------------
   Total forces(   2)            : -0.146120E-03 -0.242963E-03  0.751675E-03
  atom #    3
   Hellmann-Feynman              : -0.207402E+00 -0.120101E+00  0.134396E+00
   Ionic forces                  :  0.000000E+00  0.000000E+00  0.000000E+00
   Multipole                     : -0.498661E-01 -0.287840E-01  0.627725E-01
   Pulay                         :  0.257414E+00  0.148642E+00 -0.196417E+00
   ----------------------------------------------------------------
   Total forces(   3)            :  0.146120E-03 -0.242963E-03  0.751675E-03
  atom #    4
   Hellmann-Feynman              : -0.105478E-13  0.239497E+00  0.134280E+00
   Ionic forces                  :  0.000000E+00  0.000000E+00  0.000000E+00
   Multipole                     : -0.923632E-15  0.575297E-01  0.627261E-01
   Pulay                         :  0.582645E-14 -0.297159E+00 -0.196449E+00
   ----------------------------------------------------------------
   Total forces(   4)            : -0.564503E-14 -0.132165E-03  0.556384E-03


  Self-consistency convergence accuracy:
  | Change of charge density      :  0.3260E-07
  | Change of sum of eigenvalues  :  0.6678E-05 eV
  | Change of total energy        : -0.1166E-08 eV
  | Change of forces              :  0.4591E+01 eV/A

  Writing Kohn-Sham eigenvalues.

  State    Occupation    Eigenvalue [Ha]    Eigenvalue [eV]
      1       2.00000         -19.024223         -517.67545
      2       2.00000          -1.348550          -36.69592
      3       2.00000          -0.879689          -23.93754
      4       2.00000          -0.879675          -23.93719
      5       2.00000          -0.686213          -18.67282
      6       0.00000          -0.300988           -8.19030
      7       0.00000          -0.207033           -5.63366
      8       0.00000          -0.207027           -5.63349
      9       0.00000           0.016564            0.45074
     10       0.00000           0.052448            1.42718
     11       0.00000           0.052459            1.42747
     12       0.00000           0.240610            6.54734
     13       0.00000           0.467542           12.72247

  Highest occupied state (VBM) at    -18.67281647 eV
  | Occupation number:      2.00000000

  Lowest unoccupied state (CBM) at    -8.19029987 eV
  | Occupation number:      0.00000000

  Overall HOMO-LUMO gap:     10.48251660 eV.

  Self-consistency cycle converged.

  End self-consistency iteration #    13       :  max(cpu_time)    wall_clock(cpu1)
  | Time for this iteration                    :        0.123 s           0.123 s
  | Charge density & force component update    :        0.041 s           0.041 s
  | Density mixing                             :        0.001 s           0.001 s
  | Hartree multipole update                   :        0.001 s           0.002 s
  | Hartree multipole summation                :        0.051 s           0.051 s
  | Integration                                :        0.028 s           0.027 s
  | Solution of K.-S. eqns.                    :        0.000 s           0.001 s
  | Total energy evaluation                    :        0.000 s           0.000 s

  Partial memory accounting:
  | Current value for overall tracked memory usage on task 0  :           0.020 MB
  | Peak value for overall tracked memory usage on task 0     :           0.116 MB after allocating h_times_wave
  | Largest tracked array allocation on task 0 so far         :           0.058 MB  when allocating gradient_basis_wave
  Note:  These values currently only include a subset of arrays which are explicitly tracked.
  The "true" memory usage will be greater.
------------------------------------------------------------
  Removing unitary transformations (pure translations, rotations) from forces on atoms.
  Atomic forces before filtering:
  | Net force on center of mass :   0.695909E-12  0.162797E-03  0.191974E-02 eV/A
  | Net torque on center of mass:   0.239769E-04 -0.153181E-12  0.169563E-15 eV
  Atomic forces after filtering:
  | Net force on center of mass :  -0.188760E-19  0.435562E-19  0.000000E+00 eV/A
  | Net torque on center of mass:   0.178629E-18  0.670132E-19 -0.312091E-19 eV

  Energy and forces in a compact form:
  | Total energy uncorrected      :         -0.207279303751420E+04 eV
  | Total energy corrected        :         -0.207279303751420E+04 eV  <-- do not rely on this value for anything but (periodic) metals
  | Electronic free energy        :         -0.207279303751420E+04 eV
  Total atomic forces (unitary forces cleaned) [eV/Ang]:
  |   1          0.415285083769610E-12          0.736594934048899E-03         -0.619927829823506E-03
  |   2         -0.146120070524517E-03         -0.282465600787216E-03          0.279780304479452E-03
  |   3          0.146120070281135E-03         -0.282465600729252E-03          0.279780304622318E-03
  |   4         -0.171902769370895E-12         -0.171663732532431E-03          0.603672207217354E-04

  ------------------------------------ 
  Start decomposition of the XC Energy 
  ------------------------------------ 
  X and C from original XC functional choice 
  Hartree-Fock Energy :          0.000000000 Ha              0.000000000 eV
  X Energy            :         -8.140124739 Ha           -221.504064164 eV
  C Energy            :         -0.663629725 Ha            -18.058283616 eV
  Total XC Energy     :         -8.803754465 Ha           -239.562347780 eV
  ------------------------------------ 
  LDA X and C from self-consistent density 
  X Energy LDA        :         -8.140124739 Ha           -221.504064164 eV
  C Energy LDA        :         -0.663629725 Ha            -18.058283616 eV
  ------------------------------------ 
  End decomposition of the XC Energy 
  ------------------------------------ 

------------------------------------------------------------
  Relaxation / MD: End force evaluation.       :  max(cpu_time)    wall_clock(cpu1)
  | Time for this force evaluation             :        0.941 s           0.942 s

------------------------------------------------------------
  Geometry optimization: Attempting to predict improved coordinates.

  Removing unitary transformations (pure translations, rotations) from forces on atoms.
  Atomic forces before filtering:
  | Net force on center of mass :  -0.188760E-19  0.435562E-19  0.000000E+00 eV/A
  | Net torque on center of mass:   0.178629E-18  0.670132E-19 -0.312091E-19 eV
  Atomic forces after filtering:
  | Net force on center of mass :   0.137871E-19  0.435562E-19 -0.217781E-19 eV/A
  | Net torque on center of mass:   0.288112E-19 -0.275035E-19  0.575073E-19 eV
  Net remaining forces (excluding translations, rotations) in present geometry:
  Maximum force component is  0.736595E-03 eV/A.
  Present geometry is converged.

------------------------------------------------------------
  Final atomic structure:
                         x [A]             y [A]             z [A]
            atom         0.00000000        0.00001836        0.19077151  O
            atom         0.82425584       -0.47587261        0.47423563  H
            atom        -0.82425584       -0.47587261        0.47423563  H
            atom        -0.00000000        0.95172688        0.47446636  H
------------------------------------------------------------

------------------------------------------------------------------------------
  Final output of selected total energy values:

  The following output summarizes some interesting total energy values
  at the end of a run (AFTER all relaxation, molecular dynamics, etc.).

  | Total energy of the DFT / Hartree-Fock s.c.f. calculation      :          -2072.793037514 eV
  | Final zero-broadening corrected energy (caution - metals only) :          -2072.793037514 eV
  | For reference only, the value of 1 Hartree used in FHI-aims is :             27.211384500 eV

  Before relying on these values, please be sure to understand exactly which
  total energy value is referred to by a given number. Different objects may
  all carry the same name 'total energy'. Definitions:

  Total energy of the DFT / Hartree-Fock s.c.f. calculation:
  | Note that this energy does not include ANY quantities calculated after the
  | s.c.f. cycle, in particular not ANY RPA, MP2, etc. many-body perturbation terms.

  Final zero-broadening corrected energy:
  | For metallic systems only, a broadening of the occupation numbers at the Fermi
  | level can be extrapolated back to zero broadening by an electron-gas inspired
  | formula. For all systems that are not real metals, this value can be
  | meaningless and should be avoided.

------------------------------------------------------------------------------
  Methods described in the following list of references were used in this FHI-aims run.
  If you publish the results, please make sure to cite these reference if they apply.
  FHI-aims is an academic code, and for our developers (often, Ph.D. students
  and postdocs), scientific credit in the community is essential.
  Thank you for helping us!

  For any use of FHI-aims, please cite:

    Volker Blum, Ralf Gehrke, Felix Hanke, Paula Havu, Ville Havu,
    Xinguo Ren, Karsten Reuter, and Matthias Scheffler
    'Ab initio molecular simulations with numeric atom-centered orbitals'
    Computer Physics Communications 180, 2175-2196 (2009)
    http://dx.doi.org/10.1016/j.cpc.2009.06.022


  For the real-space grid partitioning and parallelization used in this calculation, please cite:

    Ville Havu, Volker Blum, Paula Havu, and Matthias Scheffler,
    'Efficient O(N) integration for all-electron electronic structure calculation'
    'using numerically tabulated basis functions'
    Journal of Computational Physics 228, 8367-8379 (2009).
    http://dx.doi.org/10.1016/j.jcp.2009.08.008

  Of course, there are many other important community references, e.g., those cited in the
  above references. Our list is limited to references that describe implementations in the
  FHI-aims code. The reason is purely practical (length of this list) - please credit others as well.

------------------------------------------------------------
          Leaving FHI-aims.
          Date     :  20190509, Time     :  114659.871

          Computational steps:
          | Number of self-consistency cycles          :           13
          | Number of SCF (re)initializations          :            1
          | Number of relaxation steps                 :            0

          Detailed time accounting                     :  max(cpu_time)    wall_clock(cpu1)
          | Total time                                 :        0.987 s           0.987 s
          | Preparation time                           :        0.044 s           0.044 s
          | Boundary condition initalization           :        0.000 s           0.000 s
          | Grid partitioning                          :        0.014 s           0.013 s
          | Preloading free-atom quantities on grid    :        0.001 s           0.001 s
          | Free-atom superposition energy             :        0.013 s           0.013 s
          | Total time for integrations                :        0.419 s           0.417 s
          | Total time for solution of K.-S. equations :        0.003 s           0.003 s
          | Total time for EV reorthonormalization     :        0.000 s           0.000 s
          | Total time for density & force components  :        0.180 s           0.178 s
          | Total time for mixing                      :        0.009 s           0.011 s
          | Total time for Hartree multipole update    :        0.019 s           0.019 s
          | Total time for Hartree multipole sum       :        0.253 s           0.255 s
          | Total time for total energy evaluation     :        0.001 s           0.002 s

 This is a stub MPI_ALLREDUCE call.
 You should not be here. Check your
 setting on the use_mpi variable, or
 link against true MPI-libraries.
