------------------------------------------------------------
          Invoking FHI-aims ...
          Version 171221_1
          Compiled on 2019/05/06 at 14:26:40 on host ffph0xx.

          When using FHI-aims, please cite the following reference:

          Volker Blum, Ralf Gehrke, Felix Hanke, Paula Havu,
          Ville Havu, Xinguo Ren, Karsten Reuter, and Matthias Scheffler,
          'Ab Initio Molecular Simulations with Numeric Atom-Centered Orbitals',
          Computer Physics Communications 180, 2175-2196 (2009)

          For any questions about FHI-aims, please visit the aimsclub website
          with its forums and wiki. Contributions to both the forums and the
          wiki are warmly encouraged - they are for you, and everyone is welcome there.

------------------------------------------------------------



  Date     :  20190514, Time     :  105501.504
  Time zero on CPU 1             :   0.668000000000000E-03  s.
  Internal wall clock time zero  :           327063301.504  s.

  FHI-aims created a unique identifier for this run for later identification
  aims_uuid : 131F0917-3A15-4DA2-A700-74B3C50F8F0B


  Performing system and environment tests:
  *** Environment variable OMP_NUM_THREADS is not set
  *** For performance reasons you might want to set it to 1
  | Stacksize not measured: no C compiler

  Obtaining array dimensions for all initial allocations:
  
  -----------------------------------------------------------------------
  Parsing control.in (first pass over file, find array dimensions only).
  The contents of control.in will be repeated verbatim below
  unless switched off by setting 'verbatim_writeout .false.' .
  in the first line of control.in .
  -----------------------------------------------------------------------
  
  #--- method ---
  xc pw-lda
  spin none
  relativistic atomic_zora scalar
  #---
  
  #--- k-grid settings ---
  k_grid 12 12 12
  #---
  
  
  
  
  
  
  
  
  
  
  
  #-------------------------------------------------------------------------------
  #--- Species defaults for Si
  #-------------------------------------------------------------------------------
  
  ################################################################################
  #
  #  FHI-aims code project
  #  VB, Fritz-Haber Institut, 2009
  #
  #  Suggested "light" defaults for Si atom (to be pasted into control.in file)
  #  Be sure to double-check any results obtained with these settings for post-processing,
  #  e.g., with the "tight" defaults and larger basis sets.
  #
  ################################################################################
    species        Si
  #     global species definitions
      nucleus             14
      mass                28.0855
  #
      l_hartree           4
  #
      cut_pot             3.5          1.5  1.0
      basis_dep_cutoff    1e-4
  #
      radial_base         42 5.0
      radial_multiplier   1
      angular_grids       specified
        division   0.5866   50
        division   0.9616  110
        division   1.2249  194
        division   1.3795  302
  #      division   1.4810  434
  #      division   1.5529  590
  #      division   1.6284  770
  #      division   1.7077  974
  #      division   2.4068 1202
  #      outer_grid   974
        outer_grid 302
  ################################################################################
  #
  #  Definition of "minimal" basis
  #
  ################################################################################
  #     valence basis states
      valence      3  s   2.
      valence      3  p   2.
  #     ion occupancy
      ion_occ      3  s   1.
      ion_occ      3  p   1.
  ################################################################################
  #
  #  Suggested additional basis functions. For production calculations,
  #  uncomment them one after another (the most important basis functions are
  #  listed first).
  #
  #  Constructed for dimers: 1.75 A, 2.0 A, 2.25 A, 2.75 A, 3.75 A
  #
  ################################################################################
  #  "First tier" - improvements: -571.96 meV to -37.03 meV
       hydro 3 d 4.2
       hydro 2 p 1.4
  #     hydro 4 f 6.2
       ionic 3 s auto
  #  "Second tier" - improvements: -16.76 meV to -3.03 meV
  #     hydro 3 d 9
  #     hydro 5 g 9.4
  #     hydro 4 p 4
  #     hydro 1 s 0.65
  #  "Third tier" - improvements: -3.89 meV to -0.60 meV
  #     ionic 3 d auto
  #     hydro 3 s 2.6
  #     hydro 4 f 8.4
  #     hydro 3 d 3.4
  #     hydro 3 p 7.8
  #  "Fourth tier" - improvements: -0.33 meV to -0.11 meV
  #     hydro 2 p 1.6
  #     hydro 5 g 10.8
  #     hydro 5 f 11.2
  #     hydro 3 d 1
  #     hydro 4 s 4.5
  #  Further basis functions that fell out of the optimization - noise
  #  level... < -0.08 meV
  #     hydro 4 d 6.6
  #     hydro 5 g 16.4
  #     hydro 4 d 9
  
  -----------------------------------------------------------------------
  Completed first pass over input file control.in .
  -----------------------------------------------------------------------
  
  
  -----------------------------------------------------------------------
  Parsing geometry.in (first pass over file, find array dimensions only).
  The contents of geometry.in will be repeated verbatim below
  unless switched off by setting 'verbatim_writeout .false.' .
  in the first line of geometry.in .
  -----------------------------------------------------------------------
  
  lattice_vector   0.000000   2.850000   2.850000
  lattice_vector   2.850000   0.000000   2.850000
  lattice_vector   2.850000   2.850000   0.000000
  atom_frac   0.000000   0.000000   0.000000 Si
  atom_frac   0.250000   0.250000   0.250000 Si
  
  -----------------------------------------------------------------------
  Completed first pass over input file geometry.in .
  -----------------------------------------------------------------------
  

  Basic array size parameters:
  | Number of species                 :        1
  | Number of atoms                   :        2
  | Number of lattice vectors         :        3
  | Max. basis fn. angular momentum   :        2
  | Max. atomic/ionic basis occupied n:        3
  | Max. number of basis fn. types    :        3
  | Max. radial fns per species/type  :        5
  | Max. logarithmic grid size        :     1346
  | Max. radial integration grid size :       42
  | Max. angular integration grid size:      302
  | Max. angular grid division number :        8
  | Radial grid for Hartree potential :     1346
  | Number of spin channels           :        1

------------------------------------------------------------
          Reading file control.in.
------------------------------------------------------------
  XC: Using Perdew-Wang parametrisation of Ceperley-Alder LDA.
  Spin treatment: No spin polarisation.
  Scalar relativistic treatment of kinetic energy: on-site free-atom approximation to ZORA.
  Found k-point grid:        12        12        12

  Reading configuration options for species Si                  .
  | Found nuclear charge :  14.0000
  | Found atomic mass :    28.085500000000000      amu
  | Found l_max for Hartree potential  :   4
  | Found cutoff potl. onset [A], width [A], scale factor :    3.50000    1.50000    1.00000
  | Threshold for basis-dependent cutoff potential is   0.100000E-03
  | Found data for basic radial integration grid :    42 points, outermost radius =    5.000 A
  | Found multiplier for basic radial grid :   1
  | Found angular grid specification: user-specified.
  | Specified grid contains     5 separate shells.
  | Check grid settings after all constraints further below.
  | Found free-atom valence shell :  3 s   2.000
  | Found free-atom valence shell :  3 p   2.000
  | Found free-ion valence shell :  3 s   1.000
  | Found free-ion valence shell :  3 p   1.000
  | Found hydrogenic basis function :  3 d   4.200
  | Found hydrogenic basis function :  2 p   1.400
  | Found ionic basis function :  3 s , default cutoff radius.
  Species Si                  : Missing cutoff potential type.
  Defaulting to exp(1/x)/(1-x)^2 type cutoff potential.
  Species Si: No 'logarithmic' tag. Using default grid for free atom:
  | Default logarithmic grid data [bohr] : 0.1000E-03 0.1000E+03 0.1012E+01
  | Will include ionic basis functions of  2.0-fold positive Si                   ion.
  Species Si: On-site basis accuracy parameter (for Gram-Schmidt orthonormalisation) not specified.
  Using default value basis_acc =  0.1000000E-03.
  Species Si                  : Using default innermost maximum threshold i_radial=  2 for radial functions.
  Species Si                  : Default cutoff onset for free atom density etc. : 0.35000000E+01 AA.
  Species Si                  : Basic radial grid will be enhanced according to radial_multiplier =   1, to contain    42 grid points.

  Finished reading input file 'control.in'. Consistency checks are next.

  MPI_IN_PLACE appears to work with this MPI implementation.
  | Keeping use_mpi_in_place .true. (see manual).
  Target number of points in a grid batch is not set. Defaulting to  100
  Method for grid partitioning is not set. Defaulting to 'maxmin' partitioning.
  Batch size limit is not set. Defaulting to    200
  By default, will store active basis functions for each batch.
  If in need of memory, prune_basis_once .false. can be used to disable this option.
  communication_type for Hartree potential was not specified.
  Defaulting to calc_hartree .
 * Attention: 
 * You may want to set distributed_spline_storage to .true. in order to save memory.
 * This doesn't harm performance and is perfectly ok unless:
 * - you get error messages in postprocessing (about missing atoms in get_rho_multipole_spl)
 * - you need full spline storage in hirshfeld_analysis
  Defaulting to Pulay charge density mixer.
  Pulay mixer: Number of relevant iterations not set.
  Defaulting to    8 iterations.
  Pulay mixer: Number of initial linear mixing iterations not set.
  Defaulting to    0 iterations.
  Work space size for distributed Hartree potential not set.
  Defaulting to   0.200000E+03 MB.
  Mixing parameter for charge density mixing has not been set.
  Using default: charge_mix_param =     0.0500.
  The mixing parameter will be adjusted in iteration number     2 of the first full s.c.f. cycle only.
  Algorithm-dependent basis array size parameters:
  | n_max_pulay                         :        8
 * Notice: The s.c.f. convergence criterion sc_accuracy_rho was not provided.
 * We used to stop in this case, and ask the user to provide reasonable
 * scf convergence criteria. However, this led some users to employ criteria
 * that led to extremely long run times, e.g., for simple relaxation.
 * We now preset a default value for sc_accuracy_rho if it is not set.
 * You may still wish to check if this setting is too tight or too loose for your needs.
 * Based on n_atoms, FHI-aims chose sc_accuracy_rho =  0.100000E-05 .
  Maximum number of self-consistency iterations not provided.
  Presetting  1000 iterations.
  Presetting      1001 iterations before the initial mixing cycle
  is restarted anyway using the sc_init_iter criterion / keyword.
  Presetting a factor      1.000 between actual scf density residual
  and density convergence criterion sc_accuracy_rho below which sc_init_iter
  takes no effect.
 * No s.c.f. convergence criteria (sc_accuracy_*) were provided in control.in.
 * The run will proceed with a reasonable default guess, but please check whether.
 * the s.c.f. cycles seem to take too much or too little time.
  Calculation of forces was not defined in control.in. No forces will be calculated.
  Geometry relaxation not requested: no relaxation will be performed.
  No accuracy limit for integral partition fn. given. Defaulting to  0.1000E-14.
  No threshold value for u(r) in integrations given. Defaulting to  0.1000E-05.
  No occupation type (smearing scheme) given. Defaulting to Gaussian broadening, width =  0.1000E-01 eV.
  The width will be adjusted in iteration number     2 of the first full s.c.f. cycle only.
  S.C.F. convergence parameters will be adjusted in iteration number     2 of the first full s.c.f. cycle only.
  No accuracy for occupation numbers given. Defaulting to  0.1000E-12.
  No threshold value for occupation numbers given. Defaulting to  0.0000E+00.
  No accuracy for fermi level given. Defaulting to  0.1000E-19.
  Maximum # of iterations to find E_F not set. Defaulting to  200.
  Preferred method for the eigenvalue solver ('KS_method') not specified in 'control.in'.
  Defaulting to serial version, 'lapack_fast'.
  Will not use alltoall communication since running on < 1024 CPUs.
  Threshold for basis singularities not set.
  Default threshold for basis singularities:  0.1000E-04
  partition_type (choice of integration weights) for integrals was not specified.
  | Using a version of the partition function of Stratmann and coworkers ('stratmann_smoother').
  | At each grid point, the set of atoms used to build the partition table is smoothly restricted to
  | only those atoms whose free-atom density would be non-zero at that grid point.
  Partitioning for Hartree potential was not defined. Using partition_type for integrals.
  | Adjusted default value of keyword multip_moments_threshold to:       0.10000000E-11
  | This value may affect high angular momentum components of the Hartree potential in periodic systems.
  Angular momentum expansion for Kerker preconditioner not set explicitly.
  | Using default value of   0
  No explicit requirement for turning off preconditioner.
  | By default, it will be turned off when the charge convergence reaches
  | sc_accuracy_rho  =   0.100000E-05
  No special mixing parameter while Kerker preconditioner is on.
  Using default: charge_mix_param =     0.0500.
  No q(lm)/r^(l+1) cutoff set for long-range Hartree potential.
  | Using default value of  0.100000E-09 .
  | Verify using the multipole_threshold keyword.
  Defaulting to new monopole extrapolation.
  Density update method: automatic selection selected.
  Using density matrix based charge density update.
  Using density matrix based charge density update.
  Using packed matrix style: index .
  Defaulting to use time-reversal symmetry for k-point grid.
------------------------------------------------------------


------------------------------------------------------------
          Reading geometry description geometry.in.
------------------------------------------------------------
  Input structure read successfully.
  The structure contains        2 atoms,  and a total of         28.000 electrons.

  Input geometry:
  | Unit cell:
  |        0.00000000        2.85000000        2.85000000
  |        2.85000000        0.00000000        2.85000000
  |        2.85000000        2.85000000        0.00000000
  | Atomic structure:
  |       Atom                x [A]            y [A]            z [A]
  |    1: Species Si            0.00000000        0.00000000        0.00000000
  |    2: Species Si            1.42500000        1.42500000        1.42500000

  Lattice parameters for 3D lattice (in Angstroms) :     4.030509    4.030509    4.030509
  Angle(s) between unit vectors (in degrees)      :    60.000000   60.000000   60.000000

  |

  | The smallest distance between any two atoms is         2.46817240 AA.
  |
  | The first atom of this pair is atom number                      1 .
  | The second atom of this pair is atom number                     2 .
  | Wigner-Seitz cell of the first atom image           0     0     0 .
  | (The Wigner-Seitz cell of the second atom is 0 0 0  by definition.)

  Quantities derived from the lattice vectors:
  | Reciprocal lattice vector 1: -1.102313  1.102313  1.102313
  | Reciprocal lattice vector 2:  1.102313 -1.102313  1.102313
  | Reciprocal lattice vector 3:  1.102313  1.102313 -1.102313
  | Unit cell volume                               :   0.462982E+02  A^3

  Range separation radius for Ewald summation (hartree_convergence_parameter):      4.10030792 bohr.

  Fractional coordinates:
                         L1                L2                L3
       atom_frac         0.00000000        0.00000000        0.00000000  Si
       atom_frac         0.25000000        0.25000000        0.25000000  Si

  Number of empty states per atom not set in control.in - providing a guess from actual geometry.
  | Total number of empty states used during s.c.f. cycle:        6
  If you use a very high smearing, use empty_states (per atom!) in control.in to increase this value.

  Structure-dependent array size parameters: 
  | Maximum number of distinct radial functions  :        8
  | Maximum number of basis functions            :       36
  | Number of Kohn-Sham states (occupied + empty):       20
------------------------------------------------------------

------------------------------------------------------------
          Preparing all fixed parts of the calculation.
------------------------------------------------------------
  Determining machine precision:
     2.2250738585072014E-308
  Setting up grids for atomic and cluster calculations.

  Creating wave function, potential, and density for free atoms.

  Species: Si

  List of occupied orbitals and eigenvalues:
    n    l              occ      energy [Ha]    energy [eV]
    1    0           2.0000       -65.491668     -1782.1190
    2    0           2.0000        -5.087967      -138.4506
    3    0           2.0000        -0.391471       -10.6525
    2    1           6.0000        -3.502246       -95.3010
    3    1           2.0000        -0.143943        -3.9169

  Creating fixed part of basis set: Ionic, confined, hydrogenic.

  Si                   ion:

  List of free ionic orbitals and eigenvalues:
    n    l      energy [Ha]    energy [eV]
    1    0       -66.364436     -1805.8682
    2    0        -5.935799      -161.5213
    3    0        -1.078166       -29.3384
    2    1        -4.351123      -118.4001
    3    1        -0.781733       -21.2720


  List of ionic basis orbitals and eigenvalues:
    n    l      energy [Ha]    energy [eV]    outer radius [A]
    3    0        -1.078146       -29.3378       4.214062


  Si                   hydrogenic:

  List of hydrogenic basis orbitals: 
    n    l      effective z      eigenvalue [eV]  inner max. [A]     outer max. [A]     outer radius [A]   
    3    2         4.200000       -26.6624           1.139231           1.139231           4.534782
    2    1         1.400000        -6.4613           1.472672           1.472672           4.590560


  Adding cutoff potential to free-atom effective potential.
  Creating atomic-like basis functions for current effective potential.

  Species Si                  :

  List of atomic basis orbitals and eigenvalues:
    n    l      energy [Ha]    energy [eV]    outer radius [A]
    1    0       -65.491668     -1782.1190       0.789468
    2    0        -5.087967      -138.4506       2.815114
    3    0        -0.391471       -10.6525       4.534782
    2    1        -3.502246       -95.3010       3.259919
    3    1        -0.143943        -3.9169       4.590560

  Assembling full basis from fixed parts.
  | Species Si :   atomic orbital   1 s accepted.
  | Species Si :   atomic orbital   2 s accepted.
  | Species Si :    ionic orbital   3 s accepted.
  | Species Si :   atomic orbital   3 s accepted.
  | Species Si :   atomic orbital   2 p accepted.
  | Species Si :   atomic orbital   3 p accepted.
  | Species Si :    hydro orbital   2 p accepted.
  | Species Si :    hydro orbital   3 d accepted.

  Basis size parameters after reduction:
  | Total number of radial functions:        8
  | Total number of basis functions :       36

  Per-task memory consumption for arrays in subroutine allocate_ext:
  |           2.757868MB.
  Testing on-site integration grid accuracy.
  |  Species  Function  <phi|h_atom|phi> (log., in eV)  <phi|h_atom|phi> (rad., in eV)
           1        1              -1782.1189727076              -1782.1182429251
           1        2               -138.4506350693               -138.4506310079
           1        3                -10.3030408815                -10.3029120678
           1        4                  5.0238999146                  4.9457540310 ***
           1        5                -95.3009689499                -95.3009689315
           1        6                 -3.9266496564                 -3.9420918374
           1        7                  6.3453628447                  6.1632372158 ***
           1        8                  6.2883050744                  6.2861881409
 * Note: Onsite integrals marked "***" above are less accurate than
 * onsite_accuracy_threshold =    0.03000 eV. Usually, this is harmless.
 * When in doubt, tighten the "radial" and/or "radial_multiplier" flags to check.

  Preparing densities etc. for the partition functions (integrals / Hartree potential).

  Preparations completed.
  max(cpu_time)          :      0.104 s.
  Wall clock time (cpu1) :      0.104 s.
------------------------------------------------------------

------------------------------------------------------------
          Begin self-consistency loop: Initialization.

          Date     :  20190514, Time     :  105501.609
------------------------------------------------------------

  Initializing index lists of integration centers etc. from given atomic structure:
  Mapping all atomic coordinates to central unit cell.

  Initializing the k-points
          Using symmetry for reducing the k-points
  | k-points reduced from:     1728 to      868
  | Number of k-points                             :       868
  The eigenvectors in the calculations are COMPLEX.
  | K-points in task   0:       868
  | Number of basis functions in the Hamiltonian integrals :      1142
  | Number of basis functions in a single unit cell        :        36
  | Number of centers in hartree potential         :       708
  | Number of centers in hartree multipole         :       288
  | Number of centers in electron density summation:       190
  | Number of centers in basis integrals           :       191
  | Number of centers in integrals                 :       101
  | Number of centers in hamiltonian               :       190
  | Consuming       1519 KiB for k_phase.
  | Number of super-cells (origin) [n_cells]                     :        2197
  | Number of super-cells (after PM_index) [n_cells]             :         112
  | Number of super-cells in hamiltonian [n_cells_in_hamiltonian]:         112
  | Size of matrix packed + index [n_hamiltonian_matrix_size] :       39507
  Partitioning the integration grid into batches with maxmin method.
  | Maximal weight for a single point:     1.000
  | Minimal weight for a single point:     0.661
  | Number of batches:      128
  | Maximal batch size:      92
  | Minimal batch size:      85
  | Average batch size:      87.562
  | Standard deviation of batch sizes:       1.555
  Initializing partition tables, free-atom densities, potentials, etc. across the integration grid (initialize_grid_storage).
  | initialize_grid_storage: Actual outermost partition radius vs. multipole_radius_free
  | (-- VB: in principle, multipole_radius_free should be larger, hence this output)
  | Species        1: Confinement radius =              4.999999999999999 AA, multipole_radius_free =              5.000694715736543 AA.
  | Species        1: outer_partition_radius set to              5.000694715736543 AA .
  | Original list of interatomic distances with         191 x        191 entries is created.
  | Net number of integration points:    11208
  | of which are non-zero points    :     9924
  | Numerical average free-atom electrostatic potential    :    -11.36539962 eV
  Renormalizing the initial density to the exact electron count on the 3D integration grid.
  | Initial density: Formal number of electrons (from input files) :      28.0000000000
  | Integrated number of electrons on 3D grid     :      28.0034295986
  | Charge integration error                      :       0.0034295986
  | Normalization factor for density and gradient :       0.9998775293
  Obtaining max. number of non-zero basis functions in each batch (get_n_compute_maxes).
  | Maximal number of non-zero basis functions:      421 in task     0
  Allocating        9.999 MB for KS_eigenvector_complex
  Integrating Hamiltonian matrix: batch-based integration.
  Time summed over all CPUs for integration: real work        0.640 s, elapsed        0.640 s
  Integrating overlap matrix.
  Time summed over all CPUs for integration: real work        0.509 s, elapsed        0.509 s
  Decreasing sparse matrix size:
   Tolerance:   9.9999998245167004E-014
   Hamiltonian matrix
  | Array has    32579 nonzero elements out of    39507 elements
  | Sparsity factor is 0.175
   Overlap matrix
  | Array has    30800 nonzero elements out of    39507 elements
  | Sparsity factor is 0.220
  New size of hamiltonian matrix:       32835

  Updating Kohn-Sham eigenvalues, eigenvectors, occupation numbers, and Fermi level.
  Solving generalized eigenproblem
  Transforming overlap matrix and checking for singularities.
  Overlap matrix is nonsingular at first k-point:
  | Lowest eigenvalue:  0.741564E-02

  Obtaining occupation numbers and chemical potential using ELSI.
  | Chemical potential (Fermi level):    -5.11886273eV
  Writing Kohn-Sham eigenvalues.
  K-point:       1 at    0.000000    0.000000    0.000000 (in units of recip. lattice)

  State    Occupation    Eigenvalue [Ha]    Eigenvalue [eV]
      1       2.00000         -65.506010        -1782.50921
      2       2.00000         -65.506010        -1782.50921
      3       2.00000          -5.105857         -138.93744
      4       2.00000          -5.105711         -138.93347
      5       2.00000          -3.520122          -95.78740
      6       2.00000          -3.520122          -95.78740
      7       2.00000          -3.520122          -95.78740
      8       2.00000          -3.519772          -95.77786
      9       2.00000          -3.519772          -95.77786
     10       2.00000          -3.519772          -95.77786
     11       2.00000          -0.624171          -16.98456
     12       2.00000          -0.222575           -6.05656
     13       2.00000          -0.222575           -6.05656
     14       2.00000          -0.222575           -6.05656
     15       0.00000          -0.159737           -4.34668
     16       0.00000          -0.124244           -3.38086
     17       0.00000          -0.124244           -3.38086
     18       0.00000          -0.124244           -3.38086
     19       0.00000           0.073714            2.00586
     20       0.00000           0.073714            2.00586

  What follows are estimated values for band gap, HOMO, LUMO, etc.
  | They are estimated on a discrete k-point grid and not necessarily exact.
  | For converged numbers, create a DOS and/or band structure plot on a denser k-grid.

  Highest occupied state (VBM) at     -6.05656042 eV (relative to internal zero)
  | Occupation number:      2.00000000
  | K-point:       1 at    0.000000    0.000000    0.000000 (in units of recip. lattice)

  Lowest unoccupied state (CBM) at    -5.07666808 eV (relative to internal zero)
  | Occupation number:      0.00000000
  | K-point:     552 at    0.416667    0.416667    0.000000 (in units of recip. lattice)

  ESTIMATED overall HOMO-LUMO gap:      0.97989235 eV between HOMO at k-point 1 and LUMO at k-point 552
  | This appears to be an indirect band gap.
  | Smallest direct gap :      1.70988216 eV for k_point 1 at    0.416667    0.416667    0.000000 (in units of recip. lattice)
  The gap value is above 0.2 eV. Unless you are using a very sparse k-point grid,
  this system is most likely an insulator or a semiconductor.
  Calculating total energy contributions from superposition of free atom densities.

  Total energy components:
  | Sum of eigenvalues            :        -327.82122199 Ha       -8920.46931877 eV
  | XC energy correction          :         -39.58779206 Ha       -1077.23863125 eV
  | XC potential correction       :          52.30247403 Ha        1423.22273106 eV
  | Free-atom electrostatic energy:        -263.62553453 Ha       -7173.61578416 eV
  | Hartree energy correction     :          -0.00000000 Ha          -0.00000000 eV
  | Entropy correction            :          -0.00000000 Ha          -0.00000000 eV
  | ---------------------------
  | Total energy                  :        -578.73207455 Ha      -15748.10100313 eV
  | Total energy, T -> 0          :        -578.73207455 Ha      -15748.10100313 eV  <-- do not rely on this value for anything but (periodic) metals
  | Electronic free energy        :        -578.73207455 Ha      -15748.10100313 eV

  Derived energy quantities:
  | Kinetic energy                :         579.52428891 Ha       15769.65825268 eV
  | Electrostatic energy          :       -1118.66857140 Ha      -30440.52062455 eV
  | Energy correction for multipole
  | error in Hartree potential    :           0.00000000 Ha           0.00000000 eV
  | Sum of eigenvalues per atom                           :       -4460.23465938 eV
  | Total energy (T->0) per atom                          :       -7874.05050156 eV  <-- do not rely on this value for anything but (periodic) metals
  | Electronic free energy per atom                       :       -7874.05050156 eV
  Initialize hartree_potential_storage
  Max. number of atoms included in rho_multipole:            2

  End scf initialization - timings             :  max(cpu_time)    wall_clock(cpu1)
  | Time for scf. initialization               :        2.546 s           2.548 s
  | Boundary condition initialization          :        0.045 s           0.045 s
  | Integration                                :        1.149 s           1.150 s
  | Solution of K.-S. eqns.                    :        1.136 s           1.136 s
  | Grid partitioning                          :        0.029 s           0.028 s
  | Preloading free-atom quantities on grid    :        0.001 s           0.001 s
  | Free-atom superposition energy             :        0.032 s           0.032 s
  | Total energy evaluation                    :        0.000 s           0.001 s

  Partial memory accounting:
  | Current value for overall tracked memory usage on task 0  :          10.656 MB
  | Peak value for overall tracked memory usage on task 0     :          13.137 MB after allocating wave
  | Largest tracked array allocation on task 0 so far         :           9.999 MB  when allocating +KS_eigenvector_complex
  Note:  These values currently only include a subset of arrays which are explicitly tracked.
  The "true" memory usage will be greater.
------------------------------------------------------------

------------------------------------------------------------
          Begin self-consistency iteration #    1

  Date     :  20190514, Time     :  105504.157
------------------------------------------------------------
  Evaluating new KS density using the density matrix
  Evaluating density matrix
  Time summed over all CPUs for getting density from density matrix: real work        1.058 s, elapsed        1.058 s
  Integration grid: deviation in total charge (<rho> - N_e) =   8.380852E-12
  Pulay mixing of updated and previous charge densities.

  Evaluating partitioned Hartree potential by multipole expansion.
  | Analytical far-field extrapolation by fixed multipoles:
  | Hartree multipole sum: apparent total charge =   0.366417E-02
  Summing up the Hartree potential.
  | Estimated reciprocal-space cutoff momentum G_max:         2.27091506 bohr^-1 .
  | Reciprocal lattice points for long-range Hartree potential:      58
  Time summed over all CPUs for potential: real work        0.395 s, elapsed        0.395 s
  | RMS charge density error from multipole expansion :   0.397448E-03
  | Average real-space part of the electrostatic potential :     -0.00277687 eV

  Integrating Hamiltonian matrix: batch-based integration.
  Time summed over all CPUs for integration: real work        0.563 s, elapsed        0.563 s

  Updating Kohn-Sham eigenvalues, eigenvectors, occupation numbers, and Fermi level.
  Solving generalized eigenproblem

  Obtaining occupation numbers and chemical potential using ELSI.
  | Chemical potential (Fermi level):    -5.11309334eV
  Writing Kohn-Sham eigenvalues.
  K-point:       1 at    0.000000    0.000000    0.000000 (in units of recip. lattice)

  State    Occupation    Eigenvalue [Ha]    Eigenvalue [eV]
      1       2.00000         -65.508567        -1782.57881
      2       2.00000         -65.508567        -1782.57881
      3       2.00000          -5.106434         -138.95315
      4       2.00000          -5.106289         -138.94919
      5       2.00000          -3.520771          -95.80504
      6       2.00000          -3.520771          -95.80504
      7       2.00000          -3.520771          -95.80504
      8       2.00000          -3.520421          -95.79552
      9       2.00000          -3.520421          -95.79552
     10       2.00000          -3.520421          -95.79552
     11       2.00000          -0.623709          -16.97199
     12       2.00000          -0.221947           -6.03949
     13       2.00000          -0.221947           -6.03949
     14       2.00000          -0.221947           -6.03949
     15       0.00000          -0.159200           -4.33204
     16       0.00000          -0.123913           -3.37184
     17       0.00000          -0.123913           -3.37184
     18       0.00000          -0.123913           -3.37184
     19       0.00000           0.074113            2.01672
     20       0.00000           0.074113            2.01672

  What follows are estimated values for band gap, HOMO, LUMO, etc.
  | They are estimated on a discrete k-point grid and not necessarily exact.
  | For converged numbers, create a DOS and/or band structure plot on a denser k-grid.

  Highest occupied state (VBM) at     -6.03948868 eV (relative to internal zero)
  | Occupation number:      2.00000000
  | K-point:       1 at    0.000000    0.000000    0.000000 (in units of recip. lattice)

  Lowest unoccupied state (CBM) at    -5.07090145 eV (relative to internal zero)
  | Occupation number:      0.00000000
  | K-point:     690 at    0.583333    0.000000    0.583333 (in units of recip. lattice)

  ESTIMATED overall HOMO-LUMO gap:      0.96858723 eV between HOMO at k-point 1 and LUMO at k-point 690
  | This appears to be an indirect band gap.
  | Smallest direct gap :      1.70744831 eV for k_point 1 at    0.583333    0.000000    0.583333 (in units of recip. lattice)
  The gap value is above 0.2 eV. Unless you are using a very sparse k-point grid,
  this system is most likely an insulator or a semiconductor.

  Total energy components:
  | Sum of eigenvalues            :        -327.83758274 Ha       -8920.91451762 eV
  | XC energy correction          :         -39.58935759 Ha       -1077.28123157 eV
  | XC potential correction       :          52.30453289 Ha        1423.27875569 eV
  | Free-atom electrostatic energy:        -263.62553453 Ha       -7173.61578416 eV
  | Hartree energy correction     :           0.01626855 Ha           0.44268968 eV
  | Entropy correction            :          -0.00000000 Ha          -0.00000000 eV
  | ---------------------------
  | Total energy                  :        -578.73167343 Ha      -15748.09008799 eV
  | Total energy, T -> 0          :        -578.73167343 Ha      -15748.09008799 eV  <-- do not rely on this value for anything but (periodic) metals
  | Electronic free energy        :        -578.73167343 Ha      -15748.09008799 eV

  Derived energy quantities:
  | Kinetic energy                :         579.41848345 Ha       15766.77913959 eV
  | Electrostatic energy          :       -1118.56079929 Ha      -30437.58799601 eV
  | Energy correction for multipole
  | error in Hartree potential    :           0.00048320 Ha           0.01314852 eV
  | Sum of eigenvalues per atom                           :       -4460.45725881 eV
  | Total energy (T->0) per atom                          :       -7874.04504399 eV  <-- do not rely on this value for anything but (periodic) metals
  | Electronic free energy per atom                       :       -7874.04504399 eV

  Self-consistency convergence accuracy:
  | Change of charge density      :  0.9111E-01
  | Change of sum of eigenvalues  : -0.4452E+00 eV
  | Change of total energy        :  0.1092E-01 eV

  End self-consistency iteration #     1       :  max(cpu_time)    wall_clock(cpu1)
  | Time for this iteration                    :        2.690 s           2.691 s
  | Charge density update                      :        1.124 s           1.124 s
  | Density mixing & preconditioning           :        0.053 s           0.052 s
  | Hartree multipole update                   :        0.001 s           0.001 s
  | Hartree multipole summation                :        0.398 s           0.398 s
  | Integration                                :        0.564 s           0.563 s
  | Solution of K.-S. eqns.                    :        0.551 s           0.551 s
  | Total energy evaluation                    :        0.000 s           0.001 s

  Partial memory accounting:
  | Current value for overall tracked memory usage on task 0  :          10.656 MB
  | Peak value for overall tracked memory usage on task 0     :          13.137 MB after allocating wave
  | Largest tracked array allocation on task 0 so far         :           9.999 MB  when allocating +KS_eigenvector_complex
  Note:  These values currently only include a subset of arrays which are explicitly tracked.
  The "true" memory usage will be greater.
------------------------------------------------------------

------------------------------------------------------------
          Begin self-consistency iteration #    2

  Date     :  20190514, Time     :  105506.848
------------------------------------------------------------
  Evaluating new KS density using the density matrix
  Evaluating density matrix
  Time summed over all CPUs for getting density from density matrix: real work        1.050 s, elapsed        1.050 s
  Integration grid: deviation in total charge (<rho> - N_e) =   8.377299E-12
  Pulay mixing of updated and previous charge densities.

  Evaluating partitioned Hartree potential by multipole expansion.
  | Analytical far-field extrapolation by fixed multipoles:
  | Hartree multipole sum: apparent total charge =   0.787499E-02
  Summing up the Hartree potential.
  Time summed over all CPUs for potential: real work        0.490 s, elapsed        0.490 s
  | RMS charge density error from multipole expansion :   0.781215E-02
  | Average real-space part of the electrostatic potential :      0.21833504 eV

  Integrating Hamiltonian matrix: batch-based integration.
  Time summed over all CPUs for integration: real work        0.562 s, elapsed        0.562 s

  Updating Kohn-Sham eigenvalues, eigenvectors, occupation numbers, and Fermi level.
  Solving generalized eigenproblem

  Obtaining occupation numbers and chemical potential using ELSI.
  | Chemical potential (Fermi level):    -4.96940713eV
  What follows are estimated values for band gap, HOMO, LUMO, etc.
  | They are estimated on a discrete k-point grid and not necessarily exact.
  | For converged numbers, create a DOS and/or band structure plot on a denser k-grid.

  Highest occupied state (VBM) at     -5.59931928 eV (relative to internal zero)
  | Occupation number:      2.00000000
  | K-point:       1 at    0.000000    0.000000    0.000000 (in units of recip. lattice)

  Lowest unoccupied state (CBM) at    -4.92719908 eV (relative to internal zero)
  | Occupation number:      0.00000000
  | K-point:      48 at    0.000000    0.416667    0.416667 (in units of recip. lattice)

  ESTIMATED overall HOMO-LUMO gap:      0.67212019 eV between HOMO at k-point 1 and LUMO at k-point 48
  | This appears to be an indirect band gap.
  | Smallest direct gap :      1.71632495 eV for k_point 1 at    0.000000    0.416667    0.416667 (in units of recip. lattice)
  The gap value is above 0.2 eV. Unless you are using a very sparse k-point grid,
  this system is most likely an insulator or a semiconductor.

  Checking to see if s.c.f. parameters should be adjusted.
  The system likely has a gap. Increased the default Pulay mixing parameter (charge_mix_param). Value:   0.200000 .
  Kept the default occupation width. Value:   0.010000 eV.

  Total energy components:
  | Sum of eigenvalues            :        -327.32909126 Ha       -8907.07776020 eV
  | XC energy correction          :         -39.62777087 Ha       -1078.32651009 eV
  | XC potential correction       :          52.35506096 Ha        1424.65369436 eV
  | Free-atom electrostatic energy:        -263.62553453 Ha       -7173.61578416 eV
  | Hartree energy correction     :          -0.50078828 Ha         -13.62714245 eV
  | Entropy correction            :          -0.00000000 Ha          -0.00000000 eV
  | ---------------------------
  | Total energy                  :        -578.72812398 Ha      -15747.99350254 eV
  | Total energy, T -> 0          :        -578.72812398 Ha      -15747.99350254 eV  <-- do not rely on this value for anything but (periodic) metals
  | Electronic free energy        :        -578.72812398 Ha      -15747.99350254 eV

  Derived energy quantities:
  | Kinetic energy                :         579.39454613 Ha       15766.12777200 eV
  | Electrostatic energy          :       -1118.49489924 Ha      -30435.79476446 eV
  | Energy correction for multipole
  | error in Hartree potential    :           0.00949363 Ha           0.25833478 eV
  | Sum of eigenvalues per atom                           :       -4453.53888010 eV
  | Total energy (T->0) per atom                          :       -7873.99675127 eV  <-- do not rely on this value for anything but (periodic) metals
  | Electronic free energy per atom                       :       -7873.99675127 eV

  Self-consistency convergence accuracy:
  | Change of charge density      :  0.8655E-01
  | Change of sum of eigenvalues  :  0.1384E+02 eV
  | Change of total energy        :  0.9659E-01 eV

  End self-consistency iteration #     2       :  max(cpu_time)    wall_clock(cpu1)
  | Time for this iteration                    :        2.793 s           2.794 s
  | Charge density update                      :        1.115 s           1.115 s
  | Density mixing & preconditioning           :        0.051 s           0.051 s
  | Hartree multipole update                   :        0.001 s           0.001 s
  | Hartree multipole summation                :        0.495 s           0.495 s
  | Integration                                :        0.562 s           0.562 s
  | Solution of K.-S. eqns.                    :        0.569 s           0.569 s
  | Total energy evaluation                    :        0.000 s           0.001 s

  Partial memory accounting:
  | Current value for overall tracked memory usage on task 0  :          10.657 MB
  | Peak value for overall tracked memory usage on task 0     :          13.137 MB after allocating wave
  | Largest tracked array allocation on task 0 so far         :           9.999 MB  when allocating +KS_eigenvector_complex
  Note:  These values currently only include a subset of arrays which are explicitly tracked.
  The "true" memory usage will be greater.
------------------------------------------------------------

------------------------------------------------------------
          Begin self-consistency iteration #    3

  Date     :  20190514, Time     :  105509.642
------------------------------------------------------------
  Evaluating new KS density using the density matrix
  Evaluating density matrix
  Time summed over all CPUs for getting density from density matrix: real work        1.002 s, elapsed        1.002 s
  Integration grid: deviation in total charge (<rho> - N_e) =   8.288481E-12
  Pulay mixing of updated and previous charge densities.

  Evaluating partitioned Hartree potential by multipole expansion.
  | Analytical far-field extrapolation by fixed multipoles:
  | Hartree multipole sum: apparent total charge =   0.736581E-02
  Summing up the Hartree potential.
  Time summed over all CPUs for potential: real work        0.517 s, elapsed        0.517 s
  | RMS charge density error from multipole expansion :   0.781995E-02
  | Average real-space part of the electrostatic potential :      0.21281039 eV

  Integrating Hamiltonian matrix: batch-based integration.
  Time summed over all CPUs for integration: real work        0.605 s, elapsed        0.605 s

  Updating Kohn-Sham eigenvalues, eigenvectors, occupation numbers, and Fermi level.
  Solving generalized eigenproblem

  Obtaining occupation numbers and chemical potential using ELSI.
  | Chemical potential (Fermi level):    -4.97274153eV
  What follows are estimated values for band gap, HOMO, LUMO, etc.
  | They are estimated on a discrete k-point grid and not necessarily exact.
  | For converged numbers, create a DOS and/or band structure plot on a denser k-grid.

  Highest occupied state (VBM) at     -5.61080626 eV (relative to internal zero)
  | Occupation number:      2.00000000
  | K-point:       1 at    0.000000    0.000000    0.000000 (in units of recip. lattice)

  Lowest unoccupied state (CBM) at    -4.93053824 eV (relative to internal zero)
  | Occupation number:      0.00000000
  | K-point:      48 at    0.000000    0.416667    0.416667 (in units of recip. lattice)

  ESTIMATED overall HOMO-LUMO gap:      0.68026802 eV between HOMO at k-point 1 and LUMO at k-point 48
  | This appears to be an indirect band gap.
  | Smallest direct gap :      1.71359104 eV for k_point 1 at    0.000000    0.416667    0.416667 (in units of recip. lattice)
  The gap value is above 0.2 eV. Unless you are using a very sparse k-point grid,
  this system is most likely an insulator or a semiconductor.

  Total energy components:
  | Sum of eigenvalues            :        -327.35511645 Ha       -8907.78594173 eV
  | XC energy correction          :         -39.62652316 Ha       -1078.29255822 eV
  | XC potential correction       :          52.35341703 Ha        1424.60896059 eV
  | Free-atom electrostatic energy:        -263.62553453 Ha       -7173.61578416 eV
  | Hartree energy correction     :          -0.47429954 Ha         -12.90634722 eV
  | Entropy correction            :          -0.00000000 Ha          -0.00000000 eV
  | ---------------------------
  | Total energy                  :        -578.72805666 Ha      -15747.99167074 eV
  | Total energy, T -> 0          :        -578.72805666 Ha      -15747.99167074 eV  <-- do not rely on this value for anything but (periodic) metals
  | Electronic free energy        :        -578.72805666 Ha      -15747.99167074 eV

  Derived energy quantities:
  | Kinetic energy                :         579.38847099 Ha       15765.96245903 eV
  | Electrostatic energy          :       -1118.49000449 Ha      -30435.66157155 eV
  | Energy correction for multipole
  | error in Hartree potential    :           0.00952533 Ha           0.25919750 eV
  | Sum of eigenvalues per atom                           :       -4453.89297087 eV
  | Total energy (T->0) per atom                          :       -7873.99583537 eV  <-- do not rely on this value for anything but (periodic) metals
  | Electronic free energy per atom                       :       -7873.99583537 eV

  Self-consistency convergence accuracy:
  | Change of charge density      :  0.1372E-01
  | Change of sum of eigenvalues  : -0.7082E+00 eV
  | Change of total energy        :  0.1832E-02 eV

  End self-consistency iteration #     3       :  max(cpu_time)    wall_clock(cpu1)
  | Time for this iteration                    :        2.802 s           2.803 s
  | Charge density update                      :        1.067 s           1.068 s
  | Density mixing & preconditioning           :        0.052 s           0.052 s
  | Hartree multipole update                   :        0.001 s           0.000 s
  | Hartree multipole summation                :        0.521 s           0.521 s
  | Integration                                :        0.605 s           0.606 s
  | Solution of K.-S. eqns.                    :        0.555 s           0.555 s
  | Total energy evaluation                    :        0.000 s           0.001 s

  Partial memory accounting:
  | Current value for overall tracked memory usage on task 0  :          10.658 MB
  | Peak value for overall tracked memory usage on task 0     :          13.137 MB after allocating wave
  | Largest tracked array allocation on task 0 so far         :           9.999 MB  when allocating +KS_eigenvector_complex
  Note:  These values currently only include a subset of arrays which are explicitly tracked.
  The "true" memory usage will be greater.
------------------------------------------------------------

------------------------------------------------------------
          Begin self-consistency iteration #    4

  Date     :  20190514, Time     :  105512.445
------------------------------------------------------------
  Evaluating new KS density using the density matrix
  Evaluating density matrix
  Time summed over all CPUs for getting density from density matrix: real work        1.019 s, elapsed        1.019 s
  Integration grid: deviation in total charge (<rho> - N_e) =   8.316903E-12
  Pulay mixing of updated and previous charge densities.

  Evaluating partitioned Hartree potential by multipole expansion.
  | Analytical far-field extrapolation by fixed multipoles:
  | Hartree multipole sum: apparent total charge =   0.447533E-02
  Summing up the Hartree potential.
  Time summed over all CPUs for potential: real work        0.507 s, elapsed        0.507 s
  | RMS charge density error from multipole expansion :   0.829808E-02
  | Average real-space part of the electrostatic potential :      0.19331212 eV

  Integrating Hamiltonian matrix: batch-based integration.
  Time summed over all CPUs for integration: real work        0.566 s, elapsed        0.566 s

  Updating Kohn-Sham eigenvalues, eigenvectors, occupation numbers, and Fermi level.
  Solving generalized eigenproblem

  Obtaining occupation numbers and chemical potential using ELSI.
  | Chemical potential (Fermi level):    -4.98305277eV
  What follows are estimated values for band gap, HOMO, LUMO, etc.
  | They are estimated on a discrete k-point grid and not necessarily exact.
  | For converged numbers, create a DOS and/or band structure plot on a denser k-grid.

  Highest occupied state (VBM) at     -5.65189570 eV (relative to internal zero)
  | Occupation number:      2.00000000
  | K-point:       1 at    0.000000    0.000000    0.000000 (in units of recip. lattice)

  Lowest unoccupied state (CBM) at    -4.94084584 eV (relative to internal zero)
  | Occupation number:      0.00000000
  | K-point:      48 at    0.000000    0.416667    0.416667 (in units of recip. lattice)

  ESTIMATED overall HOMO-LUMO gap:      0.71104986 eV between HOMO at k-point 1 and LUMO at k-point 48
  | This appears to be an indirect band gap.
  | Smallest direct gap :      1.69726616 eV for k_point 1 at    0.000000    0.416667    0.416667 (in units of recip. lattice)
  The gap value is above 0.2 eV. Unless you are using a very sparse k-point grid,
  this system is most likely an insulator or a semiconductor.

  Total energy components:
  | Sum of eigenvalues            :        -327.48117556 Ha       -8911.21618461 eV
  | XC energy correction          :         -39.62167911 Ha       -1078.16074482 eV
  | XC potential correction       :          52.34702577 Ha        1424.43504578 eV
  | Free-atom electrostatic energy:        -263.62553453 Ha       -7173.61578416 eV
  | Hartree energy correction     :          -0.34645285 Ha          -9.42746159 eV
  | Entropy correction            :          -0.00000000 Ha          -0.00000000 eV
  | ---------------------------
  | Total energy                  :        -578.72781627 Ha      -15747.98512940 eV
  | Total energy, T -> 0          :        -578.72781627 Ha      -15747.98512940 eV  <-- do not rely on this value for anything but (periodic) metals
  | Electronic free energy        :        -578.72781627 Ha      -15747.98512940 eV

  Derived energy quantities:
  | Kinetic energy                :         579.34864048 Ha       15764.87861559 eV
  | Electrostatic energy          :       -1118.45477764 Ha      -30434.70300017 eV
  | Energy correction for multipole
  | error in Hartree potential    :           0.01022092 Ha           0.27812542 eV
  | Sum of eigenvalues per atom                           :       -4455.60809231 eV
  | Total energy (T->0) per atom                          :       -7873.99256470 eV  <-- do not rely on this value for anything but (periodic) metals
  | Electronic free energy per atom                       :       -7873.99256470 eV

  Self-consistency convergence accuracy:
  | Change of charge density      :  0.1216E-01
  | Change of sum of eigenvalues  : -0.3430E+01 eV
  | Change of total energy        :  0.6541E-02 eV

  End self-consistency iteration #     4       :  max(cpu_time)    wall_clock(cpu1)
  | Time for this iteration                    :        2.774 s           2.774 s
  | Charge density update                      :        1.082 s           1.082 s
  | Density mixing & preconditioning           :        0.057 s           0.057 s
  | Hartree multipole update                   :        0.001 s           0.001 s
  | Hartree multipole summation                :        0.513 s           0.513 s
  | Integration                                :        0.566 s           0.566 s
  | Solution of K.-S. eqns.                    :        0.554 s           0.555 s
  | Total energy evaluation                    :        0.000 s           0.000 s

  Partial memory accounting:
  | Current value for overall tracked memory usage on task 0  :          10.658 MB
  | Peak value for overall tracked memory usage on task 0     :          13.137 MB after allocating wave
  | Largest tracked array allocation on task 0 so far         :           9.999 MB  when allocating +KS_eigenvector_complex
  Note:  These values currently only include a subset of arrays which are explicitly tracked.
  The "true" memory usage will be greater.
------------------------------------------------------------

------------------------------------------------------------
          Begin self-consistency iteration #    5

  Date     :  20190514, Time     :  105515.219
------------------------------------------------------------
  Evaluating new KS density using the density matrix
  Evaluating density matrix
  Time summed over all CPUs for getting density from density matrix: real work        0.960 s, elapsed        0.960 s
  Integration grid: deviation in total charge (<rho> - N_e) =   8.199663E-12
  Pulay mixing of updated and previous charge densities.

  Evaluating partitioned Hartree potential by multipole expansion.
  | Analytical far-field extrapolation by fixed multipoles:
  | Hartree multipole sum: apparent total charge =   0.352532E-02
  Summing up the Hartree potential.
  Time summed over all CPUs for potential: real work        0.498 s, elapsed        0.498 s
  | RMS charge density error from multipole expansion :   0.829230E-02
  | Average real-space part of the electrostatic potential :      0.19203117 eV

  Integrating Hamiltonian matrix: batch-based integration.
  Time summed over all CPUs for integration: real work        0.572 s, elapsed        0.572 s

  Updating Kohn-Sham eigenvalues, eigenvectors, occupation numbers, and Fermi level.
  Solving generalized eigenproblem

  Obtaining occupation numbers and chemical potential using ELSI.
  | Chemical potential (Fermi level):    -4.98534803eV
  What follows are estimated values for band gap, HOMO, LUMO, etc.
  | They are estimated on a discrete k-point grid and not necessarily exact.
  | For converged numbers, create a DOS and/or band structure plot on a denser k-grid.

  Highest occupied state (VBM) at     -5.65758020 eV (relative to internal zero)
  | Occupation number:      2.00000000
  | K-point:       1 at    0.000000    0.000000    0.000000 (in units of recip. lattice)

  Lowest unoccupied state (CBM) at    -4.94314116 eV (relative to internal zero)
  | Occupation number:      0.00000000
  | K-point:      48 at    0.000000    0.416667    0.416667 (in units of recip. lattice)

  ESTIMATED overall HOMO-LUMO gap:      0.71443903 eV between HOMO at k-point 1 and LUMO at k-point 48
  | This appears to be an indirect band gap.
  | Smallest direct gap :      1.69439516 eV for k_point 1 at    0.000000    0.416667    0.416667 (in units of recip. lattice)
  The gap value is above 0.2 eV. Unless you are using a very sparse k-point grid,
  this system is most likely an insulator or a semiconductor.

  Total energy components:
  | Sum of eigenvalues            :        -327.50815073 Ha       -8911.95021634 eV
  | XC energy correction          :         -39.61964268 Ha       -1078.10533070 eV
  | XC potential correction       :          52.34432591 Ha        1424.36157872 eV
  | Free-atom electrostatic energy:        -263.62553453 Ha       -7173.61578416 eV
  | Hartree energy correction     :          -0.31879444 Ha          -8.67483795 eV
  | Entropy correction            :          -0.00000000 Ha          -0.00000000 eV
  | ---------------------------
  | Total energy                  :        -578.72779646 Ha      -15747.98459043 eV
  | Total energy, T -> 0          :        -578.72779646 Ha      -15747.98459043 eV  <-- do not rely on this value for anything but (periodic) metals
  | Electronic free energy        :        -578.72779646 Ha      -15747.98459043 eV

  Derived energy quantities:
  | Kinetic energy                :         579.33255658 Ha       15764.44095040 eV
  | Electrostatic energy          :       -1118.44071036 Ha      -30434.32021014 eV
  | Energy correction for multipole
  | error in Hartree potential    :           0.01020008 Ha           0.27755820 eV
  | Sum of eigenvalues per atom                           :       -4455.97510817 eV
  | Total energy (T->0) per atom                          :       -7873.99229521 eV  <-- do not rely on this value for anything but (periodic) metals
  | Electronic free energy per atom                       :       -7873.99229521 eV

  Self-consistency convergence accuracy:
  | Change of charge density      :  0.6024E-02
  | Change of sum of eigenvalues  : -0.7340E+00 eV
  | Change of total energy        :  0.5390E-03 eV

  End self-consistency iteration #     5       :  max(cpu_time)    wall_clock(cpu1)
  | Time for this iteration                    :        2.703 s           2.704 s
  | Charge density update                      :        1.024 s           1.024 s
  | Density mixing & preconditioning           :        0.050 s           0.050 s
  | Hartree multipole update                   :        0.001 s           0.001 s
  | Hartree multipole summation                :        0.502 s           0.502 s
  | Integration                                :        0.573 s           0.572 s
  | Solution of K.-S. eqns.                    :        0.554 s           0.554 s
  | Total energy evaluation                    :        0.000 s           0.000 s

  Partial memory accounting:
  | Current value for overall tracked memory usage on task 0  :          10.658 MB
  | Peak value for overall tracked memory usage on task 0     :          13.137 MB after allocating wave
  | Largest tracked array allocation on task 0 so far         :           9.999 MB  when allocating +KS_eigenvector_complex
  Note:  These values currently only include a subset of arrays which are explicitly tracked.
  The "true" memory usage will be greater.
------------------------------------------------------------

------------------------------------------------------------
          Begin self-consistency iteration #    6

  Date     :  20190514, Time     :  105517.923
------------------------------------------------------------
  Evaluating new KS density using the density matrix
  Evaluating density matrix
  Time summed over all CPUs for getting density from density matrix: real work        0.951 s, elapsed        0.951 s
  Integration grid: deviation in total charge (<rho> - N_e) =   8.270717E-12
  Pulay mixing of updated and previous charge densities.

  Evaluating partitioned Hartree potential by multipole expansion.
  | Analytical far-field extrapolation by fixed multipoles:
  | Hartree multipole sum: apparent total charge =   0.346899E-02
  Summing up the Hartree potential.
  Time summed over all CPUs for potential: real work        0.495 s, elapsed        0.495 s
  | RMS charge density error from multipole expansion :   0.830200E-02
  | Average real-space part of the electrostatic potential :      0.19169393 eV

  Integrating Hamiltonian matrix: batch-based integration.
  Time summed over all CPUs for integration: real work        0.568 s, elapsed        0.568 s

  Updating Kohn-Sham eigenvalues, eigenvectors, occupation numbers, and Fermi level.
  Solving generalized eigenproblem

  Obtaining occupation numbers and chemical potential using ELSI.
  | Chemical potential (Fermi level):    -4.98550195eV
  What follows are estimated values for band gap, HOMO, LUMO, etc.
  | They are estimated on a discrete k-point grid and not necessarily exact.
  | For converged numbers, create a DOS and/or band structure plot on a denser k-grid.

  Highest occupied state (VBM) at     -5.65791763 eV (relative to internal zero)
  | Occupation number:      2.00000000
  | K-point:       1 at    0.000000    0.000000    0.000000 (in units of recip. lattice)

  Lowest unoccupied state (CBM) at    -4.94330298 eV (relative to internal zero)
  | Occupation number:      0.00000000
  | K-point:      48 at    0.000000    0.416667    0.416667 (in units of recip. lattice)

  ESTIMATED overall HOMO-LUMO gap:      0.71461465 eV between HOMO at k-point 1 and LUMO at k-point 48
  | This appears to be an indirect band gap.
  | Smallest direct gap :      1.69390356 eV for k_point 1 at    0.000000    0.416667    0.416667 (in units of recip. lattice)
  The gap value is above 0.2 eV. Unless you are using a very sparse k-point grid,
  this system is most likely an insulator or a semiconductor.

  Total energy components:
  | Sum of eigenvalues            :        -327.51282493 Ha       -8912.07740775 eV
  | XC energy correction          :         -39.61918930 Ha       -1078.09299364 eV
  | XC potential correction       :          52.34372437 Ha        1424.34520996 eV
  | Free-atom electrostatic energy:        -263.62553453 Ha       -7173.61578416 eV
  | Hartree energy correction     :          -0.31396962 Ha          -8.54354807 eV
  | Entropy correction            :          -0.00000000 Ha          -0.00000000 eV
  | ---------------------------
  | Total energy                  :        -578.72779401 Ha      -15747.98452366 eV
  | Total energy, T -> 0          :        -578.72779401 Ha      -15747.98452366 eV  <-- do not rely on this value for anything but (periodic) metals
  | Electronic free energy        :        -578.72779401 Ha      -15747.98452366 eV

  Derived energy quantities:
  | Kinetic energy                :         579.32596977 Ha       15764.26171413 eV
  | Electrostatic energy          :       -1118.43457448 Ha      -30434.15324415 eV
  | Energy correction for multipole
  | error in Hartree potential    :           0.01020350 Ha           0.27765139 eV
  | Sum of eigenvalues per atom                           :       -4456.03870387 eV
  | Total energy (T->0) per atom                          :       -7873.99226183 eV  <-- do not rely on this value for anything but (periodic) metals
  | Electronic free energy per atom                       :       -7873.99226183 eV

  Self-consistency convergence accuracy:
  | Change of charge density      :  0.4957E-02
  | Change of sum of eigenvalues  : -0.1272E+00 eV
  | Change of total energy        :  0.6677E-04 eV

  End self-consistency iteration #     6       :  max(cpu_time)    wall_clock(cpu1)
  | Time for this iteration                    :        2.683 s           2.684 s
  | Charge density update                      :        1.017 s           1.018 s
  | Density mixing & preconditioning           :        0.051 s           0.050 s
  | Hartree multipole update                   :        0.001 s           0.001 s
  | Hartree multipole summation                :        0.498 s           0.499 s
  | Integration                                :        0.568 s           0.568 s
  | Solution of K.-S. eqns.                    :        0.547 s           0.547 s
  | Total energy evaluation                    :        0.000 s           0.001 s

  Partial memory accounting:
  | Current value for overall tracked memory usage on task 0  :          10.659 MB
  | Peak value for overall tracked memory usage on task 0     :          13.137 MB after allocating wave
  | Largest tracked array allocation on task 0 so far         :           9.999 MB  when allocating +KS_eigenvector_complex
  Note:  These values currently only include a subset of arrays which are explicitly tracked.
  The "true" memory usage will be greater.
------------------------------------------------------------

------------------------------------------------------------
          Begin self-consistency iteration #    7

  Date     :  20190514, Time     :  105520.607
------------------------------------------------------------
  Evaluating new KS density using the density matrix
  Evaluating density matrix
  Time summed over all CPUs for getting density from density matrix: real work        0.951 s, elapsed        0.951 s
  Integration grid: deviation in total charge (<rho> - N_e) =   8.455459E-12
  Pulay mixing of updated and previous charge densities.

  Evaluating partitioned Hartree potential by multipole expansion.
  | Analytical far-field extrapolation by fixed multipoles:
  | Hartree multipole sum: apparent total charge =   0.338726E-02
  Summing up the Hartree potential.
  Time summed over all CPUs for potential: real work        0.497 s, elapsed        0.497 s
  | RMS charge density error from multipole expansion :   0.828622E-02
  | Average real-space part of the electrostatic potential :      0.18976853 eV

  Integrating Hamiltonian matrix: batch-based integration.
  Time summed over all CPUs for integration: real work        0.565 s, elapsed        0.565 s

  Updating Kohn-Sham eigenvalues, eigenvectors, occupation numbers, and Fermi level.
  Solving generalized eigenproblem

  Obtaining occupation numbers and chemical potential using ELSI.
  | Chemical potential (Fermi level):    -4.98660871eV
  What follows are estimated values for band gap, HOMO, LUMO, etc.
  | They are estimated on a discrete k-point grid and not necessarily exact.
  | For converged numbers, create a DOS and/or band structure plot on a denser k-grid.

  Highest occupied state (VBM) at     -5.66084004 eV (relative to internal zero)
  | Occupation number:      2.00000000
  | K-point:       1 at    0.000000    0.000000    0.000000 (in units of recip. lattice)

  Lowest unoccupied state (CBM) at    -4.94440171 eV (relative to internal zero)
  | Occupation number:      0.00000000
  | K-point:      48 at    0.000000    0.416667    0.416667 (in units of recip. lattice)

  ESTIMATED overall HOMO-LUMO gap:      0.71643833 eV between HOMO at k-point 1 and LUMO at k-point 48
  | This appears to be an indirect band gap.
  | Smallest direct gap :      1.69297077 eV for k_point 1 at    0.000000    0.416667    0.416667 (in units of recip. lattice)
  The gap value is above 0.2 eV. Unless you are using a very sparse k-point grid,
  this system is most likely an insulator or a semiconductor.

  Total energy components:
  | Sum of eigenvalues            :        -327.52440514 Ha       -8912.39252133 eV
  | XC energy correction          :         -39.61806773 Ha       -1078.06247410 eV
  | XC potential correction       :          52.34223914 Ha        1424.30479474 eV
  | Free-atom electrostatic energy:        -263.62553453 Ha       -7173.61578416 eV
  | Hartree energy correction     :          -0.30201929 Ha          -8.21836316 eV
  | Entropy correction            :          -0.00000000 Ha          -0.00000000 eV
  | ---------------------------
  | Total energy                  :        -578.72778756 Ha      -15747.98434801 eV
  | Total energy, T -> 0          :        -578.72778756 Ha      -15747.98434801 eV  <-- do not rely on this value for anything but (periodic) metals
  | Electronic free energy        :        -578.72778756 Ha      -15747.98434801 eV

  Derived energy quantities:
  | Kinetic energy                :         579.31284675 Ha       15763.90461857 eV
  | Electrostatic energy          :       -1118.42256657 Ha      -30433.82649248 eV
  | Energy correction for multipole
  | error in Hartree potential    :           0.01016722 Ha           0.27666403 eV
  | Sum of eigenvalues per atom                           :       -4456.19626067 eV
  | Total energy (T->0) per atom                          :       -7873.99217400 eV  <-- do not rely on this value for anything but (periodic) metals
  | Electronic free energy per atom                       :       -7873.99217400 eV

  Self-consistency convergence accuracy:
  | Change of charge density      :  0.4686E-02
  | Change of sum of eigenvalues  : -0.3151E+00 eV
  | Change of total energy        :  0.1757E-03 eV

  End self-consistency iteration #     7       :  max(cpu_time)    wall_clock(cpu1)
  | Time for this iteration                    :        2.681 s           2.682 s
  | Charge density update                      :        1.014 s           1.014 s
  | Density mixing & preconditioning           :        0.052 s           0.052 s
  | Hartree multipole update                   :        0.001 s           0.001 s
  | Hartree multipole summation                :        0.501 s           0.501 s
  | Integration                                :        0.565 s           0.565 s
  | Solution of K.-S. eqns.                    :        0.548 s           0.549 s
  | Total energy evaluation                    :        0.000 s           0.000 s

  Partial memory accounting:
  | Current value for overall tracked memory usage on task 0  :          10.659 MB
  | Peak value for overall tracked memory usage on task 0     :          13.137 MB after allocating wave
  | Largest tracked array allocation on task 0 so far         :           9.999 MB  when allocating +KS_eigenvector_complex
  Note:  These values currently only include a subset of arrays which are explicitly tracked.
  The "true" memory usage will be greater.
------------------------------------------------------------

------------------------------------------------------------
          Begin self-consistency iteration #    8

  Date     :  20190514, Time     :  105523.289
------------------------------------------------------------
  Evaluating new KS density using the density matrix
  Evaluating density matrix
  Time summed over all CPUs for getting density from density matrix: real work        0.946 s, elapsed        0.946 s
  Integration grid: deviation in total charge (<rho> - N_e) =   8.185452E-12
  Pulay mixing of updated and previous charge densities.

  Evaluating partitioned Hartree potential by multipole expansion.
  | Analytical far-field extrapolation by fixed multipoles:
  | Hartree multipole sum: apparent total charge =   0.344056E-02
  Summing up the Hartree potential.
  Time summed over all CPUs for potential: real work        0.492 s, elapsed        0.492 s
  | RMS charge density error from multipole expansion :   0.826489E-02
  | Average real-space part of the electrostatic potential :      0.18467544 eV

  Integrating Hamiltonian matrix: batch-based integration.
  Time summed over all CPUs for integration: real work        0.566 s, elapsed        0.566 s

  Updating Kohn-Sham eigenvalues, eigenvectors, occupation numbers, and Fermi level.
  Solving generalized eigenproblem

  Obtaining occupation numbers and chemical potential using ELSI.
  | Chemical potential (Fermi level):    -4.98877248eV
  What follows are estimated values for band gap, HOMO, LUMO, etc.
  | They are estimated on a discrete k-point grid and not necessarily exact.
  | For converged numbers, create a DOS and/or band structure plot on a denser k-grid.

  Highest occupied state (VBM) at     -5.66694151 eV (relative to internal zero)
  | Occupation number:      2.00000000
  | K-point:       1 at    0.000000    0.000000    0.000000 (in units of recip. lattice)

  Lowest unoccupied state (CBM) at    -4.94658792 eV (relative to internal zero)
  | Occupation number:      0.00000000
  | K-point:      48 at    0.000000    0.416667    0.416667 (in units of recip. lattice)

  ESTIMATED overall HOMO-LUMO gap:      0.72035359 eV between HOMO at k-point 1 and LUMO at k-point 48
  | This appears to be an indirect band gap.
  | Smallest direct gap :      1.69084580 eV for k_point 1 at    0.000000    0.416667    0.416667 (in units of recip. lattice)
  The gap value is above 0.2 eV. Unless you are using a very sparse k-point grid,
  this system is most likely an insulator or a semiconductor.

  Total energy components:
  | Sum of eigenvalues            :        -327.55076588 Ha       -8913.10983352 eV
  | XC energy correction          :         -39.61544406 Ha       -1077.99108057 eV
  | XC potential correction       :          52.33876550 Ha        1424.21027221 eV
  | Free-atom electrostatic energy:        -263.62553453 Ha       -7173.61578416 eV
  | Hartree energy correction     :          -0.27479624 Ha          -7.47758604 eV
  | Entropy correction            :          -0.00000000 Ha          -0.00000000 eV
  | ---------------------------
  | Total energy                  :        -578.72777521 Ha      -15747.98401208 eV
  | Total energy, T -> 0          :        -578.72777521 Ha      -15747.98401208 eV  <-- do not rely on this value for anything but (periodic) metals
  | Electronic free energy        :        -578.72777521 Ha      -15747.98401208 eV

  Derived energy quantities:
  | Kinetic energy                :         579.28166268 Ha       15763.05605691 eV
  | Electrostatic energy          :       -1118.39399382 Ha      -30433.04898842 eV
  | Energy correction for multipole
  | error in Hartree potential    :           0.01010186 Ha           0.27488554 eV
  | Sum of eigenvalues per atom                           :       -4456.55491676 eV
  | Total energy (T->0) per atom                          :       -7873.99200604 eV  <-- do not rely on this value for anything but (periodic) metals
  | Electronic free energy per atom                       :       -7873.99200604 eV

  Self-consistency convergence accuracy:
  | Change of charge density      :  0.4015E-02
  | Change of sum of eigenvalues  : -0.7173E+00 eV
  | Change of total energy        :  0.3359E-03 eV

  End self-consistency iteration #     8       :  max(cpu_time)    wall_clock(cpu1)
  | Time for this iteration                    :        2.678 s           2.679 s
  | Charge density update                      :        1.009 s           1.009 s
  | Density mixing & preconditioning           :        0.050 s           0.050 s
  | Hartree multipole update                   :        0.001 s           0.001 s
  | Hartree multipole summation                :        0.498 s           0.497 s
  | Integration                                :        0.566 s           0.566 s
  | Solution of K.-S. eqns.                    :        0.556 s           0.556 s
  | Total energy evaluation                    :        0.000 s           0.000 s

  Partial memory accounting:
  | Current value for overall tracked memory usage on task 0  :          10.659 MB
  | Peak value for overall tracked memory usage on task 0     :          13.137 MB after allocating wave
  | Largest tracked array allocation on task 0 so far         :           9.999 MB  when allocating +KS_eigenvector_complex
  Note:  These values currently only include a subset of arrays which are explicitly tracked.
  The "true" memory usage will be greater.
------------------------------------------------------------

------------------------------------------------------------
          Begin self-consistency iteration #    9

  Date     :  20190514, Time     :  105525.968
------------------------------------------------------------
  Evaluating new KS density using the density matrix
  Evaluating density matrix
  Time summed over all CPUs for getting density from density matrix: real work        0.947 s, elapsed        0.947 s
  Integration grid: deviation in total charge (<rho> - N_e) =   8.540724E-12
  Pulay mixing of updated and previous charge densities.

  Evaluating partitioned Hartree potential by multipole expansion.
  | Analytical far-field extrapolation by fixed multipoles:
  | Hartree multipole sum: apparent total charge =   0.344597E-02
  Summing up the Hartree potential.
  Time summed over all CPUs for potential: real work        0.493 s, elapsed        0.493 s
  | RMS charge density error from multipole expansion :   0.824733E-02
  | Average real-space part of the electrostatic potential :      0.18140403 eV

  Integrating Hamiltonian matrix: batch-based integration.
  Time summed over all CPUs for integration: real work        0.562 s, elapsed        0.562 s

  Updating Kohn-Sham eigenvalues, eigenvectors, occupation numbers, and Fermi level.
  Solving generalized eigenproblem

  Obtaining occupation numbers and chemical potential using ELSI.
  | Chemical potential (Fermi level):    -4.99026970eV
  What follows are estimated values for band gap, HOMO, LUMO, etc.
  | They are estimated on a discrete k-point grid and not necessarily exact.
  | For converged numbers, create a DOS and/or band structure plot on a denser k-grid.

  Highest occupied state (VBM) at     -5.67107460 eV (relative to internal zero)
  | Occupation number:      2.00000000
  | K-point:       1 at    0.000000    0.000000    0.000000 (in units of recip. lattice)

  Lowest unoccupied state (CBM) at    -4.94808067 eV (relative to internal zero)
  | Occupation number:      0.00000000
  | K-point:      48 at    0.000000    0.416667    0.416667 (in units of recip. lattice)

  ESTIMATED overall HOMO-LUMO gap:      0.72299393 eV between HOMO at k-point 1 and LUMO at k-point 48
  | This appears to be an indirect band gap.
  | Smallest direct gap :      1.68948675 eV for k_point 1 at    0.000000    0.416667    0.416667 (in units of recip. lattice)
  The gap value is above 0.2 eV. Unless you are using a very sparse k-point grid,
  this system is most likely an insulator or a semiconductor.

  Total energy components:
  | Sum of eigenvalues            :        -327.56788760 Ha       -8913.57573946 eV
  | XC energy correction          :         -39.61374917 Ha       -1077.94496009 eV
  | XC potential correction       :          52.33652152 Ha        1424.14921055 eV
  | Free-atom electrostatic energy:        -263.62553453 Ha       -7173.61578416 eV
  | Hartree energy correction     :          -0.25711914 Ha          -6.99656771 eV
  | Entropy correction            :          -0.00000000 Ha          -0.00000000 eV
  | ---------------------------
  | Total energy                  :        -578.72776892 Ha      -15747.98384088 eV
  | Total energy, T -> 0          :        -578.72776892 Ha      -15747.98384088 eV  <-- do not rely on this value for anything but (periodic) metals
  | Electronic free energy        :        -578.72776892 Ha      -15747.98384088 eV

  Derived energy quantities:
[...]
  | Total energy evaluation                    :        0.000 s           0.000 s

  Partial memory accounting:
  | Current value for overall tracked memory usage on task 0  :          10.659 MB
  | Peak value for overall tracked memory usage on task 0     :          13.137 MB after allocating wave
  | Largest tracked array allocation on task 0 so far         :           9.999 MB  when allocating +KS_eigenvector_complex
  Note:  These values currently only include a subset of arrays which are explicitly tracked.
  The "true" memory usage will be greater.
------------------------------------------------------------

------------------------------------------------------------
          Begin self-consistency iteration #   10

  Date     :  20190514, Time     :  105528.635
------------------------------------------------------------
  Evaluating new KS density using the density matrix
  Evaluating density matrix
  Time summed over all CPUs for getting density from density matrix: real work        0.948 s, elapsed        0.948 s
  Integration grid: deviation in total charge (<rho> - N_e) =   8.455459E-12
  Pulay mixing of updated and previous charge densities.

  Evaluating partitioned Hartree potential by multipole expansion.
  | Analytical far-field extrapolation by fixed multipoles:
  | Hartree multipole sum: apparent total charge =   0.343713E-02
  Summing up the Hartree potential.
  Time summed over all CPUs for potential: real work        0.494 s, elapsed        0.494 s
  | RMS charge density error from multipole expansion :   0.822969E-02
  | Average real-space part of the electrostatic potential :      0.17703246 eV

  Integrating Hamiltonian matrix: batch-based integration.
  Time summed over all CPUs for integration: real work        0.571 s, elapsed        0.571 s

  Updating Kohn-Sham eigenvalues, eigenvectors, occupation numbers, and Fermi level.
  Solving generalized eigenproblem

  Obtaining occupation numbers and chemical potential using ELSI.
  | Chemical potential (Fermi level):    -4.99225818eV
  What follows are estimated values for band gap, HOMO, LUMO, etc.
  | They are estimated on a discrete k-point grid and not necessarily exact.
  | For converged numbers, create a DOS and/or band structure plot on a denser k-grid.

  Highest occupied state (VBM) at     -5.67650895 eV (relative to internal zero)
  | Occupation number:      2.00000000
  | K-point:       1 at    0.000000    0.000000    0.000000 (in units of recip. lattice)

  Lowest unoccupied state (CBM) at    -4.95004808 eV (relative to internal zero)
  | Occupation number:      0.00000000
  | K-point:      48 at    0.000000    0.416667    0.416667 (in units of recip. lattice)

  ESTIMATED overall HOMO-LUMO gap:      0.72646087 eV between HOMO at k-point 1 and LUMO at k-point 48
  | This appears to be an indirect band gap.
  | Smallest direct gap :      1.68756063 eV for k_point 1 at    0.000000    0.416667    0.416667 (in units of recip. lattice)
  The gap value is above 0.2 eV. Unless you are using a very sparse k-point grid,
  this system is most likely an insulator or a semiconductor.

  Total energy components:
  | Sum of eigenvalues            :        -327.59168263 Ha       -8914.22323509 eV
  | XC energy correction          :         -39.61140199 Ha       -1077.88109009 eV
  | XC potential correction       :          52.33341346 Ha        1424.06463590 eV
  | Free-atom electrostatic energy:        -263.62553453 Ha       -7173.61578416 eV
  | Hartree energy correction     :          -0.23255669 Ha          -6.32818944 eV
  | Entropy correction            :          -0.00000000 Ha          -0.00000000 eV
  | ---------------------------
  | Total energy                  :        -578.72776238 Ha      -15747.98366288 eV
  | Total energy, T -> 0          :        -578.72776238 Ha      -15747.98366288 eV  <-- do not rely on this value for anything but (periodic) metals
  | Electronic free energy        :        -578.72776238 Ha      -15747.98366288 eV

  Derived energy quantities:
  | Kinetic energy                :         579.23339817 Ha       15761.74271280 eV
  | Electrostatic energy          :       -1118.34975856 Ha      -30431.84528558 eV
  | Energy correction for multipole
  | error in Hartree potential    :           0.00999736 Ha           0.27204194 eV
  | Sum of eigenvalues per atom                           :       -4457.11161754 eV
  | Total energy (T->0) per atom                          :       -7873.99183144 eV  <-- do not rely on this value for anything but (periodic) metals
  | Electronic free energy per atom                       :       -7873.99183144 eV

  Self-consistency convergence accuracy:
  | Change of charge density      :  0.1421E-02
  | Change of sum of eigenvalues  : -0.6475E+00 eV
  | Change of total energy        :  0.1780E-03 eV

  End self-consistency iteration #    10       :  max(cpu_time)    wall_clock(cpu1)
  | Time for this iteration                    :        2.674 s           2.675 s
  | Charge density update                      :        1.009 s           1.010 s
  | Density mixing & preconditioning           :        0.050 s           0.050 s
  | Hartree multipole update                   :        0.001 s           0.000 s
  | Hartree multipole summation                :        0.498 s           0.498 s
  | Integration                                :        0.570 s           0.571 s
  | Solution of K.-S. eqns.                    :        0.546 s           0.546 s
  | Total energy evaluation                    :        0.000 s           0.000 s

  Partial memory accounting:
  | Current value for overall tracked memory usage on task 0  :          10.659 MB
  | Peak value for overall tracked memory usage on task 0     :          13.137 MB after allocating wave
  | Largest tracked array allocation on task 0 so far         :           9.999 MB  when allocating +KS_eigenvector_complex
  Note:  These values currently only include a subset of arrays which are explicitly tracked.
  The "true" memory usage will be greater.
------------------------------------------------------------

------------------------------------------------------------
          Begin self-consistency iteration #   11

  Date     :  20190514, Time     :  105531.310
------------------------------------------------------------
  Evaluating new KS density using the density matrix
  Evaluating density matrix
  Time summed over all CPUs for getting density from density matrix: real work        0.936 s, elapsed        0.936 s
  Integration grid: deviation in total charge (<rho> - N_e) =   8.299139E-12
  Pulay mixing of updated and previous charge densities.

  Evaluating partitioned Hartree potential by multipole expansion.
  | Analytical far-field extrapolation by fixed multipoles:
  | Hartree multipole sum: apparent total charge =   0.343456E-02
  Summing up the Hartree potential.
  Time summed over all CPUs for potential: real work        0.499 s, elapsed        0.499 s
  | RMS charge density error from multipole expansion :   0.822968E-02
  | Average real-space part of the electrostatic potential :      0.17703631 eV

  Integrating Hamiltonian matrix: batch-based integration.
  Time summed over all CPUs for integration: real work        0.575 s, elapsed        0.575 s

  Updating Kohn-Sham eigenvalues, eigenvectors, occupation numbers, and Fermi level.
  Solving generalized eigenproblem

  Obtaining occupation numbers and chemical potential using ELSI.
  | Chemical potential (Fermi level):    -4.99226128eV
  What follows are estimated values for band gap, HOMO, LUMO, etc.
  | They are estimated on a discrete k-point grid and not necessarily exact.
  | For converged numbers, create a DOS and/or band structure plot on a denser k-grid.

  Highest occupied state (VBM) at     -5.67651270 eV (relative to internal zero)
  | Occupation number:      2.00000000
  | K-point:       1 at    0.000000    0.000000    0.000000 (in units of recip. lattice)

  Lowest unoccupied state (CBM) at    -4.95005063 eV (relative to internal zero)
  | Occupation number:      0.00000000
  | K-point:      48 at    0.000000    0.416667    0.416667 (in units of recip. lattice)

  ESTIMATED overall HOMO-LUMO gap:      0.72646207 eV between HOMO at k-point 1 and LUMO at k-point 48
  | This appears to be an indirect band gap.
  | Smallest direct gap :      1.68755981 eV for k_point 1 at    0.000000    0.416667    0.416667 (in units of recip. lattice)
  The gap value is above 0.2 eV. Unless you are using a very sparse k-point grid,
  this system is most likely an insulator or a semiconductor.

  Total energy components:
  | Sum of eigenvalues            :        -327.59169024 Ha       -8914.22344226 eV
  | XC energy correction          :         -39.61140253 Ha       -1077.88110477 eV
  | XC potential correction       :          52.33341416 Ha        1424.06465500 eV
  | Free-atom electrostatic energy:        -263.62553453 Ha       -7173.61578416 eV
  | Hartree energy correction     :          -0.23254923 Ha          -6.32798658 eV
  | Entropy correction            :          -0.00000000 Ha          -0.00000000 eV
  | ---------------------------
  | Total energy                  :        -578.72776237 Ha      -15747.98366277 eV
  | Total energy, T -> 0          :        -578.72776237 Ha      -15747.98366277 eV  <-- do not rely on this value for anything but (periodic) metals
  | Electronic free energy        :        -578.72776237 Ha      -15747.98366277 eV

  Derived energy quantities:
  | Kinetic energy                :         579.23339737 Ha       15761.74269111 eV
  | Electrostatic energy          :       -1118.34975722 Ha      -30431.84524911 eV
  | Energy correction for multipole
  | error in Hartree potential    :           0.00999726 Ha           0.27203925 eV
  | Sum of eigenvalues per atom                           :       -4457.11172113 eV
  | Total energy (T->0) per atom                          :       -7873.99183139 eV  <-- do not rely on this value for anything but (periodic) metals
  | Electronic free energy per atom                       :       -7873.99183139 eV

  Self-consistency convergence accuracy:
  | Change of charge density      :  0.5922E-06
  | Change of sum of eigenvalues  : -0.2072E-03 eV
  | Change of total energy        :  0.1069E-06 eV

  Preliminary charge convergence reached. Turning off preconditioner.

  Writing Kohn-Sham eigenvalues.
  K-point:       1 at    0.000000    0.000000    0.000000 (in units of recip. lattice)

  State    Occupation    Eigenvalue [Ha]    Eigenvalue [eV]
      1       2.00000         -65.498260        -1782.29833
      2       2.00000         -65.498260        -1782.29833
      3       2.00000          -5.099275         -138.75834
      4       2.00000          -5.099131         -138.75442
      5       2.00000          -3.513082          -95.59582
      6       2.00000          -3.513082          -95.59582
      7       2.00000          -3.513082          -95.59582
      8       2.00000          -3.512738          -95.58645
      9       2.00000          -3.512738          -95.58645
     10       2.00000          -3.512738          -95.58645
     11       2.00000          -0.613960          -16.70671
     12       2.00000          -0.208608           -5.67651
     13       2.00000          -0.208608           -5.67651
     14       2.00000          -0.208608           -5.67651
     15       0.00000          -0.146591           -3.98895
     16       0.00000          -0.117039           -3.18478
     17       0.00000          -0.117039           -3.18478
     18       0.00000          -0.117039           -3.18478
     19       0.00000           0.081469            2.21688
     20       0.00000           0.081469            2.21688

  What follows are estimated values for band gap, HOMO, LUMO, etc.
  | They are estimated on a discrete k-point grid and not necessarily exact.
  | For converged numbers, create a DOS and/or band structure plot on a denser k-grid.

  Highest occupied state (VBM) at     -5.67651270 eV (relative to internal zero)
  | Occupation number:      2.00000000
  | K-point:       1 at    0.000000    0.000000    0.000000 (in units of recip. lattice)

  Lowest unoccupied state (CBM) at    -4.95005063 eV (relative to internal zero)
  | Occupation number:      0.00000000
  | K-point:      48 at    0.000000    0.416667    0.416667 (in units of recip. lattice)

  ESTIMATED overall HOMO-LUMO gap:      0.72646207 eV between HOMO at k-point 1 and LUMO at k-point 48
  | This appears to be an indirect band gap.
  | Smallest direct gap :      1.68755981 eV for k_point 1 at    0.000000    0.416667    0.416667 (in units of recip. lattice)
  The gap value is above 0.2 eV. Unless you are using a very sparse k-point grid,
  this system is most likely an insulator or a semiconductor.

  Self-consistency cycle converged.

  End self-consistency iteration #    11       :  max(cpu_time)    wall_clock(cpu1)
  | Time for this iteration                    :        2.686 s           2.687 s
  | Charge density update                      :        1.000 s           1.001 s
  | Density mixing                             :        0.051 s           0.050 s
  | Hartree multipole update                   :        0.001 s           0.001 s
  | Hartree multipole summation                :        0.503 s           0.503 s
  | Integration                                :        0.575 s           0.575 s
  | Solution of K.-S. eqns.                    :        0.557 s           0.557 s
  | Total energy evaluation                    :        0.000 s           0.000 s

  Partial memory accounting:
  | Current value for overall tracked memory usage on task 0  :          10.659 MB
  | Peak value for overall tracked memory usage on task 0     :          13.137 MB after allocating wave
  | Largest tracked array allocation on task 0 so far         :           9.999 MB  when allocating +KS_eigenvector_complex
  Note:  These values currently only include a subset of arrays which are explicitly tracked.
  The "true" memory usage will be greater.
------------------------------------------------------------

  Energy and forces in a compact form:
  | Total energy uncorrected      :         -0.157479836627703E+05 eV
  | Total energy corrected        :         -0.157479836627703E+05 eV  <-- do not rely on this value for anything but (periodic) metals
  | Electronic free energy        :         -0.157479836627703E+05 eV

  ------------------------------------ 
  Start decomposition of the XC Energy 
  ------------------------------------ 
  X and C from original XC functional choice 
  Hartree-Fock Energy :          0.000000000 Ha              0.000000000 eV
  X Energy            :        -37.472582291 Ha          -1019.680844922 eV
  C Energy            :         -2.138820237 Ha            -58.200259849 eV
  Total XC Energy     :        -39.611402528 Ha          -1077.881104771 eV
  ------------------------------------ 
  LDA X and C from self-consistent density 
  X Energy LDA        :        -37.472582291 Ha          -1019.680844922 eV
  C Energy LDA        :         -2.138820237 Ha            -58.200259849 eV
  ------------------------------------ 
  End decomposition of the XC Energy 
  ------------------------------------ 

------------------------------------------------------------

------------------------------------------------------------------------------
  Final output of selected total energy values:

  The following output summarizes some interesting total energy values
  at the end of a run (AFTER all relaxation, molecular dynamics, etc.).

  | Total energy of the DFT / Hartree-Fock s.c.f. calculation      :         -15747.983662770 eV
  | Final zero-broadening corrected energy (caution - metals only) :         -15747.983662770 eV
  | For reference only, the value of 1 Hartree used in FHI-aims is :             27.211384500 eV

  Before relying on these values, please be sure to understand exactly which
  total energy value is referred to by a given number. Different objects may
  all carry the same name 'total energy'. Definitions:

  Total energy of the DFT / Hartree-Fock s.c.f. calculation:
  | Note that this energy does not include ANY quantities calculated after the
  | s.c.f. cycle, in particular not ANY RPA, MP2, etc. many-body perturbation terms.

  Final zero-broadening corrected energy:
  | For metallic systems only, a broadening of the occupation numbers at the Fermi
  | level can be extrapolated back to zero broadening by an electron-gas inspired
  | formula. For all systems that are not real metals, this value can be
  | meaningless and should be avoided.

------------------------------------------------------------------------------
  Methods described in the following list of references were used in this FHI-aims run.
  If you publish the results, please make sure to cite these reference if they apply.
  FHI-aims is an academic code, and for our developers (often, Ph.D. students
  and postdocs), scientific credit in the community is essential.
  Thank you for helping us!

  For any use of FHI-aims, please cite:

    Volker Blum, Ralf Gehrke, Felix Hanke, Paula Havu, Ville Havu,
    Xinguo Ren, Karsten Reuter, and Matthias Scheffler
    'Ab initio molecular simulations with numeric atom-centered orbitals'
    Computer Physics Communications 180, 2175-2196 (2009)
    http://dx.doi.org/10.1016/j.cpc.2009.06.022


  For the real-space grid partitioning and parallelization used in this calculation, please cite:

    Ville Havu, Volker Blum, Paula Havu, and Matthias Scheffler,
    'Efficient O(N) integration for all-electron electronic structure calculation'
    'using numerically tabulated basis functions'
    Journal of Computational Physics 228, 8367-8379 (2009).
    http://dx.doi.org/10.1016/j.jcp.2009.08.008

  Of course, there are many other important community references, e.g., those cited in the
  above references. Our list is limited to references that describe implementations in the
  FHI-aims code. The reason is purely practical (length of this list) - please credit others as well.

------------------------------------------------------------
          Leaving FHI-aims.
          Date     :  20190514, Time     :  105534.007

          Computational steps:
          | Number of self-consistency cycles          :           11
          | Number of SCF (re)initializations          :            1

          Detailed time accounting                     :  max(cpu_time)    wall_clock(cpu1)
          | Total time                                 :       32.492 s          32.503 s
          | Preparation time                           :        0.104 s           0.104 s
          | Boundary condition initalization           :        0.045 s           0.045 s
          | Grid partitioning                          :        0.029 s           0.028 s
          | Preloading free-atom quantities on grid    :        0.001 s           0.001 s
          | Free-atom superposition energy             :        0.032 s           0.032 s
          | Total time for integrations                :        7.424 s           7.426 s
          | Total time for solution of K.-S. equations :        7.217 s           7.220 s
          | Total time for density update              :       11.470 s          11.475 s
          | Total time for mixing & preconditioning    :        0.566 s           0.565 s
          | Total time for Hartree multipole update    :        0.010 s           0.009 s
          | Total time for Hartree multipole sum       :        5.422 s           5.425 s
          | Total time for total energy evaluation     :        0.003 s           0.005 s
          | Total time for scaled ZORA corrections     :        0.000 s           0.000 s

 This is a stub MPI_ALLREDUCE call.
 You should not be here. Check your
 setting on the use_mpi variable, or
 link against true MPI-libraries.
