------------------------------------------------------------
          Invoking FHI-aims ...
          Version 171221_1
          Compiled on 2019/05/06 at 14:26:40 on host ffph0xx.

          When using FHI-aims, please cite the following reference:

          Volker Blum, Ralf Gehrke, Felix Hanke, Paula Havu,
          Ville Havu, Xinguo Ren, Karsten Reuter, and Matthias Scheffler,
          'Ab Initio Molecular Simulations with Numeric Atom-Centered Orbitals',
          Computer Physics Communications 180, 2175-2196 (2009)

          For any questions about FHI-aims, please visit the aimsclub website
          with its forums and wiki. Contributions to both the forums and the
          wiki are warmly encouraged - they are for you, and everyone is welcome there.

------------------------------------------------------------



  Date     :  20190508, Time     :  151850.140
  Time zero on CPU 1             :   0.787000000000000E-03  s.
  Internal wall clock time zero  :           326560730.140  s.

  FHI-aims created a unique identifier for this run for later identification
  aims_uuid : 3C7A120C-6D6D-4076-AC2D-A38E87A7540C


  Performing system and environment tests:
  *** Environment variable OMP_NUM_THREADS is not set
  *** For performance reasons you might want to set it to 1
  | Stacksize not measured: no C compiler

  Obtaining array dimensions for all initial allocations:
  
  -----------------------------------------------------------------------
  Parsing control.in (first pass over file, find array dimensions only).
  The contents of control.in will be repeated verbatim below
  unless switched off by setting 'verbatim_writeout .false.' .
  in the first line of control.in .
  -----------------------------------------------------------------------
  
  #--- Specification of method ---
  xc pbe
  charge 0.0
  
  
  #---
  
  #--- iteration limit ---
  sc_iter_limit 100
  
  # other possible thresholds
  # sc_accuracy_eev ... for sum of Kohn-Sham eigen values
  # sc_accuracy_etot .. total energy
  # sc_accuracy_rho ... electron density
  #---
  
  #--- tasks (what to calculate) ---
  output dipole
  #---
  
  
  ################################################################################
  ############# Species Defaults ####################
  ################################################################################
  
  
  ################################################################################
  #
  #  FHI-aims code project
  # Volker Blum, Fritz Haber Institute Berlin, 2009
  #
  #  Suggested "tight" defaults for O atom (to be pasted into control.in file)
  #
  ################################################################################
    species        O
  #     global species definitions
      nucleus             8
      mass                15.9994
  #
      l_hartree           6
  #
      cut_pot             4.0  2.0  1.0
      basis_dep_cutoff    1e-4
  #
      radial_base         36 7.0
      radial_multiplier   2
       angular_grids specified
        division   0.1817   50
        division   0.3417  110
        division   0.4949  194
        division   0.6251  302
        division   0.8014  434
  #      division   0.8507  590
  #      division   0.8762  770
  #      division   0.9023  974
  #      division   1.2339 1202
  #      outer_grid 974
        outer_grid  434
  ################################################################################
  #
  #  Definition of "minimal" basis
  #
  ################################################################################
  #     valence basis states
      valence      2  s   2.
      valence      2  p   4.
  #     ion occupancy
      ion_occ      2  s   1.
      ion_occ      2  p   3.
  ################################################################################
  #
  #  Suggested additional basis functions. For production calculations,
  #  uncomment them one after another (the most important basis functions are
  #  listed first).
  #
  #  Constructed for dimers: 1.0 A, 1.208 A, 1.5 A, 2.0 A, 3.0 A
  #
  ################################################################################
  #  "First tier" - improvements: -699.05 meV to -159.38 meV
       hydro 2 p 1.8
       hydro 3 d 7.6
       hydro 3 s 6.4
  #  "Second tier" - improvements: -49.91 meV to -5.39 meV
       hydro 4 f 11.6
       hydro 3 p 6.2
       hydro 3 d 5.6
       hydro 5 g 17.6
       hydro 1 s 0.75
  #  "Third tier" - improvements: -2.83 meV to -0.50 meV
  #     ionic 2 p auto
  #     hydro 4 f 10.8
  #     hydro 4 d 4.7
  #     hydro 2 s 6.8
  #  "Fourth tier" - improvements: -0.40 meV to -0.12 meV
  #     hydro 3 p 5
  #     hydro 3 s 3.3
  #     hydro 5 g 15.6
  #     hydro 4 f 17.6
  #     hydro 4 d 14
  # Further basis functions - -0.08 meV and below
  #     hydro 3 s 2.1
  #     hydro 4 d 11.6
  #     hydro 3 p 16
  #     hydro 2 s 17.2
  ################################################################################
  #
  # For methods that use the localized form of the "resolution of identity" for
  # the two-electron Coulomb operator (RI_method LVL), particularly Hartree-Fock and
  # hybrid density functional calculations, the highest accuracy can be obtained by
  # uncommenting the line beginning with "for_aux"  below, thus adding an extra g radial
  # function to the construction of the product basis set for the expansion.
  # See Ref. New J. Phys. 17, 093020 (2015) for more information, particularly Figs. 1 and 6.
  #
  ################################################################################
  #
  # for_aux hydro 5 g 6.0
  
  -----------------------------------------------------------------------
  Completed first pass over input file control.in .
  -----------------------------------------------------------------------
  
  
  -----------------------------------------------------------------------
  Parsing geometry.in (first pass over file, find array dimensions only).
  The contents of geometry.in will be repeated verbatim below
  unless switched off by setting 'verbatim_writeout .false.' .
  in the first line of geometry.in .
  -----------------------------------------------------------------------
  
  # HF with variable bonding distance
  atom 0.0 0.0 0.0 O
  atom 0.0 0.0 1.5 O
  
  -----------------------------------------------------------------------
  Completed first pass over input file geometry.in .
  -----------------------------------------------------------------------
  

  Basic array size parameters:
  | Number of species                 :        1
  | Number of atoms                   :        2
  | Max. basis fn. angular momentum   :        4
  | Max. atomic/ionic basis occupied n:        2
  | Max. number of basis fn. types    :        2
  | Max. radial fns per species/type  :        8
  | Max. logarithmic grid size        :     1301
  | Max. radial integration grid size :       73
  | Max. angular integration grid size:      434
  | Max. angular grid division number :        8
  | Radial grid for Hartree potential :     1301
  | Number of spin channels           :        1

------------------------------------------------------------
          Reading file control.in.
------------------------------------------------------------
  XC: Using PBE gradient-corrected functionals.
  Charge =   0.000000E+00: Neutral system requested explicitly.
  Maximum number of s.-c. iterations  :   100
  Dipole moment will be written out.

  Reading configuration options for species O                   .
  | Found nuclear charge :   8.0000
  | Found atomic mass :    15.999400000000000      amu
  | Found l_max for Hartree potential  :   6
  | Found cutoff potl. onset [A], width [A], scale factor :    4.00000    2.00000    1.00000
  | Threshold for basis-dependent cutoff potential is   0.100000E-03
  | Found data for basic radial integration grid :    36 points, outermost radius =    7.000 A
  | Found multiplier for basic radial grid :   2
  | Found angular grid specification: user-specified.
  | Specified grid contains     6 separate shells.
  | Check grid settings after all constraints further below.
  | Found free-atom valence shell :  2 s   2.000
  | Found free-atom valence shell :  2 p   4.000
  | No ionic wave fns used. Skipping ion_occ.
  | No ionic wave fns used. Skipping ion_occ.
  | Found hydrogenic basis function :  2 p   1.800
  | Found hydrogenic basis function :  3 d   7.600
  | Found hydrogenic basis function :  3 s   6.400
  | Found hydrogenic basis function :  4 f  11.600
  | Found hydrogenic basis function :  3 p   6.200
  | Found hydrogenic basis function :  3 d   5.600
  | Found hydrogenic basis function :  5 g  17.600
  | Found hydrogenic basis function :  1 s   0.750
  Species O                   : Missing cutoff potential type.
  Defaulting to exp(1/x)/(1-x)^2 type cutoff potential.
  Species O : No 'logarithmic' tag. Using default grid for free atom:
  | Default logarithmic grid data [bohr] : 0.1000E-03 0.1000E+03 0.1012E+01
  Species O : On-site basis accuracy parameter (for Gram-Schmidt orthonormalisation) not specified.
  Using default value basis_acc =  0.1000000E-03.
  Species O                   : Using default innermost maximum threshold i_radial=  2 for radial functions.
  Species O                   : Default cutoff onset for free atom density etc. : 0.40000000E+01 AA.
  Species O                   : Basic radial grid will be enhanced according to radial_multiplier =   2, to contain    73 grid points.

  Finished reading input file 'control.in'. Consistency checks are next.

  MPI_IN_PLACE appears to work with this MPI implementation.
  | Keeping use_mpi_in_place .true. (see manual).
  Target number of points in a grid batch is not set. Defaulting to  100
  Method for grid partitioning is not set. Defaulting to 'maxmin' partitioning.
  Batch size limit is not set. Defaulting to    200
  By default, will store active basis functions for each batch.
  If in need of memory, prune_basis_once .false. can be used to disable this option.
  communication_type for Hartree potential was not specified.
  Defaulting to calc_hartree .
 * Attention: 
 * You may want to set distributed_spline_storage to .true. in order to save memory.
 * This doesn't harm performance and is perfectly ok unless:
 * - you get error messages in postprocessing (about missing atoms in get_rho_multipole_spl)
 * - you need full spline storage in hirshfeld_analysis
  Defaulting to Pulay charge density mixer.
  Pulay mixer: Number of relevant iterations not set.
  Defaulting to    8 iterations.
  Pulay mixer: Number of initial linear mixing iterations not set.
  Defaulting to    0 iterations.
  Work space size for distributed Hartree potential not set.
  Defaulting to   0.200000E+03 MB.
  Mixing parameter for charge density mixing has not been set.
  Using default: charge_mix_param =     0.0500.
  The mixing parameter will be adjusted in iteration number     2 of the first full s.c.f. cycle only.
  Algorithm-dependent basis array size parameters:
  | n_max_pulay                         :        8
 * Notice: The s.c.f. convergence criterion sc_accuracy_rho was not provided.
 * We used to stop in this case, and ask the user to provide reasonable
 * scf convergence criteria. However, this led some users to employ criteria
 * that led to extremely long run times, e.g., for simple relaxation.
 * We now preset a default value for sc_accuracy_rho if it is not set.
 * You may still wish to check if this setting is too tight or too loose for your needs.
 * Based on n_atoms, FHI-aims chose sc_accuracy_rho =  0.100000E-05 .
  Presetting      1001 iterations before the initial mixing cycle
  is restarted anyway using the sc_init_iter criterion / keyword.
  Presetting a factor      1.000 between actual scf density residual
  and density convergence criterion sc_accuracy_rho below which sc_init_iter
  takes no effect.
 * No s.c.f. convergence criteria (sc_accuracy_*) were provided in control.in.
 * The run will proceed with a reasonable default guess, but please check whether.
 * the s.c.f. cycles seem to take too much or too little time.
  Calculation of forces was not defined in control.in. No forces will be calculated.
  Geometry relaxation not requested: no relaxation will be performed.
  No accuracy limit for integral partition fn. given. Defaulting to  0.1000E-14.
  No threshold value for u(r) in integrations given. Defaulting to  0.1000E-05.
  No occupation type (smearing scheme) given. Defaulting to Gaussian broadening, width =  0.1000E-01 eV.
  The width will be adjusted in iteration number     2 of the first full s.c.f. cycle only.
  S.C.F. convergence parameters will be adjusted in iteration number     2 of the first full s.c.f. cycle only.
  No accuracy for occupation numbers given. Defaulting to  0.1000E-12.
  No threshold value for occupation numbers given. Defaulting to  0.0000E+00.
  No accuracy for fermi level given. Defaulting to  0.1000E-19.
  Maximum # of iterations to find E_F not set. Defaulting to  200.
  Preferred method for the eigenvalue solver ('KS_method') not specified in 'control.in'.
  Defaulting to serial version, 'lapack_fast'.
  Will not use alltoall communication since running on < 1024 CPUs.
  Threshold for basis singularities not set.
  Default threshold for basis singularities:  0.1000E-04
  partition_type (choice of integration weights) for integrals was not specified.
  | Using a version of the partition function of Stratmann and coworkers ('stratmann_smoother').
  | At each grid point, the set of atoms used to build the partition table is smoothly restricted to
  | only those atoms whose free-atom density would be non-zero at that grid point.
  Partitioning for Hartree potential was not defined. Using partition_type for integrals.
  | Adjusted default value of keyword multip_moments_threshold to:       0.10000000E-11
  | This value may affect high angular momentum components of the Hartree potential in periodic systems.
  Spin handling was not defined in control.in. Defaulting to unpolarized case.
  No q(lm)/r^(l+1) cutoff set for long-range Hartree potential.
  | Using default value of  0.100000E-09 .
  | Verify using the multipole_threshold keyword.
  Defaulting to new monopole extrapolation.
  Density update method: automatic selection selected.
------------------------------------------------------------


------------------------------------------------------------
          Reading geometry description geometry.in.
------------------------------------------------------------
 * Warning! You did not set the 'relativistic' flag in input file 'control.in'.
 * Since you are not attempting to treat any elements beyond Ca(Z=20), FHI-aims
 * will default to 'relativistic none'.
 * You must ensure that this is really what you want!!
 * For example, DO NOT compute total-energy differences between results from
 * different settings of the 'relativistic' flag.
  Input structure read successfully.
  The structure contains        2 atoms,  and a total of         16.000 electrons.

  Input geometry:
  | No unit cell requested.
  | Atomic structure:
  |       Atom                x [A]            y [A]            z [A]
  |    1: Species O             0.00000000        0.00000000        0.00000000
  |    2: Species O             0.00000000        0.00000000        1.50000000
  |

  | The smallest distance between any two atoms is         1.50000000 AA.
  |
  | The first atom of this pair is atom number                      1 .
  | The second atom of this pair is atom number                     2 .

  Number of empty states per atom not set in control.in - providing a guess from actual geometry.
  | Total number of empty states used during s.c.f. cycle:        6
  If you use a very high smearing, use empty_states (per atom!) in control.in to increase this value.

  Structure-dependent array size parameters: 
  | Maximum number of distinct radial functions  :       11
  | Maximum number of basis functions            :       78
  | Number of Kohn-Sham states (occupied + empty):       14
------------------------------------------------------------

------------------------------------------------------------
          Preparing all fixed parts of the calculation.
------------------------------------------------------------
  Determining machine precision:
     2.2250738585072014E-308
  Setting up grids for atomic and cluster calculations.

  Creating wave function, potential, and density for free atoms.

  Species: O

  List of occupied orbitals and eigenvalues:
    n    l              occ      energy [Ha]    energy [eV]
    1    0           2.0000       -18.898576      -514.2564
    2    0           2.0000        -0.878795       -23.9132
    2    1           4.0000        -0.332075        -9.0362

  Creating fixed part of basis set: Ionic, confined, hydrogenic.

  O                    hydrogenic:

  List of hydrogenic basis orbitals: 
    n    l      effective z      eigenvalue [eV]  inner max. [A]     outer max. [A]     outer radius [A]   
    2    1         1.800000       -11.0118           1.178562           1.178562           5.432602
    3    2         7.600000       -87.3182           0.624125           0.624125           3.541477
    3    0         6.400000       -61.9209           0.061167           1.081902           4.306578
    4    3        11.600000      -114.4238           0.731631           0.731631           3.585037
    3    1         6.200000       -58.1113           0.255680           1.030270           4.306578
    3    2         5.600000       -47.4081           0.847233           0.847233           4.413171
    5    4        17.600000      -168.5799           0.749740           0.749740           3.372465
    1    0         0.750000        -7.6499           0.705284           0.705284           5.366593


  Adding cutoff potential to free-atom effective potential.
  Creating atomic-like basis functions for current effective potential.

  Species O                   :

  List of atomic basis orbitals and eigenvalues:
    n    l      energy [Ha]    energy [eV]    outer radius [A]
    1    0       -18.898576      -514.2564       1.415765
    2    0        -0.878795       -23.9132       5.048385
    2    1        -0.332075        -9.0362       5.301386

  Assembling full basis from fixed parts.
  | Species O :   atomic orbital   1 s accepted.
  | Species O :    hydro orbital   3 s accepted.
  | Species O :   atomic orbital   2 s accepted.
  | Species O :    hydro orbital   1 s accepted.
  | Species O :    hydro orbital   3 p accepted.
  | Species O :   atomic orbital   2 p accepted.
  | Species O :    hydro orbital   2 p accepted.
  | Species O :    hydro orbital   3 d accepted.
  | Species O :    hydro orbital   3 d accepted.
  | Species O :    hydro orbital   4 f accepted.
  | Species O :    hydro orbital   5 g accepted.

  Basis size parameters after reduction:
  | Total number of radial functions:       11
  | Total number of basis functions :       78

  Per-task memory consumption for arrays in subroutine allocate_ext:
  |           2.750028MB.
  Testing on-site integration grid accuracy.
  |  Species  Function  <phi|h_atom|phi> (log., in eV)  <phi|h_atom|phi> (rad., in eV)
           1        1               -514.2564144315               -514.2564099626
           1        2                 15.1726678541                 15.1726530877
           1        3                -21.5447785304                -21.5447874973
           1        4                 14.4944558459                 14.4944698284
           1        5                 20.8882174564                 20.8882178906
           1        6                 -2.4850315909                 -2.4850322289
           1        7                 13.8600193195                 13.8599826966
           1        8                 45.8243383616                 45.8243383675
           1        9                 52.1840606465                 52.1840622440
           1       10                 85.4074185510                 85.4074185819
           1       11                142.0983717302                142.0983717339

  Preparing densities etc. for the partition functions (integrals / Hartree potential).

  Preparations completed.
  max(cpu_time)          :      0.070 s.
  Wall clock time (cpu1) :      0.070 s.
------------------------------------------------------------

------------------------------------------------------------
          Begin self-consistency loop: Initialization.

          Date     :  20190508, Time     :  151850.211
------------------------------------------------------------

  Initializing index lists of integration centers etc. from given atomic structure:
  | Number of centers in hartree potential         :         2
  | Number of centers in hartree multipole         :         2
  | Number of centers in electron density summation:         2
  | Number of centers in basis integrals           :         2
  | Number of centers in integrals                 :         2
  | Number of centers in hamiltonian               :         2
  Partitioning the integration grid into batches with maxmin method.
  | Maximal weight for a single point:     1.000
  | Minimal weight for a single point:     0.000
  | Number of batches:      493
  | Maximal batch size:     160
  | Minimal batch size:      76
  | Average batch size:      81.696
  | Standard deviation of batch sizes:      15.127
  Initializing partition tables, free-atom densities, potentials, etc. across the integration grid (initialize_grid_storage).
  | initialize_grid_storage: Actual outermost partition radius vs. multipole_radius_free
  | (-- VB: in principle, multipole_radius_free should be larger, hence this output)
  | Species        1: Confinement radius =              6.000000000000000 AA, multipole_radius_free =              6.064445521808699 AA.
  | Species        1: outer_partition_radius set to              6.064445521808699 AA .
  | Original list of interatomic distances with           2 x          2 entries is created.
  | Net number of integration points:    40276
  | of which are non-zero points    :    38442
  Renormalizing the initial density to the exact electron count on the 3D integration grid.
  | Initial density: Formal number of electrons (from input files) :      16.0000000000
  | Integrated number of electrons on 3D grid     :      16.0000003214
  | Charge integration error                      :       0.0000003214
  | Normalization factor for density and gradient :       0.9999999799
  Obtaining max. number of non-zero basis functions in each batch (get_n_compute_maxes).
  | Maximal number of non-zero basis functions:       78 in task     0
  Selecting the method for density update.
  Loop over occupied states selected for charge density update.
  Allocating        0.009 MB for KS_eigenvector
  Integrating Hamiltonian matrix: batch-based integration.
  Time summed over all CPUs for integration: real work        0.163 s, elapsed        0.163 s
  Integrating overlap matrix.
  Time summed over all CPUs for integration: real work        0.066 s, elapsed        0.066 s

  Updating Kohn-Sham eigenvalues, eigenvectors, occupation numbers, and Fermi level.
  Solving generalized eigenproblem
  Updating Kohn-Sham eigenvalues and eigenfunctions.
  Transforming overlap matrix and checking for singularities.
  Overlap matrix is nonsingular:
  | Lowest eigenvalue:  0.104363E-02
  Solving real generalised eigenvalue problem by standard LAPACK (fast)

  Obtaining occupation numbers and chemical potential using ELSI.
  | Chemical potential (Fermi level):    -7.70516958eV
  Writing Kohn-Sham eigenvalues.

  State    Occupation    Eigenvalue [Ha]    Eigenvalue [eV]
      1       2.00000         -18.908638         -514.53023
      2       2.00000         -18.908636         -514.53017
      3       2.00000          -1.014169          -27.59696
      4       2.00000          -0.807338          -21.96880
      5       2.00000          -0.457881          -12.45958
      6       2.00000          -0.403412          -10.97739
      7       2.00000          -0.403412          -10.97739
      8       1.00000          -0.283160           -7.70517
      9       1.00000          -0.283160           -7.70517
     10       0.00000          -0.105284           -2.86492
     11       0.00000           0.093870            2.55434
     12       0.00000           0.126908            3.45333
     13       0.00000           0.140380            3.81994
     14       0.00000           0.140380            3.81994

  Highest occupied state (VBM) at     -7.70516958 eV
  | Occupation number:      1.00000000

  Lowest unoccupied state (CBM) at    -7.70516958 eV
  | Occupation number:      1.00000000

  Overall HOMO-LUMO gap:      0.00000000 eV.
  This system has fractional occupation numbers. Thus, it is a degenerate system
  within the approximate finite broadening function (occupation_type)
  applied to determine the occupation numbers.
  This may not be harmful. However, for some systems (free atoms), a different, non-degenerate
  ground state might exist by using a smaller broadening (see keyword occupation_type).
  Calculating total energy contributions from superposition of free atom densities.

  Total energy components:
  | Sum of eigenvalues            :         -82.37329398 Ha       -2241.49137508 eV
  | XC energy correction          :         -16.63864077 Ha        -452.76045163 eV
  | XC potential correction       :          21.37884326 Ha         581.74792418 eV
  | Free-atom electrostatic energy:         -72.53296081 Ha       -1973.72228545 eV
  | Hartree energy correction     :          -0.00000000 Ha          -0.00000000 eV
  | Entropy correction            :          -0.00020734 Ha          -0.00564190 eV
  | ---------------------------
  | Total energy                  :        -150.16605230 Ha       -4086.22618798 eV
  | Total energy, T -> 0          :        -150.16625964 Ha       -4086.23182987 eV  <-- do not rely on this value for anything but (periodic) metals
  | Electronic free energy        :        -150.16646697 Ha       -4086.23747177 eV

  Derived energy quantities:
  | Kinetic energy                :         149.43307897 Ha        4066.28096892 eV
  | Electrostatic energy          :        -282.96049050 Ha       -7699.74670527 eV
  | Energy correction for multipole
  | error in Hartree potential    :           0.00000000 Ha           0.00000000 eV
  | Sum of eigenvalues per atom                           :       -1120.74568754 eV
  | Total energy (T->0) per atom                          :       -2043.11591494 eV  <-- do not rely on this value for anything but (periodic) metals
  | Electronic free energy per atom                       :       -2043.11873589 eV
  Initialize hartree_potential_storage
  Max. number of atoms included in rho_multipole:            2

  End scf initialization - timings             :  max(cpu_time)    wall_clock(cpu1)
  | Time for scf. initialization               :        0.318 s           0.318 s
  | Boundary condition initialization          :        0.000 s           0.000 s
  | Integration                                :        0.229 s           0.229 s
  | Solution of K.-S. eqns.                    :        0.004 s           0.003 s
  | Grid partitioning                          :        0.033 s           0.033 s
  | Preloading free-atom quantities on grid    :        0.003 s           0.003 s
  | Free-atom superposition energy             :        0.028 s           0.028 s
  | Total energy evaluation                    :        0.000 s           0.000 s

  Partial memory accounting:
  | Current value for overall tracked memory usage on task 0  :           0.107 MB
  | Peak value for overall tracked memory usage on task 0     :           0.408 MB after allocating wave
  | Largest tracked array allocation on task 0 so far         :           0.100 MB  when allocating H_times_psi
  Note:  These values currently only include a subset of arrays which are explicitly tracked.
  The "true" memory usage will be greater.
------------------------------------------------------------

------------------------------------------------------------
          Begin self-consistency iteration #    1

  Date     :  20190508, Time     :  151850.529
------------------------------------------------------------
  Evaluating new KS density.
  Integration grid: deviation in total charge (<rho> - N_e) =   2.131628E-14
  Pulay mixing of updated and previous charge densities.

  Evaluating partitioned Hartree potential by multipole expansion.
  | Analytical far-field extrapolation by fixed multipoles:
  | Hartree multipole sum: apparent total charge =   0.308326E-06
  Summing up the Hartree potential.
  Time summed over all CPUs for potential: real work        0.031 s, elapsed        0.031 s
  | RMS charge density error from multipole expansion :   0.656421E-04

  Integrating Hamiltonian matrix: batch-based integration.
  Time summed over all CPUs for integration: real work        0.168 s, elapsed        0.168 s

  Updating Kohn-Sham eigenvalues, eigenvectors, occupation numbers, and Fermi level.
  Solving generalized eigenproblem
  Updating Kohn-Sham eigenvalues and eigenfunctions.
  Solving real generalised eigenvalue problem by standard LAPACK (fast)

  Obtaining occupation numbers and chemical potential using ELSI.
  | Chemical potential (Fermi level):    -7.70589237eV
  Writing Kohn-Sham eigenvalues.

  State    Occupation    Eigenvalue [Ha]    Eigenvalue [eV]
      1       2.00000         -18.909633         -514.55729
      2       2.00000         -18.909630         -514.55723
      3       2.00000          -1.015374          -27.62973
      4       2.00000          -0.807120          -21.96286
      5       2.00000          -0.458178          -12.46766
      6       2.00000          -0.403689          -10.98494
      7       2.00000          -0.403689          -10.98494
      8       1.00000          -0.283186           -7.70589
      9       1.00000          -0.283186           -7.70589
     10       0.00000          -0.106313           -2.89292
     11       0.00000           0.094033            2.55878
     12       0.00000           0.127105            3.45871
     13       0.00000           0.140437            3.82148
     14       0.00000           0.140437            3.82148

  Highest occupied state (VBM) at     -7.70589237 eV
  | Occupation number:      1.00000000

  Lowest unoccupied state (CBM) at    -7.70589237 eV
  | Occupation number:      1.00000000

  Overall HOMO-LUMO gap:      0.00000000 eV.
  This system has fractional occupation numbers. Thus, it is a degenerate system
  within the approximate finite broadening function (occupation_type)
  applied to determine the occupation numbers.
  This may not be harmful. However, for some systems (free atoms), a different, non-degenerate
  ground state might exist by using a smaller broadening (see keyword occupation_type).

  Total energy components:
  | Sum of eigenvalues            :         -82.38100062 Ha       -2241.70108348 eV
  | XC energy correction          :         -16.63849935 Ha        -452.75660340 eV
  | XC potential correction       :          21.37867089 Ha         581.74323371 eV
  | Free-atom electrostatic energy:         -72.53296081 Ha       -1973.72228545 eV
  | Hartree energy correction     :           0.00852316 Ha           0.23192700 eV
  | Entropy correction            :          -0.00020734 Ha          -0.00564190 eV
  | ---------------------------
  | Total energy                  :        -150.16526673 Ha       -4086.20481162 eV
  | Total energy, T -> 0          :        -150.16547407 Ha       -4086.21045351 eV  <-- do not rely on this value for anything but (periodic) metals
  | Electronic free energy        :        -150.16568140 Ha       -4086.21609541 eV

  Derived energy quantities:
  | Kinetic energy                :         149.42357980 Ha        4066.02248317 eV
  | Electrostatic energy          :        -282.95034718 Ha       -7699.47069139 eV
  | Energy correction for multipole
  | error in Hartree potential    :          -0.00002260 Ha          -0.00061504 eV
  | Sum of eigenvalues per atom                           :       -1120.85054174 eV
  | Total energy (T->0) per atom                          :       -2043.10522676 eV  <-- do not rely on this value for anything but (periodic) metals
  | Electronic free energy per atom                       :       -2043.10804771 eV

  Self-consistency convergence accuracy:
  | Change of charge density      :  0.1720E+00
  | Change of sum of eigenvalues  : -0.2097E+00 eV
  | Change of total energy        :  0.2138E-01 eV

  End self-consistency iteration #     1       :  max(cpu_time)    wall_clock(cpu1)
  | Time for this iteration                    :        0.326 s           0.326 s
  | Charge density update                      :        0.120 s           0.120 s
  | Density mixing                             :        0.001 s           0.002 s
  | Hartree multipole update                   :        0.003 s           0.002 s
  | Hartree multipole summation                :        0.031 s           0.032 s
  | Integration                                :        0.168 s           0.168 s
  | Solution of K.-S. eqns.                    :        0.002 s           0.001 s
  | Total energy evaluation                    :        0.000 s           0.000 s

  Partial memory accounting:
  | Current value for overall tracked memory usage on task 0  :           0.107 MB
  | Peak value for overall tracked memory usage on task 0     :           0.506 MB after allocating gradient_basis_wave
  | Largest tracked array allocation on task 0 so far         :           0.300 MB  when allocating gradient_basis_wave
  Note:  These values currently only include a subset of arrays which are explicitly tracked.
  The "true" memory usage will be greater.
------------------------------------------------------------

------------------------------------------------------------
          Begin self-consistency iteration #    2

  Date     :  20190508, Time     :  151850.855
------------------------------------------------------------
  Evaluating new KS density.
  Integration grid: deviation in total charge (<rho> - N_e) =  -2.486900E-14
  Pulay mixing of updated and previous charge densities.

  Evaluating partitioned Hartree potential by multipole expansion.
  | Analytical far-field extrapolation by fixed multipoles:
  | Hartree multipole sum: apparent total charge =   0.222585E-06
  Summing up the Hartree potential.
  Time summed over all CPUs for potential: real work        0.036 s, elapsed        0.036 s
  | RMS charge density error from multipole expansion :   0.109075E-02

  Integrating Hamiltonian matrix: batch-based integration.
  Time summed over all CPUs for integration: real work        0.161 s, elapsed        0.161 s

  Updating Kohn-Sham eigenvalues, eigenvectors, occupation numbers, and Fermi level.
  Solving generalized eigenproblem
  Updating Kohn-Sham eigenvalues and eigenfunctions.
  Solving real generalised eigenvalue problem by standard LAPACK (fast)

  Obtaining occupation numbers and chemical potential using ELSI.
  | Chemical potential (Fermi level):    -7.69888492eV
  Highest occupied state (VBM) at     -7.69888492 eV
  | Occupation number:      1.00000000

  Lowest unoccupied state (CBM) at    -7.69888492 eV
  | Occupation number:      1.00000000

  Overall HOMO-LUMO gap:      0.00000000 eV.
  This system has fractional occupation numbers. Thus, it is a degenerate system
  within the approximate finite broadening function (occupation_type)
  applied to determine the occupation numbers.
  This may not be harmful. However, for some systems (free atoms), a different, non-degenerate
  ground state might exist by using a smaller broadening (see keyword occupation_type).

  Checking to see if s.c.f. parameters should be adjusted.
  Adjusted the Pulay mixing parameter (charge_mix_param) for an expected low-gap system. New value:   0.020000 .
  Adjusted the occupation broadening width for an expected low-gap system. New value:      0.05000000 eV.

  Total energy components:
  | Sum of eigenvalues            :         -82.48856634 Ha       -2244.62809554 eV
  | XC energy correction          :         -16.64215955 Ha        -452.85620255 eV
  | XC potential correction       :          21.38340902 Ha         581.87216479 eV
  | Free-atom electrostatic energy:         -72.53296081 Ha       -1973.72228545 eV
  | Hartree energy correction     :           0.11922155 Ha           3.24418354 eV
  | Entropy correction            :          -0.00103668 Ha          -0.02820948 eV
  | ---------------------------
  | Total energy                  :        -150.16105613 Ha       -4086.09023521 eV
  | Total energy, T -> 0          :        -150.16209281 Ha       -4086.11844469 eV  <-- do not rely on this value for anything but (periodic) metals
  | Electronic free energy        :        -150.16312949 Ha       -4086.14665417 eV

  Derived energy quantities:
  | Kinetic energy                :         149.27011115 Ha        4061.84638888 eV
  | Electrostatic energy          :        -282.78900772 Ha       -7695.08042154 eV
  | Energy correction for multipole
  | error in Hartree potential    :          -0.00037859 Ha          -0.01030205 eV
  | Sum of eigenvalues per atom                           :       -1122.31404777 eV
  | Total energy (T->0) per atom                          :       -2043.05922235 eV  <-- do not rely on this value for anything but (periodic) metals
  | Electronic free energy per atom                       :       -2043.07332709 eV

  Self-consistency convergence accuracy:
  | Change of charge density      :  0.1620E+00
  | Change of sum of eigenvalues  : -0.2927E+01 eV
  | Change of total energy        :  0.1146E+00 eV

  End self-consistency iteration #     2       :  max(cpu_time)    wall_clock(cpu1)
  | Time for this iteration                    :        0.331 s           0.335 s
  | Charge density update                      :        0.128 s           0.127 s
  | Density mixing                             :        0.002 s           0.002 s
  | Hartree multipole update                   :        0.003 s           0.007 s
  | Hartree multipole summation                :        0.036 s           0.036 s
  | Integration                                :        0.161 s           0.161 s
  | Solution of K.-S. eqns.                    :        0.001 s           0.001 s
  | Total energy evaluation                    :        0.000 s           0.000 s

  Partial memory accounting:
  | Current value for overall tracked memory usage on task 0  :           0.108 MB
  | Peak value for overall tracked memory usage on task 0     :           0.506 MB after allocating gradient_basis_wave
  | Largest tracked array allocation on task 0 so far         :           0.300 MB  when allocating gradient_basis_wave
  Note:  These values currently only include a subset of arrays which are explicitly tracked.
  The "true" memory usage will be greater.
------------------------------------------------------------

------------------------------------------------------------
          Begin self-consistency iteration #    3

  Date     :  20190508, Time     :  151851.190
------------------------------------------------------------
  Evaluating new KS density.
  Integration grid: deviation in total charge (<rho> - N_e) =  -8.526513E-14
  Pulay mixing of updated and previous charge densities.

  Evaluating partitioned Hartree potential by multipole expansion.
  | Analytical far-field extrapolation by fixed multipoles:
  | Hartree multipole sum: apparent total charge =   0.220673E-06
  Summing up the Hartree potential.
  Time summed over all CPUs for potential: real work        0.031 s, elapsed        0.031 s
  | RMS charge density error from multipole expansion :   0.119939E-02

  Integrating Hamiltonian matrix: batch-based integration.
  Time summed over all CPUs for integration: real work        0.166 s, elapsed        0.166 s

  Updating Kohn-Sham eigenvalues, eigenvectors, occupation numbers, and Fermi level.
  Solving generalized eigenproblem
  Updating Kohn-Sham eigenvalues and eigenfunctions.
  Solving real generalised eigenvalue problem by standard LAPACK (fast)

  Obtaining occupation numbers and chemical potential using ELSI.
  | Chemical potential (Fermi level):    -7.51878155eV
  Highest occupied state (VBM) at     -7.51878155 eV
  | Occupation number:      1.00000000

  Lowest unoccupied state (CBM) at    -7.51878155 eV
  | Occupation number:      1.00000000

  Overall HOMO-LUMO gap:      0.00000000 eV.
  This system has fractional occupation numbers. Thus, it is a degenerate system
  within the approximate finite broadening function (occupation_type)
  applied to determine the occupation numbers.
  This may not be harmful. However, for some systems (free atoms), a different, non-degenerate
  ground state might exist by using a smaller broadening (see keyword occupation_type).

  Total energy components:
  | Sum of eigenvalues            :         -82.36505412 Ha       -2241.26715701 eV
  | XC energy correction          :         -16.65381179 Ha        -453.17327605 eV
  | XC potential correction       :          21.39868053 Ha         582.28772371 eV
  | Free-atom electrostatic energy:         -72.53296081 Ha       -1973.72228545 eV
  | Hartree energy correction     :          -0.00740444 Ha          -0.20148502 eV
  | Entropy correction            :          -0.00103668 Ha          -0.02820948 eV
  | ---------------------------
  | Total energy                  :        -150.16055063 Ha       -4086.07647981 eV
  | Total energy, T -> 0          :        -150.16158730 Ha       -4086.10468929 eV  <-- do not rely on this value for anything but (periodic) metals
  | Electronic free energy        :        -150.16262398 Ha       -4086.13289876 eV

  Derived energy quantities:
  | Kinetic energy                :         149.34304278 Ha        4063.83095937 eV
  | Electrostatic energy          :        -282.84978161 Ha       -7696.73416313 eV
  | Energy correction for multipole
  | error in Hartree potential    :          -0.00042538 Ha          -0.01157527 eV
  | Sum of eigenvalues per atom                           :       -1120.63357850 eV
  | Total energy (T->0) per atom                          :       -2043.05234464 eV  <-- do not rely on this value for anything but (periodic) metals
  | Electronic free energy per atom                       :       -2043.06644938 eV

  Self-consistency convergence accuracy:
  | Change of charge density      :  0.3146E-01
  | Change of sum of eigenvalues  :  0.3361E+01 eV
  | Change of total energy        :  0.1376E-01 eV

  End self-consistency iteration #     3       :  max(cpu_time)    wall_clock(cpu1)
  | Time for this iteration                    :        0.321 s           0.320 s
  | Charge density update                      :        0.117 s           0.116 s
  | Density mixing                             :        0.003 s           0.003 s
  | Hartree multipole update                   :        0.003 s           0.003 s
  | Hartree multipole summation                :        0.031 s           0.031 s
  | Integration                                :        0.166 s           0.166 s
  | Solution of K.-S. eqns.                    :        0.002 s           0.001 s
  | Total energy evaluation                    :        0.000 s           0.000 s

  Partial memory accounting:
  | Current value for overall tracked memory usage on task 0  :           0.108 MB
  | Peak value for overall tracked memory usage on task 0     :           0.508 MB after allocating gradient_basis_wave
  | Largest tracked array allocation on task 0 so far         :           0.300 MB  when allocating gradient_basis_wave
  Note:  These values currently only include a subset of arrays which are explicitly tracked.
  The "true" memory usage will be greater.
------------------------------------------------------------

------------------------------------------------------------
          Begin self-consistency iteration #    4

  Date     :  20190508, Time     :  151851.511
------------------------------------------------------------
  Evaluating new KS density.
  Integration grid: deviation in total charge (<rho> - N_e) =   9.237056E-14
  Pulay mixing of updated and previous charge densities.

  Evaluating partitioned Hartree potential by multipole expansion.
  | Analytical far-field extrapolation by fixed multipoles:
  | Hartree multipole sum: apparent total charge =   0.215510E-06
  Summing up the Hartree potential.
  Time summed over all CPUs for potential: real work        0.027 s, elapsed        0.027 s
  | RMS charge density error from multipole expansion :   0.126138E-02

  Integrating Hamiltonian matrix: batch-based integration.
  Time summed over all CPUs for integration: real work        0.163 s, elapsed        0.163 s

  Updating Kohn-Sham eigenvalues, eigenvectors, occupation numbers, and Fermi level.
  Solving generalized eigenproblem
  Updating Kohn-Sham eigenvalues and eigenfunctions.
  Solving real generalised eigenvalue problem by standard LAPACK (fast)

  Obtaining occupation numbers and chemical potential using ELSI.
  | Chemical potential (Fermi level):    -7.51694893eV
  Highest occupied state (VBM) at     -7.51694893 eV
  | Occupation number:      1.00000000

  Lowest unoccupied state (CBM) at    -7.51694893 eV
  | Occupation number:      1.00000000

  Overall HOMO-LUMO gap:      0.00000000 eV.
  This system has fractional occupation numbers. Thus, it is a degenerate system
  within the approximate finite broadening function (occupation_type)
  applied to determine the occupation numbers.
  This may not be harmful. However, for some systems (free atoms), a different, non-degenerate
  ground state might exist by using a smaller broadening (see keyword occupation_type).

  Total energy components:
  | Sum of eigenvalues            :         -82.37045279 Ha       -2241.41406240 eV
  | XC energy correction          :         -16.65429243 Ha        -453.18635480 eV
  | XC potential correction       :          21.39928872 Ha         582.30427342 eV
  | Free-atom electrostatic energy:         -72.53296081 Ha       -1973.72228545 eV
  | Hartree energy correction     :          -0.00214294 Ha          -0.05831224 eV
  | Entropy correction            :          -0.00103668 Ha          -0.02820948 eV
  | ---------------------------
  | Total energy                  :        -150.16056024 Ha       -4086.07674147 eV
  | Total energy, T -> 0          :        -150.16159692 Ha       -4086.10495095 eV  <-- do not rely on this value for anything but (periodic) metals
  | Electronic free energy        :        -150.16263360 Ha       -4086.13316043 eV

  Derived energy quantities:
  | Kinetic energy                :         149.33313561 Ha        4063.56137162 eV
  | Electrostatic energy          :        -282.83940342 Ha       -7696.45175829 eV
  | Energy correction for multipole
  | error in Hartree potential    :          -0.00044735 Ha          -0.01217306 eV
  | Sum of eigenvalues per atom                           :       -1120.70703120 eV
  | Total energy (T->0) per atom                          :       -2043.05247547 eV  <-- do not rely on this value for anything but (periodic) metals
  | Electronic free energy per atom                       :       -2043.06658021 eV

  Self-consistency convergence accuracy:
  | Change of charge density      :  0.7099E-02
  | Change of sum of eigenvalues  : -0.1469E+00 eV
  | Change of total energy        : -0.2617E-03 eV

  End self-consistency iteration #     4       :  max(cpu_time)    wall_clock(cpu1)
  | Time for this iteration                    :        0.316 s           0.316 s
  | Charge density update                      :        0.120 s           0.119 s
  | Density mixing                             :        0.003 s           0.003 s
  | Hartree multipole update                   :        0.002 s           0.002 s
  | Hartree multipole summation                :        0.027 s           0.027 s
  | Integration                                :        0.163 s           0.163 s
  | Solution of K.-S. eqns.                    :        0.002 s           0.001 s
  | Total energy evaluation                    :        0.000 s           0.000 s

  Partial memory accounting:
  | Current value for overall tracked memory usage on task 0  :           0.109 MB
  | Peak value for overall tracked memory usage on task 0     :           0.508 MB after allocating gradient_basis_wave
  | Largest tracked array allocation on task 0 so far         :           0.300 MB  when allocating gradient_basis_wave
  Note:  These values currently only include a subset of arrays which are explicitly tracked.
  The "true" memory usage will be greater.
------------------------------------------------------------

------------------------------------------------------------
          Begin self-consistency iteration #    5

  Date     :  20190508, Time     :  151851.827
------------------------------------------------------------
  Evaluating new KS density.
  Integration grid: deviation in total charge (<rho> - N_e) =  -6.039613E-14
  Pulay mixing of updated and previous charge densities.

  Evaluating partitioned Hartree potential by multipole expansion.
  | Analytical far-field extrapolation by fixed multipoles:
  | Hartree multipole sum: apparent total charge =   0.221446E-06
  Summing up the Hartree potential.
  Time summed over all CPUs for potential: real work        0.031 s, elapsed        0.031 s
  | RMS charge density error from multipole expansion :   0.125084E-02

  Integrating Hamiltonian matrix: batch-based integration.
  Time summed over all CPUs for integration: real work        0.154 s, elapsed        0.154 s

  Updating Kohn-Sham eigenvalues, eigenvectors, occupation numbers, and Fermi level.
  Solving generalized eigenproblem
  Updating Kohn-Sham eigenvalues and eigenfunctions.
  Solving real generalised eigenvalue problem by standard LAPACK (fast)

  Obtaining occupation numbers and chemical potential using ELSI.
  | Chemical potential (Fermi level):    -7.56452893eV
  Highest occupied state (VBM) at     -7.56452893 eV
  | Occupation number:      1.00000000

  Lowest unoccupied state (CBM) at    -7.56452893 eV
  | Occupation number:      1.00000000

  Overall HOMO-LUMO gap:      0.00000000 eV.
  This system has fractional occupation numbers. Thus, it is a degenerate system
  within the approximate finite broadening function (occupation_type)
  applied to determine the occupation numbers.
  This may not be harmful. However, for some systems (free atoms), a different, non-degenerate
  ground state might exist by using a smaller broadening (see keyword occupation_type).

  Total energy components:
  | Sum of eigenvalues            :         -82.40331585 Ha       -2242.30831172 eV
  | XC energy correction          :         -16.64899099 Ha        -453.04209550 eV
  | XC potential correction       :          21.39236690 Ha         582.11592097 eV
  | Free-atom electrostatic energy:         -72.53296081 Ha       -1973.72228545 eV
  | Hartree energy correction     :           0.03235831 Ha           0.88051446 eV
  | Entropy correction            :          -0.00103668 Ha          -0.02820948 eV
  | ---------------------------
  | Total energy                  :        -150.16054245 Ha       -4086.07625724 eV
  | Total energy, T -> 0          :        -150.16157913 Ha       -4086.10446672 eV  <-- do not rely on this value for anything but (periodic) metals
  | Electronic free energy        :        -150.16261581 Ha       -4086.13267620 eV

  Derived energy quantities:
  | Kinetic energy                :         149.29924280 Ha        4062.63910140 eV
  | Electrostatic energy          :        -282.81079425 Ha       -7695.67326314 eV
  | Energy correction for multipole
  | error in Hartree potential    :          -0.00044476 Ha          -0.01210240 eV
  | Sum of eigenvalues per atom                           :       -1121.15415586 eV
  | Total energy (T->0) per atom                          :       -2043.05223336 eV  <-- do not rely on this value for anything but (periodic) metals
  | Electronic free energy per atom                       :       -2043.06633810 eV

  Self-consistency convergence accuracy:
  | Change of charge density      :  0.6214E-02
  | Change of sum of eigenvalues  : -0.8942E+00 eV
  | Change of total energy        :  0.4842E-03 eV

  End self-consistency iteration #     5       :  max(cpu_time)    wall_clock(cpu1)
  | Time for this iteration                    :        0.320 s           0.319 s
  | Charge density update                      :        0.127 s           0.126 s
  | Density mixing                             :        0.004 s           0.004 s
  | Hartree multipole update                   :        0.003 s           0.003 s
  | Hartree multipole summation                :        0.031 s           0.031 s
  | Integration                                :        0.154 s           0.154 s
  | Solution of K.-S. eqns.                    :        0.001 s           0.001 s
  | Total energy evaluation                    :        0.000 s           0.000 s

  Partial memory accounting:
  | Current value for overall tracked memory usage on task 0  :           0.109 MB
  | Peak value for overall tracked memory usage on task 0     :           0.508 MB after allocating gradient_basis_wave
  | Largest tracked array allocation on task 0 so far         :           0.300 MB  when allocating gradient_basis_wave
  Note:  These values currently only include a subset of arrays which are explicitly tracked.
  The "true" memory usage will be greater.
------------------------------------------------------------

------------------------------------------------------------
          Begin self-consistency iteration #    6

  Date     :  20190508, Time     :  151852.146
------------------------------------------------------------
  Evaluating new KS density.
  Integration grid: deviation in total charge (<rho> - N_e) =   1.350031E-13
  Pulay mixing of updated and previous charge densities.

  Evaluating partitioned Hartree potential by multipole expansion.
  | Analytical far-field extrapolation by fixed multipoles:
  | Hartree multipole sum: apparent total charge =   0.222052E-06
  Summing up the Hartree potential.
  Time summed over all CPUs for potential: real work        0.027 s, elapsed        0.027 s
  | RMS charge density error from multipole expansion :   0.124675E-02

  Integrating Hamiltonian matrix: batch-based integration.
  Time summed over all CPUs for integration: real work        0.178 s, elapsed        0.178 s

  Updating Kohn-Sham eigenvalues, eigenvectors, occupation numbers, and Fermi level.
  Solving generalized eigenproblem
  Updating Kohn-Sham eigenvalues and eigenfunctions.
  Solving real generalised eigenvalue problem by standard LAPACK (fast)

  Obtaining occupation numbers and chemical potential using ELSI.
  | Chemical potential (Fermi level):    -7.56373487eV
  Highest occupied state (VBM) at     -7.56373487 eV
  | Occupation number:      1.00000000

  Lowest unoccupied state (CBM) at    -7.56373487 eV
  | Occupation number:      1.00000000

  Overall HOMO-LUMO gap:      0.00000000 eV.
  This system has fractional occupation numbers. Thus, it is a degenerate system
  within the approximate finite broadening function (occupation_type)
  applied to determine the occupation numbers.
  This may not be harmful. However, for some systems (free atoms), a different, non-degenerate
  ground state might exist by using a smaller broadening (see keyword occupation_type).

  Total energy components:
  | Sum of eigenvalues            :         -82.40216859 Ha       -2242.27709305 eV
  | XC energy correction          :         -16.64899321 Ha        -453.04215571 eV
  | XC potential correction       :          21.39237146 Ha         582.11604508 eV
  | Free-atom electrostatic energy:         -72.53296081 Ha       -1973.72228545 eV
  | Hartree energy correction     :           0.03120797 Ha           0.84921216 eV
  | Entropy correction            :          -0.00103668 Ha          -0.02820948 eV
  | ---------------------------
  | Total energy                  :        -150.16054317 Ha       -4086.07627697 eV
  | Total energy, T -> 0          :        -150.16157985 Ha       -4086.10448645 eV  <-- do not rely on this value for anything but (periodic) metals
  | Electronic free energy        :        -150.16261653 Ha       -4086.13269593 eV

  Derived energy quantities:
  | Kinetic energy                :         149.30040634 Ha        4062.67076285 eV
  | Electrostatic energy          :        -282.81195630 Ha       -7695.70488411 eV
  | Energy correction for multipole
  | error in Hartree potential    :          -0.00044300 Ha          -0.01205465 eV
  | Sum of eigenvalues per atom                           :       -1121.13854652 eV
  | Total energy (T->0) per atom                          :       -2043.05224322 eV  <-- do not rely on this value for anything but (periodic) metals
  | Electronic free energy per atom                       :       -2043.06634796 eV

  Self-consistency convergence accuracy:
  | Change of charge density      :  0.1529E-02
  | Change of sum of eigenvalues  :  0.3122E-01 eV
  | Change of total energy        : -0.1973E-04 eV

  End self-consistency iteration #     6       :  max(cpu_time)    wall_clock(cpu1)
  | Time for this iteration                    :        0.325 s           0.326 s
  | Charge density update                      :        0.112 s           0.113 s
  | Density mixing                             :        0.004 s           0.003 s
  | Hartree multipole update                   :        0.002 s           0.003 s
  | Hartree multipole summation                :        0.028 s           0.027 s
  | Integration                                :        0.178 s           0.178 s
  | Solution of K.-S. eqns.                    :        0.002 s           0.001 s
  | Total energy evaluation                    :        0.000 s           0.000 s

  Partial memory accounting:
  | Current value for overall tracked memory usage on task 0  :           0.109 MB
  | Peak value for overall tracked memory usage on task 0     :           0.508 MB after allocating gradient_basis_wave
  | Largest tracked array allocation on task 0 so far         :           0.300 MB  when allocating gradient_basis_wave
  Note:  These values currently only include a subset of arrays which are explicitly tracked.
  The "true" memory usage will be greater.
------------------------------------------------------------

------------------------------------------------------------
          Begin self-consistency iteration #    7

  Date     :  20190508, Time     :  151852.472
------------------------------------------------------------
  Evaluating new KS density.
  Integration grid: deviation in total charge (<rho> - N_e) =   6.039613E-14
  Pulay mixing of updated and previous charge densities.

  Evaluating partitioned Hartree potential by multipole expansion.
  | Analytical far-field extrapolation by fixed multipoles:
  | Hartree multipole sum: apparent total charge =   0.223028E-06
  Summing up the Hartree potential.
  Time summed over all CPUs for potential: real work        0.028 s, elapsed        0.028 s
  | RMS charge density error from multipole expansion :   0.125519E-02

  Integrating Hamiltonian matrix: batch-based integration.
  Time summed over all CPUs for integration: real work        0.152 s, elapsed        0.152 s

  Updating Kohn-Sham eigenvalues, eigenvectors, occupation numbers, and Fermi level.
  Solving generalized eigenproblem
  Updating Kohn-Sham eigenvalues and eigenfunctions.
  Solving real generalised eigenvalue problem by standard LAPACK (fast)

  Obtaining occupation numbers and chemical potential using ELSI.
  | Chemical potential (Fermi level):    -7.55722022eV
  Highest occupied state (VBM) at     -7.55722022 eV
  | Occupation number:      1.00000000

  Lowest unoccupied state (CBM) at    -7.55722022 eV
  | Occupation number:      1.00000000

  Overall HOMO-LUMO gap:      0.00000000 eV.
  This system has fractional occupation numbers. Thus, it is a degenerate system
  within the approximate finite broadening function (occupation_type)
  applied to determine the occupation numbers.
  This may not be harmful. However, for some systems (free atoms), a different, non-degenerate
  ground state might exist by using a smaller broadening (see keyword occupation_type).

  Total energy components:
  | Sum of eigenvalues            :         -82.39696033 Ha       -2242.13536927 eV
  | XC energy correction          :         -16.65005524 Ha        -453.07105519 eV
  | XC potential correction       :          21.39374721 Ha         582.15348119 eV
  | Free-atom electrostatic energy:         -72.53296081 Ha       -1973.72228545 eV
  | Hartree energy correction     :           0.02568781 Ha           0.69900084 eV
  | Entropy correction            :          -0.00103668 Ha          -0.02820948 eV
  | ---------------------------
  | Total energy                  :        -150.16054137 Ha       -4086.07622788 eV
  | Total energy, T -> 0          :        -150.16157805 Ha       -4086.10443735 eV  <-- do not rely on this value for anything but (periodic) metals
  | Electronic free energy        :        -150.16261473 Ha       -4086.13264683 eV

  Derived energy quantities:
  | Kinetic energy                :         149.30863072 Ha        4062.89455970 eV
  | Electrostatic energy          :        -282.81911684 Ha       -7695.89973239 eV
  | Energy correction for multipole
  | error in Hartree potential    :          -0.00043771 Ha          -0.01191059 eV
  | Sum of eigenvalues per atom                           :       -1121.06768463 eV
  | Total energy (T->0) per atom                          :       -2043.05221868 eV  <-- do not rely on this value for anything but (periodic) metals
  | Electronic free energy per atom                       :       -2043.06632342 eV

  Self-consistency convergence accuracy:
  | Change of charge density      :  0.2054E-02
  | Change of sum of eigenvalues  :  0.1417E+00 eV
  | Change of total energy        :  0.4909E-04 eV

  End self-consistency iteration #     7       :  max(cpu_time)    wall_clock(cpu1)
  | Time for this iteration                    :        0.313 s           0.313 s
  | Charge density update                      :        0.125 s           0.125 s
  | Density mixing                             :        0.004 s           0.004 s
  | Hartree multipole update                   :        0.002 s           0.002 s
  | Hartree multipole summation                :        0.027 s           0.028 s
  | Integration                                :        0.153 s           0.152 s
  | Solution of K.-S. eqns.                    :        0.001 s           0.002 s
  | Total energy evaluation                    :        0.000 s           0.000 s

  Partial memory accounting:
  | Current value for overall tracked memory usage on task 0  :           0.110 MB
  | Peak value for overall tracked memory usage on task 0     :           0.509 MB after allocating gradient_basis_wave
  | Largest tracked array allocation on task 0 so far         :           0.300 MB  when allocating gradient_basis_wave
  Note:  These values currently only include a subset of arrays which are explicitly tracked.
  The "true" memory usage will be greater.
------------------------------------------------------------

------------------------------------------------------------
          Begin self-consistency iteration #    8

  Date     :  20190508, Time     :  151852.785
------------------------------------------------------------
  Evaluating new KS density.
  Integration grid: deviation in total charge (<rho> - N_e) =   1.065814E-13
  Pulay mixing of updated and previous charge densities.

  Evaluating partitioned Hartree potential by multipole expansion.
  | Analytical far-field extrapolation by fixed multipoles:
  | Hartree multipole sum: apparent total charge =   0.223028E-06
  Summing up the Hartree potential.
  Time summed over all CPUs for potential: real work        0.027 s, elapsed        0.027 s
  | RMS charge density error from multipole expansion :   0.125519E-02

  Integrating Hamiltonian matrix: batch-based integration.
  Time summed over all CPUs for integration: real work        0.174 s, elapsed        0.174 s

  Updating Kohn-Sham eigenvalues, eigenvectors, occupation numbers, and Fermi level.
  Solving generalized eigenproblem
  Updating Kohn-Sham eigenvalues and eigenfunctions.
  Solving real generalised eigenvalue problem by standard LAPACK (fast)

  Obtaining occupation numbers and chemical potential using ELSI.
  | Chemical potential (Fermi level):    -7.55722051eV
  Highest occupied state (VBM) at     -7.55722051 eV
  | Occupation number:      1.00000000

  Lowest unoccupied state (CBM) at    -7.55722051 eV
  | Occupation number:      1.00000000

  Overall HOMO-LUMO gap:      0.00000000 eV.
  This system has fractional occupation numbers. Thus, it is a degenerate system
  within the approximate finite broadening function (occupation_type)
  applied to determine the occupation numbers.
  This may not be harmful. However, for some systems (free atoms), a different, non-degenerate
  ground state might exist by using a smaller broadening (see keyword occupation_type).

  Total energy components:
  | Sum of eigenvalues            :         -82.39696054 Ha       -2242.13537494 eV
  | XC energy correction          :         -16.65005521 Ha        -453.07105427 eV
  | XC potential correction       :          21.39374717 Ha         582.15348002 eV
  | Free-atom electrostatic energy:         -72.53296081 Ha       -1973.72228545 eV
  | Hartree energy correction     :           0.02568803 Ha           0.69900677 eV
  | Entropy correction            :          -0.00103668 Ha          -0.02820948 eV
  | ---------------------------
  | Total energy                  :        -150.16054137 Ha       -4086.07622787 eV
  | Total energy, T -> 0          :        -150.16157805 Ha       -4086.10443735 eV  <-- do not rely on this value for anything but (periodic) metals
  | Electronic free energy        :        -150.16261473 Ha       -4086.13264683 eV

  Derived energy quantities:
  | Kinetic energy                :         149.30863045 Ha        4062.89455239 eV
  | Electrostatic energy          :        -282.81911661 Ha       -7695.89972599 eV
  | Energy correction for multipole
  | error in Hartree potential    :          -0.00043771 Ha          -0.01191060 eV
  | Sum of eigenvalues per atom                           :       -1121.06768747 eV
  | Total energy (T->0) per atom                          :       -2043.05221868 eV  <-- do not rely on this value for anything but (periodic) metals
  | Electronic free energy per atom                       :       -2043.06632342 eV

  Self-consistency convergence accuracy:
  | Change of charge density      :  0.5723E-04
  | Change of sum of eigenvalues  : -0.5668E-05 eV
  | Change of total energy        :  0.3171E-10 eV

  End self-consistency iteration #     8       :  max(cpu_time)    wall_clock(cpu1)
  | Time for this iteration                    :        0.323 s           0.323 s
  | Charge density update                      :        0.112 s           0.112 s
  | Density mixing                             :        0.005 s           0.005 s
  | Hartree multipole update                   :        0.002 s           0.002 s
  | Hartree multipole summation                :        0.027 s           0.028 s
  | Integration                                :        0.174 s           0.174 s
  | Solution of K.-S. eqns.                    :        0.002 s           0.002 s
  | Total energy evaluation                    :        0.000 s           0.000 s

  Partial memory accounting:
  | Current value for overall tracked memory usage on task 0  :           0.110 MB
  | Peak value for overall tracked memory usage on task 0     :           0.509 MB after allocating gradient_basis_wave
  | Largest tracked array allocation on task 0 so far         :           0.300 MB  when allocating gradient_basis_wave
  Note:  These values currently only include a subset of arrays which are explicitly tracked.
  The "true" memory usage will be greater.
------------------------------------------------------------

------------------------------------------------------------
          Begin self-consistency iteration #    9

  Date     :  20190508, Time     :  151853.108
------------------------------------------------------------
  Evaluating new KS density.
  Integration grid: deviation in total charge (<rho> - N_e) =  -1.243450E-14
  Pulay mixing of updated and previous charge densities.

  Evaluating partitioned Hartree potential by multipole expansion.
  | Analytical far-field extrapolation by fixed multipoles:
  | Hartree multipole sum: apparent total charge =   0.223177E-06
  Summing up the Hartree potential.
  Time summed over all CPUs for potential: real work        0.027 s, elapsed        0.027 s
  | RMS charge density error from multipole expansion :   0.125507E-02

  Integrating Hamiltonian matrix: batch-based integration.
  Time summed over all CPUs for integration: real work        0.152 s, elapsed        0.152 s

  Updating Kohn-Sham eigenvalues, eigenvectors, occupation numbers, and Fermi level.
  Solving generalized eigenproblem
  Updating Kohn-Sham eigenvalues and eigenfunctions.
  Solving real generalised eigenvalue problem by standard LAPACK (fast)

  Obtaining occupation numbers and chemical potential using ELSI.
  | Chemical potential (Fermi level):    -7.55740415eV
  Highest occupied state (VBM) at     -7.55740415 eV
  | Occupation number:      1.00000004

  Lowest unoccupied state (CBM) at    -7.55740414 eV
  | Occupation number:      0.99999996

  Overall HOMO-LUMO gap:      0.00000000 eV.
  This system has fractional occupation numbers. Thus, it is a degenerate system
  within the approximate finite broadening function (occupation_type)
  applied to determine the occupation numbers.
  This may not be harmful. However, for some systems (free atoms), a different, non-degenerate
  ground state might exist by using a smaller broadening (see keyword occupation_type).

  Total energy components:
  | Sum of eigenvalues            :         -82.39702636 Ha       -2242.13716590 eV
  | XC energy correction          :         -16.65004271 Ha        -453.07071415 eV
  | XC potential correction       :          21.39373038 Ha         582.15302327 eV
  | Free-atom electrostatic energy:         -72.53296081 Ha       -1973.72228545 eV
  | Hartree energy correction     :           0.02575813 Ha           0.70091442 eV
  | Entropy correction            :          -0.00103668 Ha          -0.02820948 eV
  | ---------------------------
  | Total energy                  :        -150.16054137 Ha       -4086.07622781 eV
  | Total energy, T -> 0          :        -150.16157804 Ha       -4086.10443729 eV  <-- do not rely on this value for anything but (periodic) metals
  | Electronic free energy        :        -150.16261472 Ha       -4086.13264677 eV

  Derived energy quantities:
  | Kinetic energy                :         149.30873276 Ha        4062.89733629 eV
  | Electrostatic energy          :        -282.81923141 Ha       -7695.90284995 eV
  | Energy correction for multipole
  | error in Hartree potential    :          -0.00043739 Ha          -0.01190186 eV
  | Sum of eigenvalues per atom                           :       -1121.06858295 eV
  | Total energy (T->0) per atom                          :       -2043.05221865 eV  <-- do not rely on this value for anything but (periodic) metals
  | Electronic free energy per atom                       :       -2043.06632339 eV

  Self-consistency convergence accuracy:
  | Change of charge density      :  0.5720E-04
  | Change of sum of eigenvalues  : -0.1791E-02 eV
  | Change of total energy        :  0.6070E-07 eV

  End self-consistency iteration #     9       :  max(cpu_time)    wall_clock(cpu1)
  | Time for this iteration                    :        0.313 s           0.313 s
  | Charge density update                      :        0.124 s           0.124 s
  | Density mixing                             :        0.005 s           0.005 s
  | Hartree multipole update                   :        0.002 s           0.002 s
  | Hartree multipole summation                :        0.027 s           0.028 s
  | Integration                                :        0.153 s           0.152 s
  | Solution of K.-S. eqns.                    :        0.001 s           0.002 s
  | Total energy evaluation                    :        0.000 s           0.000 s

  Partial memory accounting:
  | Current value for overall tracked memory usage on task 0  :           0.110 MB
  | Peak value for overall tracked memory usage on task 0     :           0.509 MB after allocating gradient_basis_wave
  | Largest tracked array allocation on task 0 so far         :           0.300 MB  when allocating gradient_basis_wave
  Note:  These values currently only include a subset of arrays which are explicitly tracked.
  The "true" memory usage will be greater.
------------------------------------------------------------

------------------------------------------------------------
          Begin self-consistency iteration #   10

  Date     :  20190508, Time     :  151853.421
------------------------------------------------------------
  Evaluating new KS density.
  Integration grid: deviation in total charge (<rho> - N_e) =  -2.842171E-14
  Pulay mixing of updated and previous charge densities.

  Evaluating partitioned Hartree potential by multipole expansion.
  | Analytical far-field extrapolation by fixed multipoles:
  | Hartree multipole sum: apparent total charge =   0.223179E-06
  Summing up the Hartree potential.
  Time summed over all CPUs for potential: real work        0.027 s, elapsed        0.027 s
  | RMS charge density error from multipole expansion :   0.125507E-02

  Integrating Hamiltonian matrix: batch-based integration.
  Time summed over all CPUs for integration: real work        0.169 s, elapsed        0.169 s

  Updating Kohn-Sham eigenvalues, eigenvectors, occupation numbers, and Fermi level.
  Solving generalized eigenproblem
  Updating Kohn-Sham eigenvalues and eigenfunctions.
  Solving real generalised eigenvalue problem by standard LAPACK (fast)

  Obtaining occupation numbers and chemical potential using ELSI.
  | Chemical potential (Fermi level):    -7.55741380eV
  Highest occupied state (VBM) at     -7.55741380 eV
  | Occupation number:      1.00000012

  Lowest unoccupied state (CBM) at    -7.55741379 eV
  | Occupation number:      0.99999988

  Overall HOMO-LUMO gap:      0.00000001 eV.
  This system has fractional occupation numbers. Thus, it is a degenerate system
  within the approximate finite broadening function (occupation_type)
  applied to determine the occupation numbers.
  This may not be harmful. However, for some systems (free atoms), a different, non-degenerate
  ground state might exist by using a smaller broadening (see keyword occupation_type).

  Total energy components:
  | Sum of eigenvalues            :         -82.39703290 Ha       -2242.13734386 eV
  | XC energy correction          :         -16.65004210 Ha        -453.07069739 eV
  | XC potential correction       :          21.39372956 Ha         582.15300095 eV
  | Free-atom electrostatic energy:         -72.53296081 Ha       -1973.72228545 eV
  | Hartree energy correction     :           0.02576488 Ha           0.70109794 eV
  | Entropy correction            :          -0.00103668 Ha          -0.02820948 eV
  | ---------------------------
  | Total energy                  :        -150.16054137 Ha       -4086.07622781 eV
  | Total energy, T -> 0          :        -150.16157804 Ha       -4086.10443729 eV  <-- do not rely on this value for anything but (periodic) metals
  | Electronic free energy        :        -150.16261472 Ha       -4086.13264677 eV

  Derived energy quantities:
  | Kinetic energy                :         149.30873140 Ha        4062.89729945 eV
  | Electrostatic energy          :        -282.81923067 Ha       -7695.90282988 eV
  | Energy correction for multipole
  | error in Hartree potential    :          -0.00043738 Ha          -0.01190176 eV
  | Sum of eigenvalues per atom                           :       -1121.06867193 eV
  | Total energy (T->0) per atom                          :       -2043.05221865 eV  <-- do not rely on this value for anything but (periodic) metals
  | Electronic free energy per atom                       :       -2043.06632339 eV

  Self-consistency convergence accuracy:
  | Change of charge density      :  0.1832E-05
  | Change of sum of eigenvalues  : -0.1780E-03 eV
  | Change of total energy        :  0.1137E-09 eV

  End self-consistency iteration #    10       :  max(cpu_time)    wall_clock(cpu1)
  | Time for this iteration                    :        0.316 s           0.316 s
  | Charge density update                      :        0.111 s           0.112 s
  | Density mixing                             :        0.005 s           0.004 s
  | Hartree multipole update                   :        0.002 s           0.002 s
  | Hartree multipole summation                :        0.027 s           0.028 s
  | Integration                                :        0.169 s           0.169 s
  | Solution of K.-S. eqns.                    :        0.001 s           0.001 s
  | Total energy evaluation                    :        0.000 s           0.000 s

  Partial memory accounting:
  | Current value for overall tracked memory usage on task 0  :           0.110 MB
  | Peak value for overall tracked memory usage on task 0     :           0.509 MB after allocating gradient_basis_wave
  | Largest tracked array allocation on task 0 so far         :           0.300 MB  when allocating gradient_basis_wave
  Note:  These values currently only include a subset of arrays which are explicitly tracked.
  The "true" memory usage will be greater.
------------------------------------------------------------

------------------------------------------------------------
          Begin self-consistency iteration #   11

  Date     :  20190508, Time     :  151853.737
------------------------------------------------------------
  Evaluating new KS density.
  Integration grid: deviation in total charge (<rho> - N_e) =  -1.065814E-14
  Pulay mixing of updated and previous charge densities.

  Evaluating partitioned Hartree potential by multipole expansion.
  | Analytical far-field extrapolation by fixed multipoles:
  | Hartree multipole sum: apparent total charge =   0.223176E-06
  Summing up the Hartree potential.
  Time summed over all CPUs for potential: real work        0.031 s, elapsed        0.031 s
  | RMS charge density error from multipole expansion :   0.125508E-02

  Integrating Hamiltonian matrix: batch-based integration.
  Time summed over all CPUs for integration: real work        0.167 s, elapsed        0.167 s

  Updating Kohn-Sham eigenvalues, eigenvectors, occupation numbers, and Fermi level.
  Solving generalized eigenproblem
  Updating Kohn-Sham eigenvalues and eigenfunctions.
  Solving real generalised eigenvalue problem by standard LAPACK (fast)

  Obtaining occupation numbers and chemical potential using ELSI.
  | Chemical potential (Fermi level):    -7.55741317eV
  Highest occupied state (VBM) at     -7.55741318 eV
  | Occupation number:      1.00000028

  Lowest unoccupied state (CBM) at    -7.55741316 eV
  | Occupation number:      0.99999972

  Overall HOMO-LUMO gap:      0.00000002 eV.
  This system has fractional occupation numbers. Thus, it is a degenerate system
  within the approximate finite broadening function (occupation_type)
  applied to determine the occupation numbers.
  This may not be harmful. However, for some systems (free atoms), a different, non-degenerate
  ground state might exist by using a smaller broadening (see keyword occupation_type).

  Total energy components:
  | Sum of eigenvalues            :         -82.39703421 Ha       -2242.13737946 eV
  | XC energy correction          :         -16.65004116 Ha        -453.07067202 eV
  | XC potential correction       :          21.39372838 Ha         582.15296892 eV
  | Free-atom electrostatic energy:         -72.53296081 Ha       -1973.72228545 eV
  | Hartree energy correction     :           0.02576643 Ha           0.70114020 eV
  | Entropy correction            :          -0.00103668 Ha          -0.02820948 eV
  | ---------------------------
  | Total energy                  :        -150.16054137 Ha       -4086.07622782 eV
  | Total energy, T -> 0          :        -150.16157804 Ha       -4086.10443730 eV  <-- do not rely on this value for anything but (periodic) metals
  | Electronic free energy        :        -150.16261472 Ha       -4086.13264678 eV

  Derived energy quantities:
  | Kinetic energy                :         149.30871532 Ha        4062.89686178 eV
  | Electrostatic energy          :        -282.81921552 Ha       -7695.90241758 eV
  | Energy correction for multipole
  | error in Hartree potential    :          -0.00043739 Ha          -0.01190211 eV
  | Sum of eigenvalues per atom                           :       -1121.06868973 eV
  | Total energy (T->0) per atom                          :       -2043.05221865 eV  <-- do not rely on this value for anything but (periodic) metals
  | Electronic free energy per atom                       :       -2043.06632339 eV

  Self-consistency convergence accuracy:
  | Change of charge density      :  0.1856E-05
  | Change of sum of eigenvalues  : -0.3560E-04 eV
  | Change of total energy        : -0.2540E-08 eV

  End self-consistency iteration #    11       :  max(cpu_time)    wall_clock(cpu1)
  | Time for this iteration                    :        0.334 s           0.335 s
  | Charge density update                      :        0.126 s           0.127 s
  | Density mixing                             :        0.005 s           0.005 s
  | Hartree multipole update                   :        0.003 s           0.002 s
  | Hartree multipole summation                :        0.031 s           0.032 s
  | Integration                                :        0.168 s           0.167 s
  | Solution of K.-S. eqns.                    :        0.001 s           0.002 s
  | Total energy evaluation                    :        0.000 s           0.000 s

  Partial memory accounting:
  | Current value for overall tracked memory usage on task 0  :           0.110 MB
  | Peak value for overall tracked memory usage on task 0     :           0.509 MB after allocating gradient_basis_wave
  | Largest tracked array allocation on task 0 so far         :           0.300 MB  when allocating gradient_basis_wave
  Note:  These values currently only include a subset of arrays which are explicitly tracked.
  The "true" memory usage will be greater.
------------------------------------------------------------

------------------------------------------------------------
          Begin self-consistency iteration #   12

  Date     :  20190508, Time     :  151854.072
------------------------------------------------------------
  Evaluating new KS density.
  Integration grid: deviation in total charge (<rho> - N_e) =  -4.973799E-14
  Pulay mixing of updated and previous charge densities.

  Evaluating partitioned Hartree potential by multipole expansion.
  | Analytical far-field extrapolation by fixed multipoles:
  | Hartree multipole sum: apparent total charge =   0.223175E-06
  Summing up the Hartree potential.
  Time summed over all CPUs for potential: real work        0.032 s, elapsed        0.032 s
  | RMS charge density error from multipole expansion :   0.125508E-02

  Integrating Hamiltonian matrix: batch-based integration.
  Time summed over all CPUs for integration: real work        0.176 s, elapsed        0.176 s

  Updating Kohn-Sham eigenvalues, eigenvectors, occupation numbers, and Fermi level.
  Solving generalized eigenproblem
  Updating Kohn-Sham eigenvalues and eigenfunctions.
  Solving real generalised eigenvalue problem by standard LAPACK (fast)

  Obtaining occupation numbers and chemical potential using ELSI.
  | Chemical potential (Fermi level):    -7.55741051eV
  Highest occupied state (VBM) at     -7.55741051 eV
  | Occupation number:      1.00000000

  Lowest unoccupied state (CBM) at    -7.55741051 eV
  | Occupation number:      1.00000000

  Overall HOMO-LUMO gap:      0.00000000 eV.
  This system has fractional occupation numbers. Thus, it is a degenerate system
  within the approximate finite broadening function (occupation_type)
  applied to determine the occupation numbers.
  This may not be harmful. However, for some systems (free atoms), a different, non-degenerate
  ground state might exist by using a smaller broadening (see keyword occupation_type).

  Total energy components:
  | Sum of eigenvalues            :         -82.39703243 Ha       -2242.13733105 eV
  | XC energy correction          :         -16.65004134 Ha        -453.07067681 eV
  | XC potential correction       :          21.39372862 Ha         582.15297530 eV
  | Free-atom electrostatic energy:         -72.53296081 Ha       -1973.72228545 eV
  | Hartree energy correction     :           0.02576459 Ha           0.70109019 eV
  | Entropy correction            :          -0.00103668 Ha          -0.02820948 eV
  | ---------------------------
  | Total energy                  :        -150.16054137 Ha       -4086.07622782 eV
  | Total energy, T -> 0          :        -150.16157804 Ha       -4086.10443730 eV  <-- do not rely on this value for anything but (periodic) metals
  | Electronic free energy        :        -150.16261472 Ha       -4086.13264678 eV

  Derived energy quantities:
  | Kinetic energy                :         149.30871567 Ha        4062.89687127 eV
  | Electrostatic energy          :        -282.81921570 Ha       -7695.90242228 eV
  | Energy correction for multipole
  | error in Hartree potential    :          -0.00043740 Ha          -0.01190214 eV
  | Sum of eigenvalues per atom                           :       -1121.06866552 eV
  | Total energy (T->0) per atom                          :       -2043.05221865 eV  <-- do not rely on this value for anything but (periodic) metals
  | Electronic free energy per atom                       :       -2043.06632339 eV

  Self-consistency convergence accuracy:
  | Change of charge density      :  0.1778E-06
  | Change of sum of eigenvalues  :  0.4842E-04 eV
  | Change of total energy        :  0.2320E-11 eV

  Writing Kohn-Sham eigenvalues.

  State    Occupation    Eigenvalue [Ha]    Eigenvalue [eV]
      1       2.00000         -18.917796         -514.77941
      2       2.00000         -18.917794         -514.77937
      3       2.00000          -1.024565          -27.87983
      4       2.00000          -0.799974          -21.76839
      5       2.00000          -0.458488          -12.47610
      6       2.00000          -0.401085          -10.91408
      7       2.00000          -0.401085          -10.91408
      8       1.00000          -0.277730           -7.55741
      9       1.00000          -0.277730           -7.55741
     10       0.00000          -0.114417           -3.11344
     11       0.00000           0.098045            2.66795
     12       0.00000           0.131088            3.56709
     13       0.00000           0.143546            3.90609
     14       0.00000           0.143546            3.90609

  Highest occupied state (VBM) at     -7.55741051 eV
  | Occupation number:      1.00000000

  Lowest unoccupied state (CBM) at    -7.55741051 eV
  | Occupation number:      1.00000000

  Overall HOMO-LUMO gap:      0.00000000 eV.
  This system has fractional occupation numbers. Thus, it is a degenerate system
  within the approximate finite broadening function (occupation_type)
  applied to determine the occupation numbers.
  This may not be harmful. However, for some systems (free atoms), a different, non-degenerate
  ground state might exist by using a smaller broadening (see keyword occupation_type).

  Self-consistency cycle converged.

  End self-consistency iteration #    12       :  max(cpu_time)    wall_clock(cpu1)
  | Time for this iteration                    :        0.345 s           0.345 s
  | Charge density update                      :        0.127 s           0.127 s
  | Density mixing                             :        0.005 s           0.006 s
  | Hartree multipole update                   :        0.003 s           0.002 s
  | Hartree multipole summation                :        0.032 s           0.032 s
  | Integration                                :        0.176 s           0.176 s
  | Solution of K.-S. eqns.                    :        0.002 s           0.002 s
  | Total energy evaluation                    :        0.000 s           0.000 s

  Partial memory accounting:
  | Current value for overall tracked memory usage on task 0  :           0.110 MB
  | Peak value for overall tracked memory usage on task 0     :           0.509 MB after allocating gradient_basis_wave
  | Largest tracked array allocation on task 0 so far         :           0.300 MB  when allocating gradient_basis_wave
  Note:  These values currently only include a subset of arrays which are explicitly tracked.
  The "true" memory usage will be greater.
------------------------------------------------------------
  ------------------------------------------------------------
   Computing monopole / dipole moments for complete molecule:
  | Total electronic charge [e]         :          0.160000000000001E+02
  | Total ionic charge [e]              :          0.160000000000000E+02
  | Total charge [e]                    :         -0.106581410364015E-12
  | Total dipole moment [eAng]          :         -0.166198291465735E-13         0.240909331553044E-13        -0.503374046365579E-10
  | Absolute dipole moment              :          0.503374131450588E-10 eAng              /                   0.241743218239907E-09 Debye  .

  Energy and forces in a compact form:
  | Total energy uncorrected      :         -0.408607622781669E+04 eV
  | Total energy corrected        :         -0.408610443729629E+04 eV  <-- do not rely on this value for anything but (periodic) metals
  | Electronic free energy        :         -0.408613264677589E+04 eV

  ------------------------------------ 
  Start decomposition of the XC Energy 
  ------------------------------------ 
  X and C from original XC functional choice 
  Hartree-Fock Energy :          0.000000000 Ha              0.000000000 eV
  X Energy            :        -16.133388215 Ha           -439.011830006 eV
  C Energy            :         -0.516653124 Ha            -14.058846809 eV
  Total XC Energy     :        -16.650041339 Ha           -453.070676815 eV
  ------------------------------------ 
  LDA X and C from self-consistent density 
  X Energy LDA        :        -14.614600086 Ha           -397.683502266 eV
  C Energy LDA        :         -1.102709899 Ha            -30.006263041 eV
  ------------------------------------ 
  End decomposition of the XC Energy 
  ------------------------------------ 

------------------------------------------------------------

------------------------------------------------------------------------------
  Final output of selected total energy values:

  The following output summarizes some interesting total energy values
  at the end of a run (AFTER all relaxation, molecular dynamics, etc.).

  | Total energy of the DFT / Hartree-Fock s.c.f. calculation      :          -4086.076227817 eV
  | Final zero-broadening corrected energy (caution - metals only) :          -4086.104437296 eV
  | For reference only, the value of 1 Hartree used in FHI-aims is :             27.211384500 eV

  Before relying on these values, please be sure to understand exactly which
  total energy value is referred to by a given number. Different objects may
  all carry the same name 'total energy'. Definitions:

  Total energy of the DFT / Hartree-Fock s.c.f. calculation:
  | Note that this energy does not include ANY quantities calculated after the
  | s.c.f. cycle, in particular not ANY RPA, MP2, etc. many-body perturbation terms.

  Final zero-broadening corrected energy:
  | For metallic systems only, a broadening of the occupation numbers at the Fermi
  | level can be extrapolated back to zero broadening by an electron-gas inspired
  | formula. For all systems that are not real metals, this value can be
  | meaningless and should be avoided.

------------------------------------------------------------------------------
  Methods described in the following list of references were used in this FHI-aims run.
  If you publish the results, please make sure to cite these reference if they apply.
  FHI-aims is an academic code, and for our developers (often, Ph.D. students
  and postdocs), scientific credit in the community is essential.
  Thank you for helping us!

  For any use of FHI-aims, please cite:

    Volker Blum, Ralf Gehrke, Felix Hanke, Paula Havu, Ville Havu,
    Xinguo Ren, Karsten Reuter, and Matthias Scheffler
    'Ab initio molecular simulations with numeric atom-centered orbitals'
    Computer Physics Communications 180, 2175-2196 (2009)
    http://dx.doi.org/10.1016/j.cpc.2009.06.022


  For the real-space grid partitioning and parallelization used in this calculation, please cite:

    Ville Havu, Volker Blum, Paula Havu, and Matthias Scheffler,
    'Efficient O(N) integration for all-electron electronic structure calculation'
    'using numerically tabulated basis functions'
    Journal of Computational Physics 228, 8367-8379 (2009).
    http://dx.doi.org/10.1016/j.jcp.2009.08.008

  Of course, there are many other important community references, e.g., those cited in the
  above references. Our list is limited to references that describe implementations in the
  FHI-aims code. The reason is purely practical (length of this list) - please credit others as well.

------------------------------------------------------------
          Leaving FHI-aims.
          Date     :  20190508, Time     :  151854.458

          Computational steps:
          | Number of self-consistency cycles          :           12
          | Number of SCF (re)initializations          :            1

          Detailed time accounting                     :  max(cpu_time)    wall_clock(cpu1)
          | Total time                                 :        4.314 s           4.318 s
          | Preparation time                           :        0.070 s           0.070 s
          | Boundary condition initalization           :        0.000 s           0.000 s
          | Grid partitioning                          :        0.033 s           0.033 s
          | Preloading free-atom quantities on grid    :        0.003 s           0.003 s
          | Free-atom superposition energy             :        0.028 s           0.028 s
          | Total time for integrations                :        2.211 s           2.209 s
          | Total time for solution of K.-S. equations :        0.022 s           0.020 s
          | Total time for density update              :        1.449 s           1.448 s
          | Total time for mixing                      :        0.045 s           0.046 s
          | Total time for Hartree multipole update    :        0.029 s           0.032 s
          | Total time for Hartree multipole sum       :        0.357 s           0.360 s
          | Total time for total energy evaluation     :        0.001 s           0.000 s

 This is a stub MPI_ALLREDUCE call.
 You should not be here. Check your
 setting on the use_mpi variable, or
 link against true MPI-libraries.
