------------------------------------------------------------
          Invoking FHI-aims ...
          Version 171221_1
          Compiled on 2019/05/06 at 14:26:40 on host ffph0xx.

          When using FHI-aims, please cite the following reference:

          Volker Blum, Ralf Gehrke, Felix Hanke, Paula Havu,
          Ville Havu, Xinguo Ren, Karsten Reuter, and Matthias Scheffler,
          'Ab Initio Molecular Simulations with Numeric Atom-Centered Orbitals',
          Computer Physics Communications 180, 2175-2196 (2009)

          For any questions about FHI-aims, please visit the aimsclub website
          with its forums and wiki. Contributions to both the forums and the
          wiki are warmly encouraged - they are for you, and everyone is welcome there.

------------------------------------------------------------



  Date     :  20190509, Time     :  114719.874
  Time zero on CPU 1             :   0.660000000000000E-03  s.
  Internal wall clock time zero  :           326634439.874  s.

  FHI-aims created a unique identifier for this run for later identification
  aims_uuid : 39DF7EAB-0E09-441D-A0F6-F6FC6CD6F551


  Performing system and environment tests:
  *** Environment variable OMP_NUM_THREADS is not set
  *** For performance reasons you might want to set it to 1
  | Stacksize not measured: no C compiler

  Obtaining array dimensions for all initial allocations:
  
  -----------------------------------------------------------------------
  Parsing control.in (first pass over file, find array dimensions only).
  The contents of control.in will be repeated verbatim below
  unless switched off by setting 'verbatim_writeout .false.' .
  in the first line of control.in .
  -----------------------------------------------------------------------
  
  # Sample input file for the relaxation
  # of the H3O+ molecule
  #######################################
    xc  pw-lda
    charge 1.0
    spin none
  
  #######Iteration limit####################
    sc_iter_limit 100
  
  #######Relaxation######################
    #####################relax_geometry trm 1E-3
  
  #######Species#########################
  ################################################################################
  #
  #  FHI-aims code project
  #  VB, Fritz-Haber Institut, 2009
  #
  #  Suggested "light" defaults for H atom (to be pasted into control.in file)
  #  Be sure to double-check any results obtained with these settings for post-processing,
  #  e.g., with the "tight" defaults and larger basis sets.
  #
  ################################################################################
    species        H
  #     global species definitions
      nucleus             1
      mass                1.00794
  #
      l_hartree           4
  #
      cut_pot             3.5  1.5  1.0
      basis_dep_cutoff    1e-4
  #
      radial_base         24 5.0
      radial_multiplier   1
      angular_grids       specified
        division   0.2421   50
        division   0.3822  110
        division   0.4799  194
        division   0.5341  302
  #      division   0.5626  434
  #      division   0.5922  590
  #      division   0.6542  770
  #      division   0.6868 1202
  #      outer_grid  770
        outer_grid  302
  ################################################################################
  #
  #  Definition of "minimal" basis
  #
  ################################################################################
  #     valence basis states
      valence      1  s   1.
  #     ion occupancy
      ion_occ      1  s   0.5
  ################################################################################
  #
  #  Suggested additional basis functions. For production calculations,
  #  uncomment them one after another (the most important basis functions are
  #  listed first).
  #
  #  Basis constructed for dimers: 0.5 A, 0.7 A, 1.0 A, 1.5 A, 2.5 A
  #
  ################################################################################
  #  "First tier" - improvements: -1014.90 meV to -62.69 meV
       hydro 2 s 2.1
       hydro 2 p 3.5
  #  "Second tier" - improvements: -12.89 meV to -1.83 meV
  #     hydro 1 s 0.85
  #     hydro 2 p 3.7
  #     hydro 2 s 1.2
  #     hydro 3 d 7
  #  "Third tier" - improvements: -0.25 meV to -0.12 meV
  #     hydro 4 f 11.2
  #     hydro 3 p 4.8
  #     hydro 4 d 9
  #     hydro 3 s 3.2
  ################################################################################
  #
  #  FHI-aims code project
  #  VB, Fritz-Haber Institut, 2009
  #
  #  Suggested "light" defaults for O atom (to be pasted into control.in file)
  #  Be sure to double-check any results obtained with these settings for post-processing,
  #  e.g., with the "tight" defaults and larger basis sets.
  #
  ################################################################################
    species        O
  #     global species definitions
      nucleus             8
      mass                15.9994
  #
      l_hartree           4
  #
      cut_pot             3.5  1.5  1.0
      basis_dep_cutoff    1e-4
  #
      radial_base         36 5.0
      radial_multiplier   1
       angular_grids specified
        division   0.2659   50
        division   0.4451  110
        division   0.6052  194
        division   0.7543  302
  #      division   0.8014  434
  #      division   0.8507  590
  #      division   0.8762  770
  #      division   0.9023  974
  #      division   1.2339 1202
  #      outer_grid 974
        outer_grid 302
  ################################################################################
  #
  #  Definition of "minimal" basis
  #
  ################################################################################
  #     valence basis states
      valence      2  s   2.
      valence      2  p   4.
  #     ion occupancy
      ion_occ      2  s   1.
      ion_occ      2  p   3.
  ################################################################################
  #
  #  Suggested additional basis functions. For production calculations,
  #  uncomment them one after another (the most important basis functions are
  #  listed first).
  #
  #  Constructed for dimers: 1.0 A, 1.208 A, 1.5 A, 2.0 A, 3.0 A
  #
  ################################################################################
  #  "First tier" - improvements: -699.05 meV to -159.38 meV
       hydro 2 p 1.8
       hydro 3 d 7.6
       hydro 3 s 6.4
  #  "Second tier" - improvements: -49.91 meV to -5.39 meV
  #     hydro 4 f 11.6
  #     hydro 3 p 6.2
  #     hydro 3 d 5.6
  #     hydro 5 g 17.6
  #     hydro 1 s 0.75
  #  "Third tier" - improvements: -2.83 meV to -0.50 meV
  #     ionic 2 p auto
  #     hydro 4 f 10.8
  #     hydro 4 d 4.7
  #     hydro 2 s 6.8
  #  "Fourth tier" - improvements: -0.40 meV to -0.12 meV
  #     hydro 3 p 5
  #     hydro 3 s 3.3
  #     hydro 5 g 15.6
  #     hydro 4 f 17.6
  #     hydro 4 d 14
  # Further basis functions - -0.08 meV and below
  #     hydro 3 s 2.1
  #     hydro 4 d 11.6
  #     hydro 3 p 16
  #     hydro 2 s 17.2
  /afs/ictp.it/public/shared/smr2475/fhi-aims/species_defaults/light/01_H_default
  compute_forces .true.
  final_forces_cleaned .true.
  output dipole
  
  -----------------------------------------------------------------------
  Completed first pass over input file control.in .
  -----------------------------------------------------------------------
  
  
  -----------------------------------------------------------------------
  Parsing geometry.in (first pass over file, find array dimensions only).
  The contents of geometry.in will be repeated verbatim below
  unless switched off by setting 'verbatim_writeout .false.' .
  in the first line of geometry.in .
  -----------------------------------------------------------------------
  
  #
  # temporary structure-file for finite-difference calculation of forces
  # displacement  -0.0020 of \# atom     3 direction     1
  #
  atom    0.00000000    0.00001836    0.19077151   O
  atom    0.82425584   -0.47587261    0.47423563   H
  atom   -0.82425584   -0.47587261    0.47423563   H
  atom   -0.00000000    0.94972688    0.47446636   H
  
  -----------------------------------------------------------------------
  Completed first pass over input file geometry.in .
  -----------------------------------------------------------------------
  

  Basic array size parameters:
  | Number of species                 :        2
  | Number of atoms                   :        4
  | Max. basis fn. angular momentum   :        2
  | Max. atomic/ionic basis occupied n:        2
  | Max. number of basis fn. types    :        2
  | Max. radial fns per species/type  :        3
  | Max. logarithmic grid size        :     1301
  | Max. radial integration grid size :       36
  | Max. angular integration grid size:      302
  | Max. angular grid division number :        8
  | Radial grid for Hartree potential :     1301
  | Number of spin channels           :        1

------------------------------------------------------------
          Reading file control.in.
------------------------------------------------------------
  XC: Using Perdew-Wang parametrisation of Ceperley-Alder LDA.
  Charged system requested: Charge =   0.100000E+01.
  Spin treatment: No spin polarisation.
  Maximum number of s.-c. iterations  :   100

  Reading configuration options for species H                   .
  | Found nuclear charge :   1.0000
  | Found atomic mass :    1.0079400000000001      amu
  | Found l_max for Hartree potential  :   4
  | Found cutoff potl. onset [A], width [A], scale factor :    3.50000    1.50000    1.00000
  | Threshold for basis-dependent cutoff potential is   0.100000E-03
  | Found data for basic radial integration grid :    24 points, outermost radius =    5.000 A
  | Found multiplier for basic radial grid :   1
  | Found angular grid specification: user-specified.
  | Specified grid contains     5 separate shells.
  | Check grid settings after all constraints further below.
  | Found free-atom valence shell :  1 s   1.000
  | No ionic wave fns used. Skipping ion_occ.
  | Found hydrogenic basis function :  2 s   2.100
  | Found hydrogenic basis function :  2 p   3.500
  Species H                   : Missing cutoff potential type.
  Defaulting to exp(1/x)/(1-x)^2 type cutoff potential.
  Species H : No 'logarithmic' tag. Using default grid for free atom:
  | Default logarithmic grid data [bohr] : 0.1000E-03 0.1000E+03 0.1012E+01
  Species H : On-site basis accuracy parameter (for Gram-Schmidt orthonormalisation) not specified.
  Using default value basis_acc =  0.1000000E-03.
  Species H                   : Using default innermost maximum threshold i_radial=  2 for radial functions.
  Species H                   : Default cutoff onset for free atom density etc. : 0.35000000E+01 AA.
  Species H                   : Basic radial grid will be enhanced according to radial_multiplier =   1, to contain    24 grid points.

  Reading configuration options for species O                   .
  | Found nuclear charge :   8.0000
  | Found atomic mass :    15.999400000000000      amu
  | Found l_max for Hartree potential  :   4
  | Found cutoff potl. onset [A], width [A], scale factor :    3.50000    1.50000    1.00000
  | Threshold for basis-dependent cutoff potential is   0.100000E-03
  | Found data for basic radial integration grid :    36 points, outermost radius =    5.000 A
  | Found multiplier for basic radial grid :   1
  | Found angular grid specification: user-specified.
  | Specified grid contains     5 separate shells.
  | Check grid settings after all constraints further below.
  | Found free-atom valence shell :  2 s   2.000
  | Found free-atom valence shell :  2 p   4.000
  | No ionic wave fns used. Skipping ion_occ.
  | No ionic wave fns used. Skipping ion_occ.
  | Found hydrogenic basis function :  2 p   1.800
  | Found hydrogenic basis function :  3 d   7.600
  | Found hydrogenic basis function :  3 s   6.400
  Species O                   : Missing cutoff potential type.
  Defaulting to exp(1/x)/(1-x)^2 type cutoff potential.
  Species O : No 'logarithmic' tag. Using default grid for free atom:
  | Default logarithmic grid data [bohr] : 0.1000E-03 0.1000E+03 0.1012E+01
  Species O : On-site basis accuracy parameter (for Gram-Schmidt orthonormalisation) not specified.
  Using default value basis_acc =  0.1000000E-03.
  Species O                   : Using default innermost maximum threshold i_radial=  2 for radial functions.
  Species O                   : Default cutoff onset for free atom density etc. : 0.35000000E+01 AA.
  Species O                   : Basic radial grid will be enhanced according to radial_multiplier =   1, to contain    36 grid points.
  Forces will be computed.
  Cleaning forces before final output.
  Dipole moment will be written out.

  Finished reading input file 'control.in'. Consistency checks are next.

  MPI_IN_PLACE appears to work with this MPI implementation.
  | Keeping use_mpi_in_place .true. (see manual).
  Target number of points in a grid batch is not set. Defaulting to  100
  Method for grid partitioning is not set. Defaulting to 'maxmin' partitioning.
  Batch size limit is not set. Defaulting to    200
  By default, will store active basis functions for each batch.
  If in need of memory, prune_basis_once .false. can be used to disable this option.
  communication_type for Hartree potential was not specified.
  Defaulting to calc_hartree .
 * Attention: 
 * You may want to set distributed_spline_storage to .true. in order to save memory.
 * This doesn't harm performance and is perfectly ok unless:
 * - you get error messages in postprocessing (about missing atoms in get_rho_multipole_spl)
 * - you need full spline storage in hirshfeld_analysis
  Defaulting to Pulay charge density mixer.
  Pulay mixer: Number of relevant iterations not set.
  Defaulting to    8 iterations.
  Pulay mixer: Number of initial linear mixing iterations not set.
  Defaulting to    0 iterations.
  Work space size for distributed Hartree potential not set.
  Defaulting to   0.200000E+03 MB.
  Mixing parameter for charge density mixing has not been set.
  Using default: charge_mix_param =     0.0500.
  The mixing parameter will be adjusted in iteration number     2 of the first full s.c.f. cycle only.
  Algorithm-dependent basis array size parameters:
  | n_max_pulay                         :        8
 * Notice: The s.c.f. convergence criterion sc_accuracy_rho was not provided.
 * We used to stop in this case, and ask the user to provide reasonable
 * scf convergence criteria. However, this led some users to employ criteria
 * that led to extremely long run times, e.g., for simple relaxation.
 * We now preset a default value for sc_accuracy_rho if it is not set.
 * You may still wish to check if this setting is too tight or too loose for your needs.
 * Based on n_atoms, FHI-aims chose sc_accuracy_rho =  0.100000E-05 .
  Presetting      1001 iterations before the initial mixing cycle
  is restarted anyway using the sc_init_iter criterion / keyword.
  Presetting a factor      1.000 between actual scf density residual
  and density convergence criterion sc_accuracy_rho below which sc_init_iter
  takes no effect.
 * No s.c.f. convergence criteria (sc_accuracy_*) were provided in control.in.
 * The run will proceed with a reasonable default guess, but please check whether.
 * the s.c.f. cycles seem to take too much or too little time.
  Geometry relaxation not requested: no relaxation will be performed.
  Force calculation: scf convergence accuracy of forces not set.
  Defaulting to 'sc_accuracy_forces not_checked'.
  Handling of forces: Unphysical translation and rotation will be removed from forces.
  No accuracy limit for integral partition fn. given. Defaulting to  0.1000E-14.
  No threshold value for u(r) in integrations given. Defaulting to  0.1000E-05.
  No occupation type (smearing scheme) given. Defaulting to Gaussian broadening, width =  0.1000E-01 eV.
  The width will be adjusted in iteration number     2 of the first full s.c.f. cycle only.
  S.C.F. convergence parameters will be adjusted in iteration number     2 of the first full s.c.f. cycle only.
  No accuracy for occupation numbers given. Defaulting to  0.1000E-12.
  No threshold value for occupation numbers given. Defaulting to  0.0000E+00.
  No accuracy for fermi level given. Defaulting to  0.1000E-19.
  Maximum # of iterations to find E_F not set. Defaulting to  200.
  Preferred method for the eigenvalue solver ('KS_method') not specified in 'control.in'.
  Defaulting to serial version, 'lapack_fast'.
  Will not use alltoall communication since running on < 1024 CPUs.
  Threshold for basis singularities not set.
  Default threshold for basis singularities:  0.1000E-04
  partition_type (choice of integration weights) for integrals was not specified.
  | Using a version of the partition function of Stratmann and coworkers ('stratmann_smoother').
  | At each grid point, the set of atoms used to build the partition table is smoothly restricted to
  | only those atoms whose free-atom density would be non-zero at that grid point.
  Partitioning for Hartree potential was not defined. Using partition_type for integrals.
  | Adjusted default value of keyword multip_moments_threshold to:       0.10000000E-11
  | This value may affect high angular momentum components of the Hartree potential in periodic systems.
  No q(lm)/r^(l+1) cutoff set for long-range Hartree potential.
  | Using default value of  0.100000E-09 .
  | Verify using the multipole_threshold keyword.
  Defaulting to new monopole extrapolation.
  Density update method: automatic selection selected.
------------------------------------------------------------


------------------------------------------------------------
          Reading geometry description geometry.in.
------------------------------------------------------------
 * Warning: Initial charge and total charge of the system are inconsistent.
 * Selected charge in control.in:     1.0000* Sum of initial charges in geometry.in:     0.0000
 * Warning! You did not set the 'relativistic' flag in input file 'control.in'.
 * Since you are not attempting to treat any elements beyond Ca(Z=20), FHI-aims
 * will default to 'relativistic none'.
 * You must ensure that this is really what you want!!
 * For example, DO NOT compute total-energy differences between results from
 * different settings of the 'relativistic' flag.
  Input structure read successfully.
  The structure contains        4 atoms,  and a total of         10.000 electrons.

  Input geometry:
  | No unit cell requested.
  | Atomic structure:
  |       Atom                x [A]            y [A]            z [A]
  |    1: Species O             0.00000000        0.00001836        0.19077151
  |    2: Species H             0.82425584       -0.47587261        0.47423563
  |    3: Species H            -0.82425584       -0.47587261        0.47423563
  |    4: Species H            -0.00000000        0.94972688        0.47446636
  |

  | The smallest distance between any two atoms is         0.99117559 AA.
  |
  | The first atom of this pair is atom number                      1 .
  | The second atom of this pair is atom number                     4 .

  Number of empty states per atom not set in control.in - providing a guess from actual geometry.
  | Total number of empty states used during s.c.f. cycle:        8
  If you use a very high smearing, use empty_states (per atom!) in control.in to increase this value.

  Structure-dependent array size parameters: 
  | Maximum number of distinct radial functions  :        9
  | Maximum number of basis functions            :       29
  | Number of Kohn-Sham states (occupied + empty):       13
------------------------------------------------------------

------------------------------------------------------------
          Preparing all fixed parts of the calculation.
------------------------------------------------------------
  Determining machine precision:
     2.2250738585072014E-308
  Setting up grids for atomic and cluster calculations.

  Creating wave function, potential, and density for free atoms.

  Species: H

  List of occupied orbitals and eigenvalues:
    n    l              occ      energy [Ha]    energy [eV]
    1    0           1.0000        -0.232375        -6.3233


  Species: O

  List of occupied orbitals and eigenvalues:
    n    l              occ      energy [Ha]    energy [eV]
    1    0           2.0000       -18.757744      -510.4242
    2    0           2.0000        -0.870917       -23.6989
    2    1           4.0000        -0.337950        -9.1961

  Creating fixed part of basis set: Ionic, confined, hydrogenic.

  H                    hydrogenic:

  List of hydrogenic basis orbitals: 
    n    l      effective z      eigenvalue [eV]  inner max. [A]     outer max. [A]     outer radius [A]   
    2    0         2.100000       -14.9728           0.193243           1.317208           4.583499
    2    1         3.500000       -41.6669           0.602369           0.602369           3.723403


  O                    hydrogenic:

  List of hydrogenic basis orbitals: 
    n    l      effective z      eigenvalue [eV]  inner max. [A]     outer max. [A]     outer radius [A]   
    2    1         1.800000       -10.9749           1.164242           1.164242           4.578029
    3    2         7.600000       -87.3180           0.624125           0.624125           3.251020
    3    0         6.400000       -61.9207           0.061167           1.081902           4.001998


  Adding cutoff potential to free-atom effective potential.
  Creating atomic-like basis functions for current effective potential.

  Species H                   :

  List of atomic basis orbitals and eigenvalues:
    n    l      energy [Ha]    energy [eV]    outer radius [A]
    1    0        -0.232375        -6.3233       4.527807


  Species O                   :

  List of atomic basis orbitals and eigenvalues:
    n    l      energy [Ha]    energy [eV]    outer radius [A]
    1    0       -18.757744      -510.4242       1.433179
    2    0        -0.870917       -23.6989       4.413171
    2    1        -0.337950        -9.1961       4.522403

  Assembling full basis from fixed parts.
  | Species H :   atomic orbital   1 s accepted.
  | Species H :    hydro orbital   2 s accepted.
  | Species H :    hydro orbital   2 p accepted.
  | Species O :   atomic orbital   1 s accepted.
  | Species O :    hydro orbital   3 s accepted.
  | Species O :   atomic orbital   2 s accepted.
  | Species O :   atomic orbital   2 p accepted.
  | Species O :    hydro orbital   2 p accepted.
  | Species O :    hydro orbital   3 d accepted.

  Basis size parameters after reduction:
  | Total number of radial functions:        9
  | Total number of basis functions :       29

  Per-task memory consumption for arrays in subroutine allocate_ext:
  |           2.249476MB.
  Testing on-site integration grid accuracy.
  |  Species  Function  <phi|h_atom|phi> (log., in eV)  <phi|h_atom|phi> (rad., in eV)
           1        1                 -6.3245358373                 -6.3232436907
           1        2                 14.1326137532                 14.1384481100
           1        3                 25.3627025200                 25.3628451197
           2        4               -510.4241781769               -510.4240769412
           2        5                 14.9072942218                 14.9072945276
           2        6                -21.2004736467                -21.2005650544
           2        7                 -9.1962086499                 -9.1963509828
           2        8                  8.1896755011                  8.1702200086
           2        9                 45.7920584945                 45.7920228528

  Preparing densities etc. for the partition functions (integrals / Hartree potential).

  Preparations completed.
  max(cpu_time)          :      0.051 s.
  Wall clock time (cpu1) :      0.050 s.
------------------------------------------------------------

------------------------------------------------------------
          Begin self-consistency loop: Initialization.

          Date     :  20190509, Time     :  114719.926
------------------------------------------------------------

  Initializing index lists of integration centers etc. from given atomic structure:
  | Number of centers in hartree potential         :         4
  | Number of centers in hartree multipole         :         4
  | Number of centers in electron density summation:         4
  | Number of centers in basis integrals           :         4
  | Number of centers in integrals                 :         4
  | Number of centers in hamiltonian               :         4
  Partitioning the integration grid into batches with maxmin method.
  | Maximal weight for a single point:     1.000
  | Minimal weight for a single point:     0.000
  | Number of batches:      256
  | Maximal batch size:      83
  | Minimal batch size:      78
  | Average batch size:      80.719
  | Standard deviation of batch sizes:       1.484
  Initializing partition tables, free-atom densities, potentials, etc. across the integration grid (initialize_grid_storage).
  | initialize_grid_storage: Actual outermost partition radius vs. multipole_radius_free
  | (-- VB: in principle, multipole_radius_free should be larger, hence this output)
  | Species        1: Confinement radius =              4.999999999999999 AA, multipole_radius_free =              5.054417573612229 AA.
  | Species        1: outer_partition_radius set to              5.054417573612229 AA .
  | Species        2: Confinement radius =              4.999999999999999 AA, multipole_radius_free =              5.048384829883283 AA.
  | Species        2: outer_partition_radius set to              5.048384829883283 AA .
  | Original list of interatomic distances with           4 x          4 entries is created.
  | Net number of integration points:    20664
  | of which are non-zero points    :    18385
  Renormalizing the initial density to the exact electron count on the 3D integration grid.
  | Initial density: Formal number of electrons (from input files) :      11.0000000000
  | Integrated number of electrons on 3D grid     :      10.9999404835
  | Charge integration error                      :      -0.0000595165
  | Normalization factor for density and gradient :       1.0000054106
  Obtaining max. number of non-zero basis functions in each batch (get_n_compute_maxes).
  | Maximal number of non-zero basis functions:       29 in task     0
  Selecting the method for density update.
  Loop over occupied states selected for charge density update.
  Allocating        0.003 MB for KS_eigenvector
  Integrating Hamiltonian matrix: batch-based integration.
  Time summed over all CPUs for integration: real work        0.029 s, elapsed        0.029 s
  Integrating overlap matrix.
  Time summed over all CPUs for integration: real work        0.015 s, elapsed        0.015 s

  Updating Kohn-Sham eigenvalues, eigenvectors, occupation numbers, and Fermi level.
  Solving generalized eigenproblem
  Updating Kohn-Sham eigenvalues and eigenfunctions.
  Transforming overlap matrix and checking for singularities.
  Overlap matrix is nonsingular:
  | Lowest eigenvalue:  0.147758E-01
  Solving real generalised eigenvalue problem by standard LAPACK (fast)

  Obtaining occupation numbers and chemical potential using ELSI.
  | Chemical potential (Fermi level):    -6.76918881eV
  Writing Kohn-Sham eigenvalues.

  State    Occupation    Eigenvalue [Ha]    Eigenvalue [eV]
      1       2.00000         -18.911907         -514.61918
      2       2.00000          -1.151473          -31.33317
      3       2.00000          -0.671695          -18.27776
      4       2.00000          -0.671194          -18.26413
      5       2.00000          -0.507807          -13.81813
      6       0.00000          -0.090322           -2.45779
      7       0.00000           0.002354            0.06406
      8       0.00000           0.002888            0.07858
      9       0.00000           0.199621            5.43195
     10       0.00000           0.264397            7.19461
     11       0.00000           0.264773            7.20484
     12       0.00000           0.467155           12.71192
     13       0.00000           0.669096           18.20704

  Highest occupied state (VBM) at    -13.81813436 eV
  | Occupation number:      2.00000000

  Lowest unoccupied state (CBM) at    -2.45779195 eV
  | Occupation number:      0.00000000

  Overall HOMO-LUMO gap:     11.36034241 eV.
  Calculating total energy contributions from superposition of free atom densities.

  Total energy components:
  | Sum of eigenvalues            :         -43.82815386 Ha       -1192.62474672 eV
  | XC energy correction          :          -8.86391595 Ha        -241.19942497 eV
  | XC potential correction       :          11.67171518 Ha         317.60352966 eV
  | Free-atom electrostatic energy:         -35.29293086 Ha        -960.36951164 eV
  | Hartree energy correction     :          -0.00000000 Ha          -0.00000000 eV
  | Entropy correction            :          -0.00000000 Ha          -0.00000000 eV
  | ---------------------------
  | Total energy                  :         -76.31328548 Ha       -2076.59015366 eV
  | Total energy, T -> 0          :         -76.31328548 Ha       -2076.59015366 eV  <-- do not rely on this value for anything but (periodic) metals
  | Electronic free energy        :         -76.31328548 Ha       -2076.59015366 eV

  Derived energy quantities:
  | Kinetic energy                :          75.66449951 Ha        2058.93578907 eV
  | Electrostatic energy          :        -143.11386904 Ha       -3894.32651777 eV
  | Energy correction for multipole
  | error in Hartree potential    :           0.00000000 Ha           0.00000000 eV
  | Sum of eigenvalues per atom                           :        -298.15618668 eV
  | Total energy (T->0) per atom                          :        -519.14753842 eV  <-- do not rely on this value for anything but (periodic) metals
  | Electronic free energy per atom                       :        -519.14753842 eV
  Initialize hartree_potential_storage
  Max. number of atoms included in rho_multipole:            4

  End scf initialization - timings             :  max(cpu_time)    wall_clock(cpu1)
  | Time for scf. initialization               :        0.083 s           0.084 s
  | Boundary condition initialization          :        0.000 s           0.000 s
  | Integration                                :        0.043 s           0.044 s
  | Solution of K.-S. eqns.                    :        0.001 s           0.000 s
  | Grid partitioning                          :        0.014 s           0.014 s
  | Preloading free-atom quantities on grid    :        0.001 s           0.001 s
  | Free-atom superposition energy             :        0.012 s           0.012 s
  | Total energy evaluation                    :        0.000 s           0.000 s

  Partial memory accounting:
  | Current value for overall tracked memory usage on task 0  :           0.017 MB
  | Peak value for overall tracked memory usage on task 0     :           0.075 MB after allocating wave
  | Largest tracked array allocation on task 0 so far         :           0.019 MB  when allocating H_times_psi
  Note:  These values currently only include a subset of arrays which are explicitly tracked.
  The "true" memory usage will be greater.
------------------------------------------------------------

------------------------------------------------------------
          Begin self-consistency iteration #    1

  Date     :  20190509, Time     :  114720.010
------------------------------------------------------------
  Evaluating new KS density.
  Integration grid: deviation in total charge (<rho> - N_e) =  -5.329071E-15
  Pulay mixing of updated and previous charge densities.

  Evaluating partitioned Hartree potential by multipole expansion.
  | Analytical far-field extrapolation by fixed multipoles:
  | Hartree multipole sum: apparent total charge =   0.499206E-01
  Summing up the Hartree potential.
  Time summed over all CPUs for potential: real work        0.016 s, elapsed        0.016 s
  | RMS charge density error from multipole expansion :   0.486888E-03

  Integrating Hamiltonian matrix: batch-based integration.
  Time summed over all CPUs for integration: real work        0.029 s, elapsed        0.029 s

  Updating Kohn-Sham eigenvalues, eigenvectors, occupation numbers, and Fermi level.
  Solving generalized eigenproblem
  Updating Kohn-Sham eigenvalues and eigenfunctions.
  Solving real generalised eigenvalue problem by standard LAPACK (fast)

  Obtaining occupation numbers and chemical potential using ELSI.
  | Chemical potential (Fermi level):    -6.98690088eV
  Writing Kohn-Sham eigenvalues.

  State    Occupation    Eigenvalue [Ha]    Eigenvalue [eV]
      1       2.00000         -18.902333         -514.35866
      2       2.00000          -1.155611          -31.44576
      3       2.00000          -0.677116          -18.42526
      4       2.00000          -0.676626          -18.41192
      5       2.00000          -0.510440          -13.88979
      6       0.00000          -0.100623           -2.73808
      7       0.00000          -0.007283           -0.19817
      8       0.00000          -0.006738           -0.18336
      9       0.00000           0.192495            5.23805
     10       0.00000           0.254528            6.92607
     11       0.00000           0.254910            6.93645
     12       0.00000           0.456522           12.42261
     13       0.00000           0.660231           17.96581

  Highest occupied state (VBM) at    -13.88978959 eV
  | Occupation number:      2.00000000

  Lowest unoccupied state (CBM) at    -2.73808461 eV
  | Occupation number:      0.00000000

  Overall HOMO-LUMO gap:     11.15170498 eV.

  Total energy components:
  | Sum of eigenvalues            :         -43.84425146 Ha       -1193.06278454 eV
  | XC energy correction          :          -8.86708011 Ha        -241.28552622 eV
  | XC potential correction       :          11.67610500 Ha         317.72298266 eV
  | Free-atom electrostatic energy:         -35.29293086 Ha        -960.36951164 eV
  | Hartree energy correction     :           0.03268119 Ha           0.88930042 eV
  | Entropy correction            :          -0.00000000 Ha          -0.00000000 eV
  | ---------------------------
  | Total energy                  :         -76.29547623 Ha       -2076.10553932 eV
  | Total energy, T -> 0          :         -76.29547623 Ha       -2076.10553932 eV  <-- do not rely on this value for anything but (periodic) metals
  | Electronic free energy        :         -76.29547623 Ha       -2076.10553932 eV

  Derived energy quantities:
  | Kinetic energy                :          75.75377016 Ha        2061.36496707 eV
  | Electrostatic energy          :        -143.18216628 Ha       -3896.18498016 eV
  | Energy correction for multipole
  | error in Hartree potential    :           0.00050803 Ha           0.01382428 eV
  | Sum of eigenvalues per atom                           :        -298.26569613 eV
  | Total energy (T->0) per atom                          :        -519.02638483 eV  <-- do not rely on this value for anything but (periodic) metals
  | Electronic free energy per atom                       :        -519.02638483 eV

  Self-consistency convergence accuracy:
  | Change of charge density      :  0.2575E+00
  | Change of sum of eigenvalues  : -0.4380E+00 eV
  | Change of total energy        :  0.4846E+00 eV

  End self-consistency iteration #     1       :  max(cpu_time)    wall_clock(cpu1)
  | Time for this iteration                    :        0.060 s           0.060 s
  | Charge density update                      :        0.013 s           0.013 s
  | Density mixing                             :        0.000 s           0.000 s
  | Hartree multipole update                   :        0.002 s           0.001 s
  | Hartree multipole summation                :        0.017 s           0.017 s
  | Integration                                :        0.028 s           0.029 s
  | Solution of K.-S. eqns.                    :        0.000 s           0.000 s
  | Total energy evaluation                    :        0.000 s           0.000 s

  Partial memory accounting:
  | Current value for overall tracked memory usage on task 0  :           0.017 MB
  | Peak value for overall tracked memory usage on task 0     :           0.082 MB after allocating wave
  | Largest tracked array allocation on task 0 so far         :           0.019 MB  when allocating H_times_psi
  Note:  These values currently only include a subset of arrays which are explicitly tracked.
  The "true" memory usage will be greater.
------------------------------------------------------------

------------------------------------------------------------
          Begin self-consistency iteration #    2

  Date     :  20190509, Time     :  114720.070
------------------------------------------------------------
  Evaluating new KS density.
  Integration grid: deviation in total charge (<rho> - N_e) =  -1.776357E-14
  Pulay mixing of updated and previous charge densities.

  Evaluating partitioned Hartree potential by multipole expansion.
  | Analytical far-field extrapolation by fixed multipoles:
  | Hartree multipole sum: apparent total charge =   0.436654E+00
  Summing up the Hartree potential.
  Time summed over all CPUs for potential: real work        0.017 s, elapsed        0.017 s
  | RMS charge density error from multipole expansion :   0.419881E-02

  Integrating Hamiltonian matrix: batch-based integration.
  Time summed over all CPUs for integration: real work        0.028 s, elapsed        0.028 s

  Updating Kohn-Sham eigenvalues, eigenvectors, occupation numbers, and Fermi level.
  Solving generalized eigenproblem
  Updating Kohn-Sham eigenvalues and eigenfunctions.
  Solving real generalised eigenvalue problem by standard LAPACK (fast)

  Obtaining occupation numbers and chemical potential using ELSI.
  | Chemical potential (Fermi level):    -8.70720353eV
  Highest occupied state (VBM) at    -14.67707047 eV
  | Occupation number:      2.00000000

  Lowest unoccupied state (CBM) at    -4.87690750 eV
  | Occupation number:      0.00000000

  Overall HOMO-LUMO gap:      9.80016297 eV.

  Checking to see if s.c.f. parameters should be adjusted.
  The system likely has a gap. Increased the default Pulay mixing parameter (charge_mix_param). Value:   0.200000 .
  Kept the default occupation width. Value:   0.010000 eV.

  Total energy components:
  | Sum of eigenvalues            :         -44.06804065 Ha       -1199.15239826 eV
  | XC energy correction          :          -8.89051931 Ha        -241.92333924 eV
  | XC potential correction       :          11.70861890 Ha         318.60773098 eV
  | Free-atom electrostatic energy:         -35.29293086 Ha        -960.36951164 eV
  | Hartree energy correction     :           0.33448943 Ha           9.10192047 eV
  | Entropy correction            :          -0.00000000 Ha          -0.00000000 eV
  | ---------------------------
  | Total energy                  :         -76.20838248 Ha       -2073.73559768 eV
  | Total energy, T -> 0          :         -76.20838248 Ha       -2073.73559768 eV  <-- do not rely on this value for anything but (periodic) metals
  | Electronic free energy        :         -76.20838248 Ha       -2073.73559768 eV

  Derived energy quantities:
  | Kinetic energy                :          76.28767274 Ha        2075.89319565 eV
  | Electrostatic energy          :        -143.60553591 Ha       -3907.70545409 eV
  | Energy correction for multipole
  | error in Hartree potential    :           0.00419328 Ha           0.11410495 eV
  | Sum of eigenvalues per atom                           :        -299.78809957 eV
  | Total energy (T->0) per atom                          :        -518.43389942 eV  <-- do not rely on this value for anything but (periodic) metals
  | Electronic free energy per atom                       :        -518.43389942 eV

  Self-consistency convergence accuracy:
  | Change of charge density      :  0.2326E+00
  | Change of sum of eigenvalues  : -0.6090E+01 eV
  | Change of total energy        :  0.2370E+01 eV

  End self-consistency iteration #     2       :  max(cpu_time)    wall_clock(cpu1)
  | Time for this iteration                    :        0.058 s           0.058 s
  | Charge density update                      :        0.011 s           0.011 s
  | Density mixing                             :        0.000 s           0.001 s
  | Hartree multipole update                   :        0.001 s           0.001 s
  | Hartree multipole summation                :        0.017 s           0.017 s
  | Integration                                :        0.028 s           0.028 s
  | Solution of K.-S. eqns.                    :        0.000 s           0.000 s
  | Total energy evaluation                    :        0.000 s           0.000 s

  Partial memory accounting:
  | Current value for overall tracked memory usage on task 0  :           0.018 MB
  | Peak value for overall tracked memory usage on task 0     :           0.083 MB after allocating wave
  | Largest tracked array allocation on task 0 so far         :           0.019 MB  when allocating H_times_psi
  Note:  These values currently only include a subset of arrays which are explicitly tracked.
  The "true" memory usage will be greater.
------------------------------------------------------------

------------------------------------------------------------
          Begin self-consistency iteration #    3

  Date     :  20190509, Time     :  114720.128
------------------------------------------------------------
  Evaluating new KS density.
  Integration grid: deviation in total charge (<rho> - N_e) =  -1.776357E-15
  Pulay mixing of updated and previous charge densities.

  Evaluating partitioned Hartree potential by multipole expansion.
  | Analytical far-field extrapolation by fixed multipoles:
  | Hartree multipole sum: apparent total charge =   0.853438E+00
  Summing up the Hartree potential.
  Time summed over all CPUs for potential: real work        0.017 s, elapsed        0.017 s
  | RMS charge density error from multipole expansion :   0.783769E-02

  Integrating Hamiltonian matrix: batch-based integration.
  Time summed over all CPUs for integration: real work        0.029 s, elapsed        0.029 s

  Updating Kohn-Sham eigenvalues, eigenvectors, occupation numbers, and Fermi level.
  Solving generalized eigenproblem
  Updating Kohn-Sham eigenvalues and eigenfunctions.
  Solving real generalised eigenvalue problem by standard LAPACK (fast)

  Obtaining occupation numbers and chemical potential using ELSI.
  | Chemical potential (Fermi level):   -11.61539367eV
  Highest occupied state (VBM) at    -18.16256494 eV
  | Occupation number:      2.00000000

  Lowest unoccupied state (CBM) at    -7.58878604 eV
  | Occupation number:      0.00000000

  Overall HOMO-LUMO gap:     10.57377890 eV.

  Total energy components:
  | Sum of eigenvalues            :         -45.45346730 Ha       -1236.85177562 eV
  | XC energy correction          :          -8.79606762 Ha        -239.35317801 eV
  | XC potential correction       :          11.58528309 Ha         315.25159260 eV
  | Free-atom electrostatic energy:         -35.29293086 Ha        -960.36951164 eV
  | Hartree energy correction     :           1.78096607 Ha          48.46255259 eV
  | Entropy correction            :          -0.00000000 Ha          -0.00000000 eV
  | ---------------------------
  | Total energy                  :         -76.17621662 Ha       -2072.86032007 eV
  | Total energy, T -> 0          :         -76.17621662 Ha       -2072.86032007 eV  <-- do not rely on this value for anything but (periodic) metals
  | Electronic free energy        :         -76.17621662 Ha       -2072.86032007 eV

  Derived energy quantities:
  | Kinetic energy                :          75.82184302 Ha        2063.21732385 eV
  | Electrostatic energy          :        -143.20199202 Ha       -3896.72446590 eV
  | Energy correction for multipole
  | error in Hartree potential    :           0.00575577 Ha           0.15662251 eV
  | Sum of eigenvalues per atom                           :        -309.21294390 eV
  | Total energy (T->0) per atom                          :        -518.21508002 eV  <-- do not rely on this value for anything but (periodic) metals
  | Electronic free energy per atom                       :        -518.21508002 eV

  Self-consistency convergence accuracy:
  | Change of charge density      :  0.1082E+00
  | Change of sum of eigenvalues  : -0.3770E+02 eV
  | Change of total energy        :  0.8753E+00 eV

  End self-consistency iteration #     3       :  max(cpu_time)    wall_clock(cpu1)
  | Time for this iteration                    :        0.059 s           0.060 s
  | Charge density update                      :        0.011 s           0.012 s
  | Density mixing                             :        0.000 s           0.000 s
  | Hartree multipole update                   :        0.001 s           0.001 s
  | Hartree multipole summation                :        0.017 s           0.017 s
  | Integration                                :        0.029 s           0.029 s
  | Solution of K.-S. eqns.                    :        0.000 s           0.001 s
  | Total energy evaluation                    :        0.000 s           0.000 s

  Partial memory accounting:
  | Current value for overall tracked memory usage on task 0  :           0.018 MB
  | Peak value for overall tracked memory usage on task 0     :           0.083 MB after allocating wave
  | Largest tracked array allocation on task 0 so far         :           0.019 MB  when allocating H_times_psi
  Note:  These values currently only include a subset of arrays which are explicitly tracked.
  The "true" memory usage will be greater.
------------------------------------------------------------

------------------------------------------------------------
          Begin self-consistency iteration #    4

  Date     :  20190509, Time     :  114720.188
------------------------------------------------------------
  Evaluating new KS density.
  Integration grid: deviation in total charge (<rho> - N_e) =  -7.105427E-15
  Pulay mixing of updated and previous charge densities.

  Evaluating partitioned Hartree potential by multipole expansion.
  | Analytical far-field extrapolation by fixed multipoles:
  | Hartree multipole sum: apparent total charge =   0.100714E+01
  Summing up the Hartree potential.
  Time summed over all CPUs for potential: real work        0.017 s, elapsed        0.017 s
  | RMS charge density error from multipole expansion :   0.926589E-02

  Integrating Hamiltonian matrix: batch-based integration.
  Time summed over all CPUs for integration: real work        0.028 s, elapsed        0.028 s

  Updating Kohn-Sham eigenvalues, eigenvectors, occupation numbers, and Fermi level.
  Solving generalized eigenproblem
  Updating Kohn-Sham eigenvalues and eigenfunctions.
  Solving real generalised eigenvalue problem by standard LAPACK (fast)

  Obtaining occupation numbers and chemical potential using ELSI.
  | Chemical potential (Fermi level):   -12.33376940eV
  Highest occupied state (VBM) at    -18.93280157 eV
  | Occupation number:      2.00000000

  Lowest unoccupied state (CBM) at    -8.35304690 eV
  | Occupation number:      0.00000000

  Overall HOMO-LUMO gap:     10.57975468 eV.

  Total energy components:
  | Sum of eigenvalues            :         -45.74117160 Ha       -1244.68060802 eV
  | XC energy correction          :          -8.79219487 Ha        -239.24779533 eV
  | XC potential correction       :          11.58063927 Ha         315.12522783 eV
  | Free-atom electrostatic energy:         -35.29293086 Ha        -960.36951164 eV
  | Hartree energy correction     :           2.07177706 Ha          56.37592206 eV
  | Entropy correction            :          -0.00000000 Ha          -0.00000000 eV
  | ---------------------------
  | Total energy                  :         -76.17388101 Ha       -2072.79676509 eV
  | Total energy, T -> 0          :         -76.17388101 Ha       -2072.79676509 eV  <-- do not rely on this value for anything but (periodic) metals
  | Electronic free energy        :         -76.17388101 Ha       -2072.79676509 eV

  Derived energy quantities:
  | Kinetic energy                :          75.80369333 Ha        2062.72344563 eV
  | Electrostatic energy          :        -143.18537946 Ha       -3896.27241539 eV
  | Energy correction for multipole
  | error in Hartree potential    :           0.00667241 Ha           0.18156561 eV
  | Sum of eigenvalues per atom                           :        -311.17015200 eV
  | Total energy (T->0) per atom                          :        -518.19919127 eV  <-- do not rely on this value for anything but (periodic) metals
  | Electronic free energy per atom                       :        -518.19919127 eV

  Self-consistency convergence accuracy:
  | Change of charge density      :  0.4485E-01
  | Change of sum of eigenvalues  : -0.7829E+01 eV
  | Change of total energy        :  0.6355E-01 eV

  End self-consistency iteration #     4       :  max(cpu_time)    wall_clock(cpu1)
  | Time for this iteration                    :        0.058 s           0.058 s
  | Charge density update                      :        0.011 s           0.011 s
  | Density mixing                             :        0.000 s           0.001 s
  | Hartree multipole update                   :        0.001 s           0.001 s
  | Hartree multipole summation                :        0.017 s           0.017 s
  | Integration                                :        0.028 s           0.028 s
  | Solution of K.-S. eqns.                    :        0.000 s           0.000 s
  | Total energy evaluation                    :        0.000 s           0.000 s

  Partial memory accounting:
  | Current value for overall tracked memory usage on task 0  :           0.019 MB
  | Peak value for overall tracked memory usage on task 0     :           0.083 MB after allocating wave
  | Largest tracked array allocation on task 0 so far         :           0.019 MB  when allocating H_times_psi
  Note:  These values currently only include a subset of arrays which are explicitly tracked.
  The "true" memory usage will be greater.
------------------------------------------------------------

------------------------------------------------------------
          Begin self-consistency iteration #    5

  Date     :  20190509, Time     :  114720.246
------------------------------------------------------------
  Evaluating new KS density.
  Integration grid: deviation in total charge (<rho> - N_e) =   7.105427E-15
  Pulay mixing of updated and previous charge densities.

  Evaluating partitioned Hartree potential by multipole expansion.
  | Analytical far-field extrapolation by fixed multipoles:
  | Hartree multipole sum: apparent total charge =   0.101048E+01
  Summing up the Hartree potential.
  Time summed over all CPUs for potential: real work        0.016 s, elapsed        0.016 s
  | RMS charge density error from multipole expansion :   0.936374E-02

  Integrating Hamiltonian matrix: batch-based integration.
  Time summed over all CPUs for integration: real work        0.030 s, elapsed        0.030 s

  Updating Kohn-Sham eigenvalues, eigenvectors, occupation numbers, and Fermi level.
  Solving generalized eigenproblem
  Updating Kohn-Sham eigenvalues and eigenfunctions.
  Solving real generalised eigenvalue problem by standard LAPACK (fast)

  Obtaining occupation numbers and chemical potential using ELSI.
  | Chemical potential (Fermi level):   -12.17259664eV
  Highest occupied state (VBM) at    -18.71443908 eV
  | Occupation number:      2.00000000

  Lowest unoccupied state (CBM) at    -8.23184984 eV
  | Occupation number:      0.00000000

  Overall HOMO-LUMO gap:     10.48258924 eV.

  Total energy components:
  | Sum of eigenvalues            :         -45.64667104 Ha       -1242.10911680 eV
  | XC energy correction          :          -8.80578238 Ha        -239.61753026 eV
  | XC potential correction       :          11.59854011 Ha         315.61233452 eV
  | Free-atom electrostatic energy:         -35.29293086 Ha        -960.36951164 eV
  | Hartree energy correction     :           1.97306335 Ha          53.68978543 eV
  | Entropy correction            :          -0.00000000 Ha          -0.00000000 eV
  | ---------------------------
  | Total energy                  :         -76.17378082 Ha       -2072.79403876 eV
  | Total energy, T -> 0          :         -76.17378082 Ha       -2072.79403876 eV  <-- do not rely on this value for anything but (periodic) metals
  | Electronic free energy        :         -76.17378082 Ha       -2072.79403876 eV

  Derived energy quantities:
  | Kinetic energy                :          75.85141460 Ha        2064.02200752 eV
  | Electrostatic energy          :        -143.21941304 Ha       -3897.19851601 eV
  | Energy correction for multipole
  | error in Hartree potential    :           0.00646908 Ha           0.17603258 eV
  | Sum of eigenvalues per atom                           :        -310.52727920 eV
  | Total energy (T->0) per atom                          :        -518.19850969 eV  <-- do not rely on this value for anything but (periodic) metals
  | Electronic free energy per atom                       :        -518.19850969 eV

  Self-consistency convergence accuracy:
  | Change of charge density      :  0.1071E-01
  | Change of sum of eigenvalues  :  0.2571E+01 eV
  | Change of total energy        :  0.2726E-02 eV

  End self-consistency iteration #     5       :  max(cpu_time)    wall_clock(cpu1)
  | Time for this iteration                    :        0.060 s           0.061 s
  | Charge density update                      :        0.011 s           0.011 s
  | Density mixing                             :        0.001 s           0.000 s
  | Hartree multipole update                   :        0.001 s           0.002 s
  | Hartree multipole summation                :        0.017 s           0.016 s
  | Integration                                :        0.030 s           0.030 s
  | Solution of K.-S. eqns.                    :        0.000 s           0.001 s
  | Total energy evaluation                    :        0.000 s           0.000 s

  Partial memory accounting:
  | Current value for overall tracked memory usage on task 0  :           0.019 MB
  | Peak value for overall tracked memory usage on task 0     :           0.083 MB after allocating wave
  | Largest tracked array allocation on task 0 so far         :           0.019 MB  when allocating H_times_psi
  Note:  These values currently only include a subset of arrays which are explicitly tracked.
  The "true" memory usage will be greater.
------------------------------------------------------------

------------------------------------------------------------
          Begin self-consistency iteration #    6

  Date     :  20190509, Time     :  114720.307
------------------------------------------------------------
  Evaluating new KS density.
  Integration grid: deviation in total charge (<rho> - N_e) =   8.881784E-15
  Pulay mixing of updated and previous charge densities.

  Evaluating partitioned Hartree potential by multipole expansion.
  | Analytical far-field extrapolation by fixed multipoles:
  | Hartree multipole sum: apparent total charge =   0.100143E+01
  Summing up the Hartree potential.
  Time summed over all CPUs for potential: real work        0.016 s, elapsed        0.016 s
  | RMS charge density error from multipole expansion :   0.927041E-02

  Integrating Hamiltonian matrix: batch-based integration.
  Time summed over all CPUs for integration: real work        0.028 s, elapsed        0.028 s

  Updating Kohn-Sham eigenvalues, eigenvectors, occupation numbers, and Fermi level.
  Solving generalized eigenproblem
  Updating Kohn-Sham eigenvalues and eigenfunctions.
  Solving real generalised eigenvalue problem by standard LAPACK (fast)

  Obtaining occupation numbers and chemical potential using ELSI.
  | Chemical potential (Fermi level):   -12.20214426eV
  Highest occupied state (VBM) at    -18.76457053 eV
  | Occupation number:      2.00000000

  Lowest unoccupied state (CBM) at    -8.23223408 eV
  | Occupation number:      0.00000000

  Overall HOMO-LUMO gap:     10.53233645 eV.

  Total energy components:
  | Sum of eigenvalues            :         -45.67211131 Ha       -1242.80138181 eV
  | XC energy correction          :          -8.80058800 Ha        -239.47618388 eV
  | XC potential correction       :          11.59165685 Ha         315.42503158 eV
  | Free-atom electrostatic energy:         -35.29293086 Ha        -960.36951164 eV
  | Hartree energy correction     :           2.00021585 Ha          54.42864250 eV
  | Entropy correction            :          -0.00000000 Ha          -0.00000000 eV
  | ---------------------------
  | Total energy                  :         -76.17375747 Ha       -2072.79340324 eV
  | Total energy, T -> 0          :         -76.17375747 Ha       -2072.79340324 eV  <-- do not rely on this value for anything but (periodic) metals
  | Electronic free energy        :         -76.17375747 Ha       -2072.79340324 eV

  Derived energy quantities:
  | Kinetic energy                :          75.82096583 Ha        2063.19345423 eV
  | Electrostatic energy          :        -143.19413529 Ha       -3896.51067359 eV
  | Energy correction for multipole
  | error in Hartree potential    :           0.00636344 Ha           0.17315799 eV
  | Sum of eigenvalues per atom                           :        -310.70034545 eV
  | Total energy (T->0) per atom                          :        -518.19835081 eV  <-- do not rely on this value for anything but (periodic) metals
  | Electronic free energy per atom                       :        -518.19835081 eV

  Self-consistency convergence accuracy:
  | Change of charge density      :  0.7275E-02
  | Change of sum of eigenvalues  : -0.6923E+00 eV
  | Change of total energy        :  0.6355E-03 eV

  End self-consistency iteration #     6       :  max(cpu_time)    wall_clock(cpu1)
  | Time for this iteration                    :        0.060 s           0.059 s
  | Charge density update                      :        0.012 s           0.012 s
  | Density mixing                             :        0.001 s           0.001 s
  | Hartree multipole update                   :        0.001 s           0.001 s
  | Hartree multipole summation                :        0.017 s           0.017 s
  | Integration                                :        0.028 s           0.028 s
  | Solution of K.-S. eqns.                    :        0.000 s           0.000 s
  | Total energy evaluation                    :        0.000 s           0.000 s

  Partial memory accounting:
  | Current value for overall tracked memory usage on task 0  :           0.019 MB
  | Peak value for overall tracked memory usage on task 0     :           0.084 MB after allocating wave
  | Largest tracked array allocation on task 0 so far         :           0.019 MB  when allocating H_times_psi
  Note:  These values currently only include a subset of arrays which are explicitly tracked.
  The "true" memory usage will be greater.
------------------------------------------------------------

------------------------------------------------------------
          Begin self-consistency iteration #    7

  Date     :  20190509, Time     :  114720.366
------------------------------------------------------------
  Evaluating new KS density.
  Integration grid: deviation in total charge (<rho> - N_e) =   1.776357E-14
  Pulay mixing of updated and previous charge densities.

  Evaluating partitioned Hartree potential by multipole expansion.
  | Analytical far-field extrapolation by fixed multipoles:
  | Hartree multipole sum: apparent total charge =   0.999106E+00
  Summing up the Hartree potential.
  Time summed over all CPUs for potential: real work        0.016 s, elapsed        0.016 s
  | RMS charge density error from multipole expansion :   0.926421E-02

  Integrating Hamiltonian matrix: batch-based integration.
  Time summed over all CPUs for integration: real work        0.028 s, elapsed        0.028 s

  Updating Kohn-Sham eigenvalues, eigenvectors, occupation numbers, and Fermi level.
  Solving generalized eigenproblem
  Updating Kohn-Sham eigenvalues and eigenfunctions.
  Solving real generalised eigenvalue problem by standard LAPACK (fast)

  Obtaining occupation numbers and chemical potential using ELSI.
  | Chemical potential (Fermi level):   -12.14996670eV
  Highest occupied state (VBM) at    -18.68545812 eV
  | Occupation number:      2.00000000

  Lowest unoccupied state (CBM) at    -8.18830067 eV
  | Occupation number:      0.00000000

  Overall HOMO-LUMO gap:     10.49715745 eV.

  Total energy components:
  | Sum of eigenvalues            :         -45.64175064 Ha       -1241.97522591 eV
  | XC energy correction          :          -8.80412172 Ha        -239.57234135 eV
  | XC potential correction       :          11.59630001 Ha         315.55137827 eV
  | Free-atom electrostatic energy:         -35.29293086 Ha        -960.36951164 eV
  | Hartree energy correction     :           1.96876032 Ha          53.57269412 eV
  | Entropy correction            :          -0.00000000 Ha          -0.00000000 eV
  | ---------------------------
  | Total energy                  :         -76.17374289 Ha       -2072.79300652 eV
  | Total energy, T -> 0          :         -76.17374289 Ha       -2072.79300652 eV  <-- do not rely on this value for anything but (periodic) metals
  | Electronic free energy        :         -76.17374289 Ha       -2072.79300652 eV

  Derived energy quantities:
  | Kinetic energy                :          75.83063114 Ha        2063.45646089 eV
  | Electrostatic energy          :        -143.20025231 Ha       -3896.67712605 eV
  | Energy correction for multipole
  | error in Hartree potential    :           0.00625302 Ha           0.17015324 eV
  | Sum of eigenvalues per atom                           :        -310.49380648 eV
  | Total energy (T->0) per atom                          :        -518.19825163 eV  <-- do not rely on this value for anything but (periodic) metals
  | Electronic free energy per atom                       :        -518.19825163 eV

  Self-consistency convergence accuracy:
  | Change of charge density      :  0.3736E-02
  | Change of sum of eigenvalues  :  0.8262E+00 eV
  | Change of total energy        :  0.3967E-03 eV

  End self-consistency iteration #     7       :  max(cpu_time)    wall_clock(cpu1)
  | Time for this iteration                    :        0.058 s           0.058 s
  | Charge density update                      :        0.011 s           0.012 s
  | Density mixing                             :        0.001 s           0.000 s
  | Hartree multipole update                   :        0.001 s           0.002 s
  | Hartree multipole summation                :        0.016 s           0.016 s
  | Integration                                :        0.028 s           0.028 s
  | Solution of K.-S. eqns.                    :        0.000 s           0.000 s
  | Total energy evaluation                    :        0.000 s           0.000 s

  Partial memory accounting:
  | Current value for overall tracked memory usage on task 0  :           0.019 MB
  | Peak value for overall tracked memory usage on task 0     :           0.084 MB after allocating wave
  | Largest tracked array allocation on task 0 so far         :           0.019 MB  when allocating H_times_psi
  Note:  These values currently only include a subset of arrays which are explicitly tracked.
  The "true" memory usage will be greater.
------------------------------------------------------------

------------------------------------------------------------
          Begin self-consistency iteration #    8

  Date     :  20190509, Time     :  114720.424
------------------------------------------------------------
  Evaluating new KS density.
  Integration grid: deviation in total charge (<rho> - N_e) =   0.000000E+00
  Pulay mixing of updated and previous charge densities.

  Evaluating partitioned Hartree potential by multipole expansion.
  | Analytical far-field extrapolation by fixed multipoles:
  | Hartree multipole sum: apparent total charge =   0.999324E+00
  Summing up the Hartree potential.
  Time summed over all CPUs for potential: real work        0.017 s, elapsed        0.017 s
  | RMS charge density error from multipole expansion :   0.926737E-02

  Integrating Hamiltonian matrix: batch-based integration.
  Time summed over all CPUs for integration: real work        0.029 s, elapsed        0.029 s

  Updating Kohn-Sham eigenvalues, eigenvectors, occupation numbers, and Fermi level.
  Solving generalized eigenproblem
  Updating Kohn-Sham eigenvalues and eigenfunctions.
  Solving real generalised eigenvalue problem by standard LAPACK (fast)

  Obtaining occupation numbers and chemical potential using ELSI.
  | Chemical potential (Fermi level):   -12.14592246eV
  Highest occupied state (VBM) at    -18.67974540 eV
  | Occupation number:      2.00000000

  Lowest unoccupied state (CBM) at    -8.18532232 eV
  | Occupation number:      0.00000000

  Overall HOMO-LUMO gap:     10.49442308 eV.

  Total energy components:
  | Sum of eigenvalues            :         -45.63963873 Ha       -1241.91775803 eV
  | XC energy correction          :          -8.80445912 Ha        -239.58152240 eV
  | XC potential correction       :          11.59674407 Ha         315.56346179 eV
  | Free-atom electrostatic energy:         -35.29293086 Ha        -960.36951164 eV
  | Hartree energy correction     :           1.96654194 Ha          53.51232882 eV
  | Entropy correction            :          -0.00000000 Ha          -0.00000000 eV
  | ---------------------------
  | Total energy                  :         -76.17374270 Ha       -2072.79300145 eV
  | Total energy, T -> 0          :         -76.17374270 Ha       -2072.79300145 eV  <-- do not rely on this value for anything but (periodic) metals
  | Electronic free energy        :         -76.17374270 Ha       -2072.79300145 eV

  Derived energy quantities:
  | Kinetic energy                :          75.83109059 Ha        2063.46896321 eV
  | Electrostatic energy          :        -143.20037418 Ha       -3896.68044226 eV
  | Energy correction for multipole
  | error in Hartree potential    :           0.00623852 Ha           0.16975874 eV
  | Sum of eigenvalues per atom                           :        -310.47943951 eV
  | Total energy (T->0) per atom                          :        -518.19825036 eV  <-- do not rely on this value for anything but (periodic) metals
  | Electronic free energy per atom                       :        -518.19825036 eV

  Self-consistency convergence accuracy:
  | Change of charge density      :  0.5259E-03
  | Change of sum of eigenvalues  :  0.5747E-01 eV
  | Change of total energy        :  0.5065E-05 eV

  End self-consistency iteration #     8       :  max(cpu_time)    wall_clock(cpu1)
  | Time for this iteration                    :        0.060 s           0.060 s
  | Charge density update                      :        0.011 s           0.012 s
  | Density mixing                             :        0.001 s           0.001 s
  | Hartree multipole update                   :        0.001 s           0.001 s
  | Hartree multipole summation                :        0.017 s           0.017 s
  | Integration                                :        0.029 s           0.029 s
  | Solution of K.-S. eqns.                    :        0.000 s           0.000 s
  | Total energy evaluation                    :        0.000 s           0.000 s

  Partial memory accounting:
  | Current value for overall tracked memory usage on task 0  :           0.020 MB
  | Peak value for overall tracked memory usage on task 0     :           0.084 MB after allocating wave
  | Largest tracked array allocation on task 0 so far         :           0.019 MB  when allocating H_times_psi
  Note:  These values currently only include a subset of arrays which are explicitly tracked.
  The "true" memory usage will be greater.
------------------------------------------------------------

------------------------------------------------------------
          Begin self-consistency iteration #    9

  Date     :  20190509, Time     :  114720.484
------------------------------------------------------------
  Evaluating new KS density.
  Integration grid: deviation in total charge (<rho> - N_e) =   8.881784E-15
  Pulay mixing of updated and previous charge densities.

  Evaluating partitioned Hartree potential by multipole expansion.
  | Analytical far-field extrapolation by fixed multipoles:
  | Hartree multipole sum: apparent total charge =   0.999548E+00
  Summing up the Hartree potential.
  Time summed over all CPUs for potential: real work        0.017 s, elapsed        0.017 s
  | RMS charge density error from multipole expansion :   0.926762E-02

  Integrating Hamiltonian matrix: batch-based integration.
  Time summed over all CPUs for integration: real work        0.030 s, elapsed        0.030 s

  Updating Kohn-Sham eigenvalues, eigenvectors, occupation numbers, and Fermi level.
  Solving generalized eigenproblem
  Updating Kohn-Sham eigenvalues and eigenfunctions.
  Solving real generalised eigenvalue problem by standard LAPACK (fast)

  Obtaining occupation numbers and chemical potential using ELSI.
  | Chemical potential (Fermi level):   -12.14502363eV
  Highest occupied state (VBM) at    -18.67869211 eV
  | Occupation number:      2.00000000

  Lowest unoccupied state (CBM) at    -8.18471258 eV
  | Occupation number:      0.00000000

  Overall HOMO-LUMO gap:     10.49397953 eV.

  Total energy components:
  | Sum of eigenvalues            :         -45.63956847 Ha       -1241.91584605 eV
  | XC energy correction          :          -8.80450804 Ha        -239.58285366 eV
  | XC potential correction       :          11.59680803 Ha         315.56520224 eV
  | Free-atom electrostatic energy:         -35.29293086 Ha        -960.36951164 eV
  | Hartree energy correction     :           1.96645696 Ha          53.51001636 eV
  | Entropy correction            :          -0.00000000 Ha          -0.00000000 eV
  | ---------------------------
  | Total energy                  :         -76.17374238 Ha       -2072.79299276 eV
  | Total energy, T -> 0          :         -76.17374238 Ha       -2072.79299276 eV  <-- do not rely on this value for anything but (periodic) metals
  | Electronic free energy        :         -76.17374238 Ha       -2072.79299276 eV

  Derived energy quantities:
  | Kinetic energy                :          75.83027268 Ha        2063.44670672 eV
  | Electrostatic energy          :        -143.19950702 Ha       -3896.65684581 eV
  | Energy correction for multipole
  | error in Hartree potential    :           0.00622190 Ha           0.16930649 eV
  | Sum of eigenvalues per atom                           :        -310.47896151 eV
  | Total energy (T->0) per atom                          :        -518.19824819 eV  <-- do not rely on this value for anything but (periodic) metals
  | Electronic free energy per atom                       :        -518.19824819 eV

  Self-consistency convergence accuracy:
  | Change of charge density      :  0.2097E-03
  | Change of sum of eigenvalues  :  0.1912E-02 eV
  | Change of total energy        :  0.8697E-05 eV

  End self-consistency iteration #     9       :  max(cpu_time)    wall_clock(cpu1)
  | Time for this iteration                    :        0.061 s           0.061 s
  | Charge density update                      :        0.011 s           0.011 s
  | Density mixing                             :        0.001 s           0.001 s
  | Hartree multipole update                   :        0.001 s           0.002 s
  | Hartree multipole summation                :        0.017 s           0.017 s
  | Integration                                :        0.030 s           0.030 s
  | Solution of K.-S. eqns.                    :        0.000 s           0.000 s
  | Total energy evaluation                    :        0.000 s           0.000 s

  Partial memory accounting:
  | Current value for overall tracked memory usage on task 0  :           0.020 MB
  | Peak value for overall tracked memory usage on task 0     :           0.085 MB after allocating wave
  | Largest tracked array allocation on task 0 so far         :           0.019 MB  when allocating H_times_psi
  Note:  These values currently only include a subset of arrays which are explicitly tracked.
  The "true" memory usage will be greater.
------------------------------------------------------------

------------------------------------------------------------
          Begin self-consistency iteration #   10

  Date     :  20190509, Time     :  114720.545
------------------------------------------------------------
  Evaluating new KS density.
  Integration grid: deviation in total charge (<rho> - N_e) =  -1.065814E-14
  Pulay mixing of updated and previous charge densities.

  Evaluating partitioned Hartree potential by multipole expansion.
  | Analytical far-field extrapolation by fixed multipoles:
  | Hartree multipole sum: apparent total charge =   0.999555E+00
  Summing up the Hartree potential.
  Time summed over all CPUs for potential: real work        0.017 s, elapsed        0.017 s
  | RMS charge density error from multipole expansion :   0.926774E-02

  Integrating Hamiltonian matrix: batch-based integration.
  Time summed over all CPUs for integration: real work        0.028 s, elapsed        0.028 s

  Updating Kohn-Sham eigenvalues, eigenvectors, occupation numbers, and Fermi level.
  Solving generalized eigenproblem
  Updating Kohn-Sham eigenvalues and eigenfunctions.
  Solving real generalised eigenvalue problem by standard LAPACK (fast)

  Obtaining occupation numbers and chemical potential using ELSI.
  | Chemical potential (Fermi level):   -12.14510210eV
  Highest occupied state (VBM) at    -18.67889637 eV
  | Occupation number:      2.00000000

  Lowest unoccupied state (CBM) at    -8.18476963 eV
  | Occupation number:      0.00000000

  Overall HOMO-LUMO gap:     10.49412674 eV.

  Total energy components:
  | Sum of eigenvalues            :         -45.63966158 Ha       -1241.91837968 eV
  | XC energy correction          :          -8.80449866 Ha        -239.58259846 eV
  | XC potential correction       :          11.59679564 Ha         315.56486525 eV
  | Free-atom electrostatic energy:         -35.29293086 Ha        -960.36951164 eV
  | Hartree energy correction     :           1.96655308 Ha          53.51263195 eV
  | Entropy correction            :          -0.00000000 Ha          -0.00000000 eV
  | ---------------------------
  | Total energy                  :         -76.17374237 Ha       -2072.79299257 eV
  | Total energy, T -> 0          :         -76.17374237 Ha       -2072.79299257 eV  <-- do not rely on this value for anything but (periodic) metals
  | Electronic free energy        :         -76.17374237 Ha       -2072.79299257 eV

  Derived energy quantities:
  | Kinetic energy                :          75.83021536 Ha        2063.44514687 eV
  | Electrostatic energy          :        -143.19945907 Ha       -3896.65554098 eV
  | Energy correction for multipole
  | error in Hartree potential    :           0.00622162 Ha           0.16929893 eV
  | Sum of eigenvalues per atom                           :        -310.47959492 eV
  | Total energy (T->0) per atom                          :        -518.19824814 eV  <-- do not rely on this value for anything but (periodic) metals
  | Electronic free energy per atom                       :        -518.19824814 eV

  Self-consistency convergence accuracy:
  | Change of charge density      :  0.2314E-04
  | Change of sum of eigenvalues  : -0.2534E-02 eV
  | Change of total energy        :  0.1886E-06 eV

  End self-consistency iteration #    10       :  max(cpu_time)    wall_clock(cpu1)
  | Time for this iteration                    :        0.059 s           0.060 s
  | Charge density update                      :        0.011 s           0.012 s
  | Density mixing                             :        0.001 s           0.000 s
  | Hartree multipole update                   :        0.002 s           0.001 s
  | Hartree multipole summation                :        0.017 s           0.017 s
  | Integration                                :        0.028 s           0.028 s
  | Solution of K.-S. eqns.                    :        0.000 s           0.001 s
  | Total energy evaluation                    :        0.000 s           0.000 s

  Partial memory accounting:
  | Current value for overall tracked memory usage on task 0  :           0.020 MB
  | Peak value for overall tracked memory usage on task 0     :           0.085 MB after allocating wave
  | Largest tracked array allocation on task 0 so far         :           0.019 MB  when allocating H_times_psi
  Note:  These values currently only include a subset of arrays which are explicitly tracked.
  The "true" memory usage will be greater.
------------------------------------------------------------

------------------------------------------------------------
          Begin self-consistency iteration #   11

  Date     :  20190509, Time     :  114720.605
------------------------------------------------------------
  Evaluating new KS density.
  Integration grid: deviation in total charge (<rho> - N_e) =   1.243450E-14
  Pulay mixing of updated and previous charge densities.

  Evaluating partitioned Hartree potential by multipole expansion.
  | Analytical far-field extrapolation by fixed multipoles:
  | Hartree multipole sum: apparent total charge =   0.999565E+00
  Summing up the Hartree potential.
  Time summed over all CPUs for potential: real work        0.017 s, elapsed        0.017 s
  | RMS charge density error from multipole expansion :   0.926776E-02

  Integrating Hamiltonian matrix: batch-based integration.
  Time summed over all CPUs for integration: real work        0.028 s, elapsed        0.028 s

  Updating Kohn-Sham eigenvalues, eigenvectors, occupation numbers, and Fermi level.
  Solving generalized eigenproblem
  Updating Kohn-Sham eigenvalues and eigenfunctions.
  Solving real generalised eigenvalue problem by standard LAPACK (fast)

  Obtaining occupation numbers and chemical potential using ELSI.
  | Chemical potential (Fermi level):   -12.14511258eV
  Highest occupied state (VBM) at    -18.67893113 eV
  | Occupation number:      2.00000000

  Lowest unoccupied state (CBM) at    -8.18478366 eV
  | Occupation number:      0.00000000

  Overall HOMO-LUMO gap:     10.49414748 eV.

  Total energy components:
  | Sum of eigenvalues            :         -45.63968542 Ha       -1241.91902834 eV
  | XC energy correction          :          -8.80449747 Ha        -239.58256612 eV
  | XC potential correction       :          11.59679407 Ha         315.56482250 eV
  | Free-atom electrostatic energy:         -35.29293086 Ha        -960.36951164 eV
  | Hartree energy correction     :           1.96657731 Ha          53.51329130 eV
  | Entropy correction            :          -0.00000000 Ha          -0.00000000 eV
  | ---------------------------
[...]
  | Largest tracked array allocation on task 0 so far         :           0.019 MB  when allocating H_times_psi
  Note:  These values currently only include a subset of arrays which are explicitly tracked.
  The "true" memory usage will be greater.
------------------------------------------------------------

------------------------------------------------------------
          Begin self-consistency iteration #   12

  Date     :  20190509, Time     :  114720.663
------------------------------------------------------------
  Evaluating new KS density.
  Integration grid: deviation in total charge (<rho> - N_e) =   3.552714E-15
  Pulay mixing of updated and previous charge densities.

  Evaluating partitioned Hartree potential by multipole expansion.
  | Analytical far-field extrapolation by fixed multipoles:
  | Hartree multipole sum: apparent total charge =   0.999565E+00
  Summing up the Hartree potential.
  Time summed over all CPUs for potential: real work        0.016 s, elapsed        0.016 s
  | RMS charge density error from multipole expansion :   0.926777E-02

  Integrating Hamiltonian matrix: batch-based integration.
  Time summed over all CPUs for integration: real work        0.030 s, elapsed        0.030 s

  Updating Kohn-Sham eigenvalues, eigenvectors, occupation numbers, and Fermi level.
  Solving generalized eigenproblem
  Updating Kohn-Sham eigenvalues and eigenfunctions.
  Solving real generalised eigenvalue problem by standard LAPACK (fast)

  Obtaining occupation numbers and chemical potential using ELSI.
  | Chemical potential (Fermi level):   -12.14510785eV
  Highest occupied state (VBM) at    -18.67892593 eV
  | Occupation number:      2.00000000

  Lowest unoccupied state (CBM) at    -8.18478110 eV
  | Occupation number:      0.00000000

  Overall HOMO-LUMO gap:     10.49414483 eV.

  Total energy components:
  | Sum of eigenvalues            :         -45.63968275 Ha       -1241.91895575 eV
  | XC energy correction          :          -8.80449794 Ha        -239.58257882 eV
  | XC potential correction       :          11.59679469 Ha         315.56483926 eV
  | Free-atom electrostatic energy:         -35.29293086 Ha        -960.36951164 eV
  | Hartree energy correction     :           1.96657449 Ha          53.51321462 eV
  | Entropy correction            :          -0.00000000 Ha          -0.00000000 eV
  | ---------------------------
  | Total energy                  :         -76.17374237 Ha       -2072.79299232 eV
  | Total energy, T -> 0          :         -76.17374237 Ha       -2072.79299232 eV  <-- do not rely on this value for anything but (periodic) metals
  | Electronic free energy        :         -76.17374237 Ha       -2072.79299232 eV

  Derived energy quantities:
  | Kinetic energy                :          75.83018431 Ha        2063.44430195 eV
  | Electrostatic energy          :        -143.19942873 Ha       -3896.65471545 eV
  | Energy correction for multipole
  | error in Hartree potential    :           0.00622117 Ha           0.16928658 eV
  | Sum of eigenvalues per atom                           :        -310.47973894 eV
  | Total energy (T->0) per atom                          :        -518.19824808 eV  <-- do not rely on this value for anything but (periodic) metals
  | Electronic free energy per atom                       :        -518.19824808 eV

  Self-consistency convergence accuracy:
  | Change of charge density      :  0.6889E-06
  | Change of sum of eigenvalues  :  0.7259E-04 eV
  | Change of total energy        : -0.2283E-07 eV

  Electronic self-consistency reached - switching on the force computation.

  End self-consistency iteration #    12       :  max(cpu_time)    wall_clock(cpu1)
  | Time for this iteration                    :        0.060 s           0.060 s
  | Charge density & force component update    :        0.011 s           0.012 s
  | Density mixing                             :        0.001 s           0.001 s
  | Hartree multipole update                   :        0.001 s           0.001 s
  | Hartree multipole summation                :        0.016 s           0.016 s
  | Integration                                :        0.030 s           0.030 s
  | Solution of K.-S. eqns.                    :        0.000 s           0.000 s
  | Total energy evaluation                    :        0.000 s           0.000 s

  Partial memory accounting:
  | Current value for overall tracked memory usage on task 0  :           0.020 MB
  | Peak value for overall tracked memory usage on task 0     :           0.085 MB after allocating wave
  | Largest tracked array allocation on task 0 so far         :           0.019 MB  when allocating H_times_psi
  Note:  These values currently only include a subset of arrays which are explicitly tracked.
  The "true" memory usage will be greater.
------------------------------------------------------------

------------------------------------------------------------
          Begin self-consistency iteration #   13

  Date     :  20190509, Time     :  114720.723
------------------------------------------------------------
  Evaluating new KS density and force components.
  Integration grid: deviation in total charge (<rho> - N_e) =  -1.243450E-14
  Pulay mixing of updated and previous charge densities.

  Evaluating partitioned Hartree potential by multipole expansion.
  | Analytical far-field extrapolation by fixed multipoles:
  | Hartree multipole sum: apparent total charge =   0.999565E+00
  Summing up the Hartree potential.
  Time summed over all CPUs for potential: real work        0.053 s, elapsed        0.053 s
  | RMS charge density error from multipole expansion :   0.926777E-02

  Integrating Hamiltonian matrix: batch-based integration.
  Time summed over all CPUs for integration: real work        0.029 s, elapsed        0.029 s

  Updating Kohn-Sham eigenvalues, eigenvectors, occupation numbers, and Fermi level.
  Solving generalized eigenproblem
  Updating Kohn-Sham eigenvalues and eigenfunctions.
  Solving real generalised eigenvalue problem by standard LAPACK (fast)

  Obtaining occupation numbers and chemical potential using ELSI.
  | Chemical potential (Fermi level):   -12.14510719eV
  Highest occupied state (VBM) at    -18.67892490 eV
  | Occupation number:      2.00000000

  Lowest unoccupied state (CBM) at    -8.18478060 eV
  | Occupation number:      0.00000000

  Overall HOMO-LUMO gap:     10.49414430 eV.

  Total energy components:
  | Sum of eigenvalues            :         -45.63968226 Ha       -1241.91894242 eV
  | XC energy correction          :          -8.80449801 Ha        -239.58258060 eV
  | XC potential correction       :          11.59679478 Ha         315.56484161 eV
  | Free-atom electrostatic energy:         -35.29293086 Ha        -960.36951164 eV
  | Hartree energy correction     :           1.96657398 Ha          53.51320073 eV
  | Entropy correction            :          -0.00000000 Ha          -0.00000000 eV
  | ---------------------------
  | Total energy                  :         -76.17374237 Ha       -2072.79299232 eV
  | Total energy, T -> 0          :         -76.17374237 Ha       -2072.79299232 eV  <-- do not rely on this value for anything but (periodic) metals
  | Electronic free energy        :         -76.17374237 Ha       -2072.79299232 eV

  Derived energy quantities:
  | Kinetic energy                :          75.83018467 Ha        2063.44431176 eV
  | Electrostatic energy          :        -143.19942903 Ha       -3896.65472348 eV
  | Energy correction for multipole
  | error in Hartree potential    :           0.00622117 Ha           0.16928662 eV
  | Sum of eigenvalues per atom                           :        -310.47973560 eV
  | Total energy (T->0) per atom                          :        -518.19824808 eV  <-- do not rely on this value for anything but (periodic) metals
  | Electronic free energy per atom                       :        -518.19824808 eV

  atomic forces [eV/Ang]:
  -----------------------
  atom #    1
   Hellmann-Feynman              :  0.426888E-12 -0.762372E-01 -0.884747E+01
   Ionic forces                  :  0.000000E+00  0.000000E+00  0.000000E+00
   Multipole                     : -0.483408E-13  0.569509E-04 -0.326557E+00
   Pulay                         : -0.487034E-12 -0.220060E-02  0.915346E+01
   ----------------------------------------------------------------
   Total forces(   1)            : -0.108487E-12 -0.783809E-01 -0.205700E-01
  atom #    2
   Hellmann-Feynman              :  0.207496E+00 -0.122007E+00  0.133187E+00
   Ionic forces                  :  0.000000E+00  0.000000E+00  0.000000E+00
   Multipole                     :  0.499373E-01 -0.286973E-01  0.628561E-01
   Pulay                         : -0.257214E+00  0.148548E+00 -0.196356E+00
   ----------------------------------------------------------------
   Total forces(   2)            :  0.220135E-03 -0.215617E-02 -0.312862E-03
  atom #    3
   Hellmann-Feynman              : -0.207496E+00 -0.122007E+00  0.133187E+00
   Ionic forces                  :  0.000000E+00  0.000000E+00  0.000000E+00
   Multipole                     : -0.499373E-01 -0.286973E-01  0.628561E-01
   Pulay                         :  0.257214E+00  0.148548E+00 -0.196356E+00
   ----------------------------------------------------------------
   Total forces(   3)            : -0.220135E-03 -0.215617E-02 -0.312862E-03
  atom #    4
   Hellmann-Feynman              : -0.384534E-14  0.324291E+00  0.157479E+00
   Ionic forces                  :  0.000000E+00  0.000000E+00  0.000000E+00
   Multipole                     :  0.802742E-15  0.576820E-01  0.631446E-01
   Pulay                         :  0.106717E-13 -0.299135E+00 -0.197497E+00
   ----------------------------------------------------------------
   Total forces(   4)            :  0.762910E-14  0.828372E-01  0.231271E-01


  Self-consistency convergence accuracy:
  | Change of charge density      :  0.7364E-07
  | Change of sum of eigenvalues  :  0.1333E-04 eV
  | Change of total energy        : -0.2538E-08 eV
  | Change of forces              :  0.4599E+01 eV/A

  Writing Kohn-Sham eigenvalues.

  State    Occupation    Eigenvalue [Ha]    Eigenvalue [eV]
      1       2.00000         -19.024317         -517.67800
      2       2.00000          -1.348991          -36.70791
      3       2.00000          -0.880220          -23.95200
      4       2.00000          -0.879876          -23.94264
      5       2.00000          -0.686438          -18.67892
      6       0.00000          -0.300785           -8.18478
      7       0.00000          -0.207142           -5.63663
      8       0.00000          -0.206432           -5.61731
      9       0.00000           0.016485            0.44859
     10       0.00000           0.052106            1.41786
     11       0.00000           0.052519            1.42911
     12       0.00000           0.240915            6.55562
     13       0.00000           0.467347           12.71717

  Highest occupied state (VBM) at    -18.67892490 eV
  | Occupation number:      2.00000000

  Lowest unoccupied state (CBM) at    -8.18478060 eV
  | Occupation number:      0.00000000

  Overall HOMO-LUMO gap:     10.49414430 eV.

  Self-consistency cycle converged.

  End self-consistency iteration #    13       :  max(cpu_time)    wall_clock(cpu1)
  | Time for this iteration                    :        0.126 s           0.126 s
  | Charge density & force component update    :        0.041 s           0.042 s
  | Density mixing                             :        0.001 s           0.001 s
  | Hartree multipole update                   :        0.001 s           0.001 s
  | Hartree multipole summation                :        0.053 s           0.053 s
  | Integration                                :        0.029 s           0.029 s
  | Solution of K.-S. eqns.                    :        0.000 s           0.000 s
  | Total energy evaluation                    :        0.000 s           0.000 s

  Partial memory accounting:
  | Current value for overall tracked memory usage on task 0  :           0.020 MB
  | Peak value for overall tracked memory usage on task 0     :           0.116 MB after allocating h_times_wave
  | Largest tracked array allocation on task 0 so far         :           0.058 MB  when allocating gradient_basis_wave
  Note:  These values currently only include a subset of arrays which are explicitly tracked.
  The "true" memory usage will be greater.
------------------------------------------------------------
  ------------------------------------------------------------
   Computing monopole / dipole moments for complete molecule:
  | Total electronic charge [e]         :          0.100000000167222E+02
  | Total ionic charge [e]              :          0.110000000000000E+02
  | Total charge [e]                    :          0.999999983277791E+00
 * Warning: The system has a total charge of      0.99999998 .
 * The dipole moment depends on the choice of the origin.
  | Total dipole moment [eAng]          :         -0.752281443432217E-14        -0.128977374857702E-02         0.587619845221702E+00
  | Absolute dipole moment              :          0.587621260689826E+00 eAng              /                   0.282202532450347E+01 Debye  .
  Removing unitary transformations (pure translations, rotations) from forces on atoms.
  Atomic forces before filtering:
  | Net force on center of mass :  -0.201736E-12  0.143982E-03  0.193133E-02 eV/A
  | Net torque on center of mass:   0.152980E-04  0.433432E-13  0.994575E-14 eV
  Atomic forces after filtering:
  | Net force on center of mass :   0.722197E-20  0.000000E+00  0.000000E+00 eV/A
  | Net torque on center of mass:   0.811323E-17 -0.162659E-18 -0.441940E-18 eV

  Energy and forces in a compact form:
  | Total energy uncorrected      :         -0.207279299232127E+04 eV
  | Total energy corrected        :         -0.207279299232127E+04 eV  <-- do not rely on this value for anything but (periodic) metals
  | Electronic free energy        :         -0.207279299232127E+04 eV
  Total atomic forces (unitary forces cleaned) [eV/Ang]:
  |   1         -0.515561668084920E-13         -0.784191658670144E-01         -0.210528730365870E-01
  |   2          0.220134608937827E-03         -0.219140192176962E-02         -0.790555785323814E-03
  |   3         -0.220134608945648E-03         -0.219140192184255E-02         -0.790555785341561E-03
  |   4          0.593767536437016E-13          0.828019697106266E-01          0.226339846072524E-01

  ------------------------------------ 
  Start decomposition of the XC Energy 
  ------------------------------------ 
  X and C from original XC functional choice 
  Hartree-Fock Energy :          0.000000000 Ha              0.000000000 eV
  X Energy            :         -8.140829273 Ha           -221.523235509 eV
  C Energy            :         -0.663668734 Ha            -18.059345091 eV
  Total XC Energy     :         -8.804498007 Ha           -239.582580600 eV
  ------------------------------------ 
  LDA X and C from self-consistent density 
  X Energy LDA        :         -8.140829273 Ha           -221.523235509 eV
  C Energy LDA        :         -0.663668734 Ha            -18.059345091 eV
  ------------------------------------ 
  End decomposition of the XC Energy 
  ------------------------------------ 

------------------------------------------------------------

------------------------------------------------------------------------------
  Final output of selected total energy values:

  The following output summarizes some interesting total energy values
  at the end of a run (AFTER all relaxation, molecular dynamics, etc.).

  | Total energy of the DFT / Hartree-Fock s.c.f. calculation      :          -2072.792992321 eV
  | Final zero-broadening corrected energy (caution - metals only) :          -2072.792992321 eV
  | For reference only, the value of 1 Hartree used in FHI-aims is :             27.211384500 eV

  Before relying on these values, please be sure to understand exactly which
  total energy value is referred to by a given number. Different objects may
  all carry the same name 'total energy'. Definitions:

  Total energy of the DFT / Hartree-Fock s.c.f. calculation:
  | Note that this energy does not include ANY quantities calculated after the
  | s.c.f. cycle, in particular not ANY RPA, MP2, etc. many-body perturbation terms.

  Final zero-broadening corrected energy:
  | For metallic systems only, a broadening of the occupation numbers at the Fermi
  | level can be extrapolated back to zero broadening by an electron-gas inspired
  | formula. For all systems that are not real metals, this value can be
  | meaningless and should be avoided.

------------------------------------------------------------------------------
  Methods described in the following list of references were used in this FHI-aims run.
  If you publish the results, please make sure to cite these reference if they apply.
  FHI-aims is an academic code, and for our developers (often, Ph.D. students
  and postdocs), scientific credit in the community is essential.
  Thank you for helping us!

  For any use of FHI-aims, please cite:

    Volker Blum, Ralf Gehrke, Felix Hanke, Paula Havu, Ville Havu,
    Xinguo Ren, Karsten Reuter, and Matthias Scheffler
    'Ab initio molecular simulations with numeric atom-centered orbitals'
    Computer Physics Communications 180, 2175-2196 (2009)
    http://dx.doi.org/10.1016/j.cpc.2009.06.022


  For the real-space grid partitioning and parallelization used in this calculation, please cite:

    Ville Havu, Volker Blum, Paula Havu, and Matthias Scheffler,
    'Efficient O(N) integration for all-electron electronic structure calculation'
    'using numerically tabulated basis functions'
    Journal of Computational Physics 228, 8367-8379 (2009).
    http://dx.doi.org/10.1016/j.jcp.2009.08.008

  Of course, there are many other important community references, e.g., those cited in the
  above references. Our list is limited to references that describe implementations in the
  FHI-aims code. The reason is purely practical (length of this list) - please credit others as well.

------------------------------------------------------------
          Leaving FHI-aims.
          Date     :  20190509, Time     :  114720.863

          Computational steps:
          | Number of self-consistency cycles          :           13
          | Number of SCF (re)initializations          :            1

          Detailed time accounting                     :  max(cpu_time)    wall_clock(cpu1)
          | Total time                                 :        0.989 s           0.989 s
          | Preparation time                           :        0.051 s           0.050 s
          | Boundary condition initalization           :        0.000 s           0.000 s
          | Grid partitioning                          :        0.014 s           0.014 s
          | Preloading free-atom quantities on grid    :        0.001 s           0.001 s
          | Free-atom superposition energy             :        0.012 s           0.012 s
          | Total time for integrations                :        0.417 s           0.418 s
          | Total time for solution of K.-S. equations :        0.003 s           0.003 s
          | Total time for density & force components  :        0.179 s           0.182 s
          | Total time for mixing                      :        0.009 s           0.008 s
          | Total time for Hartree multipole update    :        0.019 s           0.016 s
          | Total time for Hartree multipole sum       :        0.254 s           0.254 s
          | Total time for total energy evaluation     :        0.001 s           0.000 s

 This is a stub MPI_ALLREDUCE call.
 You should not be here. Check your
 setting on the use_mpi variable, or
 link against true MPI-libraries.
