------------------------------------------------------------
          Invoking FHI-aims ...
          Version 171221_1
          Compiled on 2019/05/06 at 14:26:40 on host ffph0xx.

          When using FHI-aims, please cite the following reference:

          Volker Blum, Ralf Gehrke, Felix Hanke, Paula Havu,
          Ville Havu, Xinguo Ren, Karsten Reuter, and Matthias Scheffler,
          'Ab Initio Molecular Simulations with Numeric Atom-Centered Orbitals',
          Computer Physics Communications 180, 2175-2196 (2009)

          For any questions about FHI-aims, please visit the aimsclub website
          with its forums and wiki. Contributions to both the forums and the
          wiki are warmly encouraged - they are for you, and everyone is welcome there.

------------------------------------------------------------



  Date     :  20190514, Time     :  105015.331
  Time zero on CPU 1             :   0.622000000000000E-03  s.
  Internal wall clock time zero  :           327063015.331  s.

  FHI-aims created a unique identifier for this run for later identification
  aims_uuid : F0A8CD34-AC51-42AF-AD04-397B4B93050A


  Performing system and environment tests:
  *** Environment variable OMP_NUM_THREADS is not set
  *** For performance reasons you might want to set it to 1
  | Stacksize not measured: no C compiler

  Obtaining array dimensions for all initial allocations:
  
  -----------------------------------------------------------------------
  Parsing control.in (first pass over file, find array dimensions only).
  The contents of control.in will be repeated verbatim below
  unless switched off by setting 'verbatim_writeout .false.' .
  in the first line of control.in .
  -----------------------------------------------------------------------
  
  #--- method ---
  xc pw-lda
  spin none
  relativistic atomic_zora scalar
  #---
  
  #--- k-grid settings ---
  k_grid 12 12 12
  #---
  
  
  
  
  
  
  
  
  
  
  
  #-------------------------------------------------------------------------------
  #--- Species defaults for Si
  #-------------------------------------------------------------------------------
  
  ################################################################################
  #
  #  FHI-aims code project
  #  VB, Fritz-Haber Institut, 2009
  #
  #  Suggested "light" defaults for Si atom (to be pasted into control.in file)
  #  Be sure to double-check any results obtained with these settings for post-processing,
  #  e.g., with the "tight" defaults and larger basis sets.
  #
  ################################################################################
    species        Si
  #     global species definitions
      nucleus             14
      mass                28.0855
  #
      l_hartree           4
  #
      cut_pot             3.5          1.5  1.0
      basis_dep_cutoff    1e-4
  #
      radial_base         42 5.0
      radial_multiplier   1
      angular_grids       specified
        division   0.5866   50
        division   0.9616  110
        division   1.2249  194
        division   1.3795  302
  #      division   1.4810  434
  #      division   1.5529  590
  #      division   1.6284  770
  #      division   1.7077  974
  #      division   2.4068 1202
  #      outer_grid   974
        outer_grid 302
  ################################################################################
  #
  #  Definition of "minimal" basis
  #
  ################################################################################
  #     valence basis states
      valence      3  s   2.
      valence      3  p   2.
  #     ion occupancy
      ion_occ      3  s   1.
      ion_occ      3  p   1.
  ################################################################################
  #
  #  Suggested additional basis functions. For production calculations,
  #  uncomment them one after another (the most important basis functions are
  #  listed first).
  #
  #  Constructed for dimers: 1.75 A, 2.0 A, 2.25 A, 2.75 A, 3.75 A
  #
  ################################################################################
  #  "First tier" - improvements: -571.96 meV to -37.03 meV
       hydro 3 d 4.2
       hydro 2 p 1.4
  #     hydro 4 f 6.2
       ionic 3 s auto
  #  "Second tier" - improvements: -16.76 meV to -3.03 meV
  #     hydro 3 d 9
  #     hydro 5 g 9.4
  #     hydro 4 p 4
  #     hydro 1 s 0.65
  #  "Third tier" - improvements: -3.89 meV to -0.60 meV
  #     ionic 3 d auto
  #     hydro 3 s 2.6
  #     hydro 4 f 8.4
  #     hydro 3 d 3.4
  #     hydro 3 p 7.8
  #  "Fourth tier" - improvements: -0.33 meV to -0.11 meV
  #     hydro 2 p 1.6
  #     hydro 5 g 10.8
  #     hydro 5 f 11.2
  #     hydro 3 d 1
  #     hydro 4 s 4.5
  #  Further basis functions that fell out of the optimization - noise
  #  level... < -0.08 meV
  #     hydro 4 d 6.6
  #     hydro 5 g 16.4
  #     hydro 4 d 9
  
  -----------------------------------------------------------------------
  Completed first pass over input file control.in .
  -----------------------------------------------------------------------
  
  
  -----------------------------------------------------------------------
  Parsing geometry.in (first pass over file, find array dimensions only).
  The contents of geometry.in will be repeated verbatim below
  unless switched off by setting 'verbatim_writeout .false.' .
  in the first line of geometry.in .
  -----------------------------------------------------------------------
  
  lattice_vector   0.000000   2.550000   2.550000
  lattice_vector   2.550000   0.000000   2.550000
  lattice_vector   2.550000   2.550000   0.000000
  atom_frac   0.000000   0.000000   0.000000 Si
  atom_frac   0.250000   0.250000   0.250000 Si
  
  -----------------------------------------------------------------------
  Completed first pass over input file geometry.in .
  -----------------------------------------------------------------------
  

  Basic array size parameters:
  | Number of species                 :        1
  | Number of atoms                   :        2
  | Number of lattice vectors         :        3
  | Max. basis fn. angular momentum   :        2
  | Max. atomic/ionic basis occupied n:        3
  | Max. number of basis fn. types    :        3
  | Max. radial fns per species/type  :        5
  | Max. logarithmic grid size        :     1346
  | Max. radial integration grid size :       42
  | Max. angular integration grid size:      302
  | Max. angular grid division number :        8
  | Radial grid for Hartree potential :     1346
  | Number of spin channels           :        1

------------------------------------------------------------
          Reading file control.in.
------------------------------------------------------------
  XC: Using Perdew-Wang parametrisation of Ceperley-Alder LDA.
  Spin treatment: No spin polarisation.
  Scalar relativistic treatment of kinetic energy: on-site free-atom approximation to ZORA.
  Found k-point grid:        12        12        12

  Reading configuration options for species Si                  .
  | Found nuclear charge :  14.0000
  | Found atomic mass :    28.085500000000000      amu
  | Found l_max for Hartree potential  :   4
  | Found cutoff potl. onset [A], width [A], scale factor :    3.50000    1.50000    1.00000
  | Threshold for basis-dependent cutoff potential is   0.100000E-03
  | Found data for basic radial integration grid :    42 points, outermost radius =    5.000 A
  | Found multiplier for basic radial grid :   1
  | Found angular grid specification: user-specified.
  | Specified grid contains     5 separate shells.
  | Check grid settings after all constraints further below.
  | Found free-atom valence shell :  3 s   2.000
  | Found free-atom valence shell :  3 p   2.000
  | Found free-ion valence shell :  3 s   1.000
  | Found free-ion valence shell :  3 p   1.000
  | Found hydrogenic basis function :  3 d   4.200
  | Found hydrogenic basis function :  2 p   1.400
  | Found ionic basis function :  3 s , default cutoff radius.
  Species Si                  : Missing cutoff potential type.
  Defaulting to exp(1/x)/(1-x)^2 type cutoff potential.
  Species Si: No 'logarithmic' tag. Using default grid for free atom:
  | Default logarithmic grid data [bohr] : 0.1000E-03 0.1000E+03 0.1012E+01
  | Will include ionic basis functions of  2.0-fold positive Si                   ion.
  Species Si: On-site basis accuracy parameter (for Gram-Schmidt orthonormalisation) not specified.
  Using default value basis_acc =  0.1000000E-03.
  Species Si                  : Using default innermost maximum threshold i_radial=  2 for radial functions.
  Species Si                  : Default cutoff onset for free atom density etc. : 0.35000000E+01 AA.
  Species Si                  : Basic radial grid will be enhanced according to radial_multiplier =   1, to contain    42 grid points.

  Finished reading input file 'control.in'. Consistency checks are next.

  MPI_IN_PLACE appears to work with this MPI implementation.
  | Keeping use_mpi_in_place .true. (see manual).
  Target number of points in a grid batch is not set. Defaulting to  100
  Method for grid partitioning is not set. Defaulting to 'maxmin' partitioning.
  Batch size limit is not set. Defaulting to    200
  By default, will store active basis functions for each batch.
  If in need of memory, prune_basis_once .false. can be used to disable this option.
  communication_type for Hartree potential was not specified.
  Defaulting to calc_hartree .
 * Attention: 
 * You may want to set distributed_spline_storage to .true. in order to save memory.
 * This doesn't harm performance and is perfectly ok unless:
 * - you get error messages in postprocessing (about missing atoms in get_rho_multipole_spl)
 * - you need full spline storage in hirshfeld_analysis
  Defaulting to Pulay charge density mixer.
  Pulay mixer: Number of relevant iterations not set.
  Defaulting to    8 iterations.
  Pulay mixer: Number of initial linear mixing iterations not set.
  Defaulting to    0 iterations.
  Work space size for distributed Hartree potential not set.
  Defaulting to   0.200000E+03 MB.
  Mixing parameter for charge density mixing has not been set.
  Using default: charge_mix_param =     0.0500.
  The mixing parameter will be adjusted in iteration number     2 of the first full s.c.f. cycle only.
  Algorithm-dependent basis array size parameters:
  | n_max_pulay                         :        8
 * Notice: The s.c.f. convergence criterion sc_accuracy_rho was not provided.
 * We used to stop in this case, and ask the user to provide reasonable
 * scf convergence criteria. However, this led some users to employ criteria
 * that led to extremely long run times, e.g., for simple relaxation.
 * We now preset a default value for sc_accuracy_rho if it is not set.
 * You may still wish to check if this setting is too tight or too loose for your needs.
 * Based on n_atoms, FHI-aims chose sc_accuracy_rho =  0.100000E-05 .
  Maximum number of self-consistency iterations not provided.
  Presetting  1000 iterations.
  Presetting      1001 iterations before the initial mixing cycle
  is restarted anyway using the sc_init_iter criterion / keyword.
  Presetting a factor      1.000 between actual scf density residual
  and density convergence criterion sc_accuracy_rho below which sc_init_iter
  takes no effect.
 * No s.c.f. convergence criteria (sc_accuracy_*) were provided in control.in.
 * The run will proceed with a reasonable default guess, but please check whether.
 * the s.c.f. cycles seem to take too much or too little time.
  Calculation of forces was not defined in control.in. No forces will be calculated.
  Geometry relaxation not requested: no relaxation will be performed.
  No accuracy limit for integral partition fn. given. Defaulting to  0.1000E-14.
  No threshold value for u(r) in integrations given. Defaulting to  0.1000E-05.
  No occupation type (smearing scheme) given. Defaulting to Gaussian broadening, width =  0.1000E-01 eV.
  The width will be adjusted in iteration number     2 of the first full s.c.f. cycle only.
  S.C.F. convergence parameters will be adjusted in iteration number     2 of the first full s.c.f. cycle only.
  No accuracy for occupation numbers given. Defaulting to  0.1000E-12.
  No threshold value for occupation numbers given. Defaulting to  0.0000E+00.
  No accuracy for fermi level given. Defaulting to  0.1000E-19.
  Maximum # of iterations to find E_F not set. Defaulting to  200.
  Preferred method for the eigenvalue solver ('KS_method') not specified in 'control.in'.
  Defaulting to serial version, 'lapack_fast'.
  Will not use alltoall communication since running on < 1024 CPUs.
  Threshold for basis singularities not set.
  Default threshold for basis singularities:  0.1000E-04
  partition_type (choice of integration weights) for integrals was not specified.
  | Using a version of the partition function of Stratmann and coworkers ('stratmann_smoother').
  | At each grid point, the set of atoms used to build the partition table is smoothly restricted to
  | only those atoms whose free-atom density would be non-zero at that grid point.
  Partitioning for Hartree potential was not defined. Using partition_type for integrals.
  | Adjusted default value of keyword multip_moments_threshold to:       0.10000000E-11
  | This value may affect high angular momentum components of the Hartree potential in periodic systems.
  Angular momentum expansion for Kerker preconditioner not set explicitly.
  | Using default value of   0
  No explicit requirement for turning off preconditioner.
  | By default, it will be turned off when the charge convergence reaches
  | sc_accuracy_rho  =   0.100000E-05
  No special mixing parameter while Kerker preconditioner is on.
  Using default: charge_mix_param =     0.0500.
  No q(lm)/r^(l+1) cutoff set for long-range Hartree potential.
  | Using default value of  0.100000E-09 .
  | Verify using the multipole_threshold keyword.
  Defaulting to new monopole extrapolation.
  Density update method: automatic selection selected.
  Using density matrix based charge density update.
  Using density matrix based charge density update.
  Using packed matrix style: index .
  Defaulting to use time-reversal symmetry for k-point grid.
------------------------------------------------------------


------------------------------------------------------------
          Reading geometry description geometry.in.
------------------------------------------------------------
  Input structure read successfully.
  The structure contains        2 atoms,  and a total of         28.000 electrons.

  Input geometry:
  | Unit cell:
  |        0.00000000        2.55000000        2.55000000
  |        2.55000000        0.00000000        2.55000000
  |        2.55000000        2.55000000        0.00000000
  | Atomic structure:
  |       Atom                x [A]            y [A]            z [A]
  |    1: Species Si            0.00000000        0.00000000        0.00000000
  |    2: Species Si            1.27500000        1.27500000        1.27500000

  Lattice parameters for 3D lattice (in Angstroms) :     3.606245    3.606245    3.606245
  Angle(s) between unit vectors (in degrees)      :    60.000000   60.000000   60.000000

  |

  | The smallest distance between any two atoms is         2.20836478 AA.
  |
  | The first atom of this pair is atom number                      1 .
  | The second atom of this pair is atom number                     2 .
  | Wigner-Seitz cell of the first atom image           0     0     0 .
  | (The Wigner-Seitz cell of the second atom is 0 0 0  by definition.)

  Quantities derived from the lattice vectors:
  | Reciprocal lattice vector 1: -1.231997  1.231997  1.231997
  | Reciprocal lattice vector 2:  1.231997 -1.231997  1.231997
  | Reciprocal lattice vector 3:  1.231997  1.231997 -1.231997
  | Unit cell volume                               :   0.331627E+02  A^3

  Range separation radius for Ewald summation (hartree_convergence_parameter):      3.62591133 bohr.

  Fractional coordinates:
                         L1                L2                L3
       atom_frac         0.00000000        0.00000000        0.00000000  Si
       atom_frac         0.25000000        0.25000000        0.25000000  Si

  Number of empty states per atom not set in control.in - providing a guess from actual geometry.
  | Total number of empty states used during s.c.f. cycle:        6
  If you use a very high smearing, use empty_states (per atom!) in control.in to increase this value.

  Structure-dependent array size parameters: 
  | Maximum number of distinct radial functions  :        8
  | Maximum number of basis functions            :       36
  | Number of Kohn-Sham states (occupied + empty):       20
------------------------------------------------------------

------------------------------------------------------------
          Preparing all fixed parts of the calculation.
------------------------------------------------------------
  Determining machine precision:
     2.2250738585072014E-308
  Setting up grids for atomic and cluster calculations.

  Creating wave function, potential, and density for free atoms.

  Species: Si

  List of occupied orbitals and eigenvalues:
    n    l              occ      energy [Ha]    energy [eV]
    1    0           2.0000       -65.491668     -1782.1190
    2    0           2.0000        -5.087967      -138.4506
    3    0           2.0000        -0.391471       -10.6525
    2    1           6.0000        -3.502246       -95.3010
    3    1           2.0000        -0.143943        -3.9169

  Creating fixed part of basis set: Ionic, confined, hydrogenic.

  Si                   ion:

  List of free ionic orbitals and eigenvalues:
    n    l      energy [Ha]    energy [eV]
    1    0       -66.364436     -1805.8682
    2    0        -5.935799      -161.5213
    3    0        -1.078166       -29.3384
    2    1        -4.351123      -118.4001
    3    1        -0.781733       -21.2720


  List of ionic basis orbitals and eigenvalues:
    n    l      energy [Ha]    energy [eV]    outer radius [A]
    3    0        -1.078146       -29.3378       4.214062


  Si                   hydrogenic:

  List of hydrogenic basis orbitals: 
    n    l      effective z      eigenvalue [eV]  inner max. [A]     outer max. [A]     outer radius [A]   
    3    2         4.200000       -26.6624           1.139231           1.139231           4.534782
    2    1         1.400000        -6.4613           1.472672           1.472672           4.590560


  Adding cutoff potential to free-atom effective potential.
  Creating atomic-like basis functions for current effective potential.

  Species Si                  :

  List of atomic basis orbitals and eigenvalues:
    n    l      energy [Ha]    energy [eV]    outer radius [A]
    1    0       -65.491668     -1782.1190       0.789468
    2    0        -5.087967      -138.4506       2.815114
    3    0        -0.391471       -10.6525       4.534782
    2    1        -3.502246       -95.3010       3.259919
    3    1        -0.143943        -3.9169       4.590560

  Assembling full basis from fixed parts.
  | Species Si :   atomic orbital   1 s accepted.
  | Species Si :   atomic orbital   2 s accepted.
  | Species Si :    ionic orbital   3 s accepted.
  | Species Si :   atomic orbital   3 s accepted.
  | Species Si :   atomic orbital   2 p accepted.
  | Species Si :   atomic orbital   3 p accepted.
  | Species Si :    hydro orbital   2 p accepted.
  | Species Si :    hydro orbital   3 d accepted.

  Basis size parameters after reduction:
  | Total number of radial functions:        8
  | Total number of basis functions :       36

  Per-task memory consumption for arrays in subroutine allocate_ext:
  |           2.757868MB.
  Testing on-site integration grid accuracy.
  |  Species  Function  <phi|h_atom|phi> (log., in eV)  <phi|h_atom|phi> (rad., in eV)
           1        1              -1782.1189727076              -1782.1182429251
           1        2               -138.4506350693               -138.4506310079
           1        3                -10.3030408815                -10.3029120678
           1        4                  5.0238999146                  4.9457540310 ***
           1        5                -95.3009689499                -95.3009689315
           1        6                 -3.9266496564                 -3.9420918374
           1        7                  6.3453628447                  6.1632372158 ***
           1        8                  6.2883050744                  6.2861881409
 * Note: Onsite integrals marked "***" above are less accurate than
 * onsite_accuracy_threshold =    0.03000 eV. Usually, this is harmless.
 * When in doubt, tighten the "radial" and/or "radial_multiplier" flags to check.

  Preparing densities etc. for the partition functions (integrals / Hartree potential).

  Preparations completed.
  max(cpu_time)          :      0.111 s.
  Wall clock time (cpu1) :      0.110 s.
------------------------------------------------------------

------------------------------------------------------------
          Begin self-consistency loop: Initialization.

          Date     :  20190514, Time     :  105015.443
------------------------------------------------------------

  Initializing index lists of integration centers etc. from given atomic structure:
  Mapping all atomic coordinates to central unit cell.

  Initializing the k-points
          Using symmetry for reducing the k-points
  | k-points reduced from:     1728 to      868
  | Number of k-points                             :       868
  The eigenvectors in the calculations are COMPLEX.
  | K-points in task   0:       868
  | Number of basis functions in the Hamiltonian integrals :      1498
  | Number of basis functions in a single unit cell        :        36
  | Number of centers in hartree potential         :       780
  | Number of centers in hartree multipole         :       378
  | Number of centers in electron density summation:       228
  | Number of centers in basis integrals           :       288
  | Number of centers in integrals                 :       101
  | Number of centers in hamiltonian               :       228
  | Consuming       1925 KiB for k_phase.
  | Number of super-cells (origin) [n_cells]                     :        2197
  | Number of super-cells (after PM_index) [n_cells]             :         142
  | Number of super-cells in hamiltonian [n_cells_in_hamiltonian]:         142
  | Size of matrix packed + index [n_hamiltonian_matrix_size] :       50271
  Partitioning the integration grid into batches with maxmin method.
  | Maximal weight for a single point:     1.000
  | Minimal weight for a single point:     0.706
  | Number of batches:      128
  | Maximal batch size:      90
  | Minimal batch size:      85
  | Average batch size:      87.562
  | Standard deviation of batch sizes:       1.493
  Initializing partition tables, free-atom densities, potentials, etc. across the integration grid (initialize_grid_storage).
  | initialize_grid_storage: Actual outermost partition radius vs. multipole_radius_free
  | (-- VB: in principle, multipole_radius_free should be larger, hence this output)
  | Species        1: Confinement radius =              4.999999999999999 AA, multipole_radius_free =              5.000694715736543 AA.
  | Species        1: outer_partition_radius set to              5.000694715736543 AA .
  | Original list of interatomic distances with         288 x        288 entries is created.
  | Net number of integration points:    11208
  | of which are non-zero points    :     9580
  | Numerical average free-atom electrostatic potential    :    -15.86988072 eV
  Renormalizing the initial density to the exact electron count on the 3D integration grid.
  | Initial density: Formal number of electrons (from input files) :      28.0000000000
  | Integrated number of electrons on 3D grid     :      28.0069324253
  | Charge integration error                      :       0.0069324253
  | Normalization factor for density and gradient :       0.9997524747
  Obtaining max. number of non-zero basis functions in each batch (get_n_compute_maxes).
  | Maximal number of non-zero basis functions:      550 in task     0
  Allocating        9.999 MB for KS_eigenvector_complex
  Integrating Hamiltonian matrix: batch-based integration.
  Time summed over all CPUs for integration: real work        1.106 s, elapsed        1.106 s
  Integrating overlap matrix.
  Time summed over all CPUs for integration: real work        0.882 s, elapsed        0.882 s
  Decreasing sparse matrix size:
   Tolerance:   9.9999998245167004E-014
   Hamiltonian matrix
  | Array has    43827 nonzero elements out of    50271 elements
  | Sparsity factor is 0.128
   Overlap matrix
  | Array has    40604 nonzero elements out of    50271 elements
  | Sparsity factor is 0.192
  New size of hamiltonian matrix:       44155

  Updating Kohn-Sham eigenvalues, eigenvectors, occupation numbers, and Fermi level.
  Solving generalized eigenproblem
  Transforming overlap matrix and checking for singularities.
  Overlap matrix is nonsingular at first k-point:
  | Lowest eigenvalue:  0.228247E-02

  Obtaining occupation numbers and chemical potential using ELSI.
  | Chemical potential (Fermi level):    -6.24027251eV
  Writing Kohn-Sham eigenvalues.
  K-point:       1 at    0.000000    0.000000    0.000000 (in units of recip. lattice)

  State    Occupation    Eigenvalue [Ha]    Eigenvalue [eV]
      1       2.00000         -65.527151        -1783.08450
      2       2.00000         -65.527151        -1783.08450
      3       2.00000          -5.131321         -139.63034
      4       2.00000          -5.130586         -139.61034
      5       2.00000          -3.545638          -96.48173
      6       2.00000          -3.545638          -96.48173
      7       2.00000          -3.545638          -96.48173
      8       2.00000          -3.544306          -96.44547
      9       2.00000          -3.544306          -96.44547
     10       2.00000          -3.544306          -96.44547
     11       2.00000          -0.732935          -19.94417
     12       2.00000          -0.249921           -6.80070
     13       2.00000          -0.249921           -6.80070
     14       2.00000          -0.249921           -6.80070
     15       0.00000          -0.140778           -3.83077
     16       0.00000          -0.140778           -3.83077
     17       0.00000          -0.140778           -3.83077
     18       0.00000          -0.037390           -1.01744
     19       0.00000           0.052470            1.42779
     20       0.00000           0.052470            1.42779

  What follows are estimated values for band gap, HOMO, LUMO, etc.
  | They are estimated on a discrete k-point grid and not necessarily exact.
  | For converged numbers, create a DOS and/or band structure plot on a denser k-grid.

  Highest occupied state (VBM) at     -6.80070496 eV (relative to internal zero)
  | Occupation number:      2.00000000
  | K-point:       1 at    0.000000    0.000000    0.000000 (in units of recip. lattice)

  Lowest unoccupied state (CBM) at    -6.19806549 eV (relative to internal zero)
  | Occupation number:      0.00000000
  | K-point:     552 at    0.416667    0.416667    0.000000 (in units of recip. lattice)

  ESTIMATED overall HOMO-LUMO gap:      0.60263948 eV between HOMO at k-point 1 and LUMO at k-point 552
  | This appears to be an indirect band gap.
  | Smallest direct gap :      2.96993543 eV for k_point 1 at    0.416667    0.416667    0.000000 (in units of recip. lattice)
  The gap value is above 0.2 eV. Unless you are using a very sparse k-point grid,
  this system is most likely an insulator or a semiconductor.
  Calculating total energy contributions from superposition of free atom densities.

  Total energy components:
  | Sum of eigenvalues            :        -328.78944914 Ha       -8946.81612004 eV
  | XC energy correction          :         -39.77187644 Ha       -1082.24782214 eV
  | XC potential correction       :          52.54427084 Ha        1429.80235714 eV
  | Free-atom electrostatic energy:        -262.71365604 Ha       -7148.80230797 eV
  | Hartree energy correction     :          -0.00000000 Ha          -0.00000000 eV
  | Entropy correction            :          -0.00000000 Ha          -0.00000000 eV
  | ---------------------------
  | Total energy                  :        -578.73071078 Ha      -15748.06389301 eV
  | Total energy, T -> 0          :        -578.73071078 Ha      -15748.06389301 eV  <-- do not rely on this value for anything but (periodic) metals
  | Electronic free energy        :        -578.73071078 Ha      -15748.06389301 eV

  Derived energy quantities:
  | Kinetic energy                :         580.02877754 Ha       15783.38608676 eV
  | Electrostatic energy          :       -1118.98761188 Ha      -30449.20215763 eV
  | Energy correction for multipole
  | error in Hartree potential    :           0.00000000 Ha           0.00000000 eV
  | Sum of eigenvalues per atom                           :       -4473.40806002 eV
  | Total energy (T->0) per atom                          :       -7874.03194650 eV  <-- do not rely on this value for anything but (periodic) metals
  | Electronic free energy per atom                       :       -7874.03194650 eV
  Initialize hartree_potential_storage
  Max. number of atoms included in rho_multipole:            2

  End scf initialization - timings             :  max(cpu_time)    wall_clock(cpu1)
  | Time for scf. initialization               :        3.594 s           3.595 s
  | Boundary condition initialization          :        0.042 s           0.043 s
  | Integration                                :        1.988 s           1.988 s
  | Solution of K.-S. eqns.                    :        1.235 s           1.235 s
  | Grid partitioning                          :        0.038 s           0.038 s
  | Preloading free-atom quantities on grid    :        0.001 s           0.001 s
  | Free-atom superposition energy             :        0.047 s           0.047 s
  | Total energy evaluation                    :        0.001 s           0.000 s

  Partial memory accounting:
  | Current value for overall tracked memory usage on task 0  :          10.883 MB
  | Peak value for overall tracked memory usage on task 0     :          14.613 MB after allocating wave
  | Largest tracked array allocation on task 0 so far         :           9.999 MB  when allocating +KS_eigenvector_complex
  Note:  These values currently only include a subset of arrays which are explicitly tracked.
  The "true" memory usage will be greater.
------------------------------------------------------------

------------------------------------------------------------
          Begin self-consistency iteration #    1

  Date     :  20190514, Time     :  105019.038
------------------------------------------------------------
  Evaluating new KS density using the density matrix
  Evaluating density matrix
  Time summed over all CPUs for getting density from density matrix: real work        1.836 s, elapsed        1.836 s
  Integration grid: deviation in total charge (<rho> - N_e) =   8.260059E-12
  Pulay mixing of updated and previous charge densities.

  Evaluating partitioned Hartree potential by multipole expansion.
  | Analytical far-field extrapolation by fixed multipoles:
  | Hartree multipole sum: apparent total charge =   0.712089E-02
  Summing up the Hartree potential.
  | Estimated reciprocal-space cutoff momentum G_max:         2.58325284 bohr^-1 .
  | Reciprocal lattice points for long-range Hartree potential:      58
  Time summed over all CPUs for potential: real work        0.442 s, elapsed        0.442 s
  | RMS charge density error from multipole expansion :   0.750138E-03
  | Average real-space part of the electrostatic potential :     -0.00520987 eV

  Integrating Hamiltonian matrix: batch-based integration.
  Time summed over all CPUs for integration: real work        1.079 s, elapsed        1.079 s

  Updating Kohn-Sham eigenvalues, eigenvectors, occupation numbers, and Fermi level.
  Solving generalized eigenproblem

  Obtaining occupation numbers and chemical potential using ELSI.
  | Chemical potential (Fermi level):    -6.23311883eV
  Writing Kohn-Sham eigenvalues.
  K-point:       1 at    0.000000    0.000000    0.000000 (in units of recip. lattice)

  State    Occupation    Eigenvalue [Ha]    Eigenvalue [eV]
      1       2.00000         -65.530926        -1783.18722
      2       2.00000         -65.530926        -1783.18722
      3       2.00000          -5.131759         -139.64226
      4       2.00000          -5.131025         -139.62229
      5       2.00000          -3.546182          -96.49653
      6       2.00000          -3.546182          -96.49653
      7       2.00000          -3.546182          -96.49653
      8       2.00000          -3.544853          -96.46037
      9       2.00000          -3.544853          -96.46037
     10       2.00000          -3.544853          -96.46037
     11       2.00000          -0.732312          -19.92721
     12       2.00000          -0.248970           -6.77482
     13       2.00000          -0.248970           -6.77482
     14       2.00000          -0.248970           -6.77482
     15       0.00000          -0.140333           -3.81866
     16       0.00000          -0.140333           -3.81866
     17       0.00000          -0.140333           -3.81866
     18       0.00000          -0.036584           -0.99551
     19       0.00000           0.053014            1.44259
     20       0.00000           0.053014            1.44259

  What follows are estimated values for band gap, HOMO, LUMO, etc.
  | They are estimated on a discrete k-point grid and not necessarily exact.
  | For converged numbers, create a DOS and/or band structure plot on a denser k-grid.

  Highest occupied state (VBM) at     -6.77482088 eV (relative to internal zero)
  | Occupation number:      2.00000000
  | K-point:       1 at    0.000000    0.000000    0.000000 (in units of recip. lattice)

  Lowest unoccupied state (CBM) at    -6.19090920 eV (relative to internal zero)
  | Occupation number:      0.00000000
  | K-point:     552 at    0.416667    0.416667    0.000000 (in units of recip. lattice)

  ESTIMATED overall HOMO-LUMO gap:      0.58391168 eV between HOMO at k-point 1 and LUMO at k-point 552
  | This appears to be an indirect band gap.
  | Smallest direct gap :      2.95616127 eV for k_point 1 at    0.416667    0.416667    0.000000 (in units of recip. lattice)
  The gap value is above 0.2 eV. Unless you are using a very sparse k-point grid,
  this system is most likely an insulator or a semiconductor.

  Total energy components:
  | Sum of eigenvalues            :        -328.80725826 Ha       -8947.30073099 eV
  | XC energy correction          :         -39.77630131 Ha       -1082.36822882 eV
  | XC potential correction       :          52.55011693 Ha        1429.96143720 eV
  | Free-atom electrostatic energy:        -262.71365604 Ha       -7148.80230797 eV
  | Hartree energy correction     :           0.01724177 Ha           0.46917251 eV
  | Entropy correction            :          -0.00000000 Ha          -0.00000000 eV
  | ---------------------------
  | Total energy                  :        -578.72985691 Ha      -15748.04065807 eV
  | Total energy, T -> 0          :        -578.72985691 Ha      -15748.04065807 eV  <-- do not rely on this value for anything but (periodic) metals
  | Electronic free energy        :        -578.72985691 Ha      -15748.04065807 eV

  Derived energy quantities:
  | Kinetic energy                :         579.85406139 Ha       15778.63181834 eV
  | Electrostatic energy          :       -1118.80761700 Ha      -30444.30424759 eV
  | Energy correction for multipole
  | error in Hartree potential    :           0.00102561 Ha           0.02790838 eV
  | Sum of eigenvalues per atom                           :       -4473.65036550 eV
  | Total energy (T->0) per atom                          :       -7874.02032903 eV  <-- do not rely on this value for anything but (periodic) metals
  | Electronic free energy per atom                       :       -7874.02032903 eV

  Self-consistency convergence accuracy:
  | Change of charge density      :  0.1256E+00
  | Change of sum of eigenvalues  : -0.4846E+00 eV
  | Change of total energy        :  0.2323E-01 eV

  End self-consistency iteration #     1       :  max(cpu_time)    wall_clock(cpu1)
  | Time for this iteration                    :        4.160 s           4.160 s
  | Charge density update                      :        1.928 s           1.928 s
  | Density mixing & preconditioning           :        0.065 s           0.066 s
  | Hartree multipole update                   :        0.001 s           0.000 s
  | Hartree multipole summation                :        0.447 s           0.447 s
  | Integration                                :        1.079 s           1.079 s
  | Solution of K.-S. eqns.                    :        0.640 s           0.640 s
  | Total energy evaluation                    :        0.000 s           0.000 s

  Partial memory accounting:
  | Current value for overall tracked memory usage on task 0  :          10.883 MB
  | Peak value for overall tracked memory usage on task 0     :          14.613 MB after allocating wave
  | Largest tracked array allocation on task 0 so far         :           9.999 MB  when allocating +KS_eigenvector_complex
  Note:  These values currently only include a subset of arrays which are explicitly tracked.
  The "true" memory usage will be greater.
------------------------------------------------------------

------------------------------------------------------------
          Begin self-consistency iteration #    2

  Date     :  20190514, Time     :  105023.198
------------------------------------------------------------
  Evaluating new KS density using the density matrix
  Evaluating density matrix
  Time summed over all CPUs for getting density from density matrix: real work        1.776 s, elapsed        1.776 s
  Integration grid: deviation in total charge (<rho> - N_e) =   8.235190E-12
  Pulay mixing of updated and previous charge densities.

  Evaluating partitioned Hartree potential by multipole expansion.
  | Analytical far-field extrapolation by fixed multipoles:
  | Hartree multipole sum: apparent total charge =   0.105771E-01
  Summing up the Hartree potential.
  Time summed over all CPUs for potential: real work        0.615 s, elapsed        0.615 s
  | RMS charge density error from multipole expansion :   0.146759E-01
  | Average real-space part of the electrostatic potential :      0.49241110 eV

  Integrating Hamiltonian matrix: batch-based integration.
  Time summed over all CPUs for integration: real work        1.212 s, elapsed        1.212 s

  Updating Kohn-Sham eigenvalues, eigenvectors, occupation numbers, and Fermi level.
  Solving generalized eigenproblem

  Obtaining occupation numbers and chemical potential using ELSI.
  | Chemical potential (Fermi level):    -6.04302148eV
  What follows are estimated values for band gap, HOMO, LUMO, etc.
  | They are estimated on a discrete k-point grid and not necessarily exact.
  | For converged numbers, create a DOS and/or band structure plot on a denser k-grid.

  Highest occupied state (VBM) at     -6.07036875 eV (relative to internal zero)
  | Occupation number:      1.99989004
  | K-point:       1 at    0.000000    0.000000    0.000000 (in units of recip. lattice)

  Lowest unoccupied state (CBM) at    -6.01450128 eV (relative to internal zero)
  | Occupation number:      0.00005498
  | K-point:      48 at    0.000000    0.416667    0.416667 (in units of recip. lattice)

  ESTIMATED overall HOMO-LUMO gap:      0.05586747 eV between HOMO at k-point 1 and LUMO at k-point 48
  | This appears to be an indirect band gap.
  | Smallest direct gap :      2.58594829 eV for k_point 1 at    0.000000    0.416667    0.416667 (in units of recip. lattice)
  However, the gap value is rather small. Since we use a finite k-point grid,
  this material is most likely metallic (in the sense that there are states
  at or near the Fermi level). A DOS and/or band structure plot is required
  for an unambiguous distinction.

  Checking to see if s.c.f. parameters should be adjusted.
  Adjusted the Pulay mixing parameter (charge_mix_param) for an expected low-gap system. New value:   0.020000 .
  Adjusted the occupation broadening width for an expected low-gap system. New value:      0.05000000 eV.

  Total energy components:
  | Sum of eigenvalues            :        -327.56296190 Ha       -8913.44170414 eV
  | XC energy correction          :         -39.87281549 Ha       -1084.99451328 eV
  | XC potential correction       :          52.67757424 Ha        1433.42972720 eV
  | Free-atom electrostatic energy:        -262.71365604 Ha       -7148.80230797 eV
  | Hartree energy correction     :          -1.24922407 Ha         -33.99311639 eV
  | Entropy correction            :          -0.00000197 Ha          -0.00005367 eV
  | ---------------------------
  | Total energy                  :        -578.72108325 Ha      -15747.80191459 eV
  | Total energy, T -> 0          :        -578.72108522 Ha      -15747.80196826 eV  <-- do not rely on this value for anything but (periodic) metals
  | Electronic free energy        :        -578.72108720 Ha      -15747.80202193 eV

  Derived energy quantities:
  | Kinetic energy                :         580.54124751 Ha       15797.33110402 eV
  | Electrostatic energy          :       -1119.38951527 Ha      -30460.13850532 eV
  | Energy correction for multipole
  | error in Hartree potential    :           0.02003246 Ha           0.54511085 eV
  | Sum of eigenvalues per atom                           :       -4456.72085207 eV
  | Total energy (T->0) per atom                          :       -7873.90098413 eV  <-- do not rely on this value for anything but (periodic) metals
  | Electronic free energy per atom                       :       -7873.90101097 eV

  Self-consistency convergence accuracy:
  | Change of charge density      :  0.1193E+00
  | Change of sum of eigenvalues  :  0.3386E+02 eV
  | Change of total energy        :  0.2387E+00 eV

  End self-consistency iteration #     2       :  max(cpu_time)    wall_clock(cpu1)
  | Time for this iteration                    :        4.385 s           4.385 s
  | Charge density update                      :        1.864 s           1.865 s
  | Density mixing & preconditioning           :        0.059 s           0.059 s
  | Hartree multipole update                   :        0.002 s           0.002 s
  | Hartree multipole summation                :        0.618 s           0.618 s
  | Integration                                :        1.212 s           1.212 s
  | Solution of K.-S. eqns.                    :        0.628 s           0.629 s
  | Total energy evaluation                    :        0.000 s           0.000 s

  Partial memory accounting:
  | Current value for overall tracked memory usage on task 0  :          10.884 MB
  | Peak value for overall tracked memory usage on task 0     :          14.613 MB after allocating wave
  | Largest tracked array allocation on task 0 so far         :           9.999 MB  when allocating +KS_eigenvector_complex
  Note:  These values currently only include a subset of arrays which are explicitly tracked.
  The "true" memory usage will be greater.
------------------------------------------------------------

------------------------------------------------------------
          Begin self-consistency iteration #    3

  Date     :  20190514, Time     :  105027.583
------------------------------------------------------------
  Evaluating new KS density using the density matrix
  Evaluating density matrix
  Time summed over all CPUs for getting density from density matrix: real work        1.869 s, elapsed        1.869 s
  Integration grid: deviation in total charge (<rho> - N_e) =   8.441248E-12
  Pulay mixing of updated and previous charge densities.

  Evaluating partitioned Hartree potential by multipole expansion.
  | Analytical far-field extrapolation by fixed multipoles:
  | Hartree multipole sum: apparent total charge =   0.104078E-01
  Summing up the Hartree potential.
  Time summed over all CPUs for potential: real work        0.557 s, elapsed        0.557 s
  | RMS charge density error from multipole expansion :   0.141445E-01
  | Average real-space part of the electrostatic potential :      0.47325738 eV

  Integrating Hamiltonian matrix: batch-based integration.
  Time summed over all CPUs for integration: real work        1.009 s, elapsed        1.009 s

  Updating Kohn-Sham eigenvalues, eigenvectors, occupation numbers, and Fermi level.
  Solving generalized eigenproblem

  Obtaining occupation numbers and chemical potential using ELSI.
  | Chemical potential (Fermi level):    -6.06823389eV
  What follows are estimated values for band gap, HOMO, LUMO, etc.
  | They are estimated on a discrete k-point grid and not necessarily exact.
  | For converged numbers, create a DOS and/or band structure plot on a denser k-grid.

  Highest occupied state (VBM) at     -6.09833358 eV (relative to internal zero)
  | Occupation number:      1.60542376
  | K-point:       1 at    0.000000    0.000000    0.000000 (in units of recip. lattice)

  Lowest unoccupied state (CBM) at    -6.02265607 eV (relative to internal zero)
  | Occupation number:      0.19735099
  | K-point:      48 at    0.000000    0.416667    0.416667 (in units of recip. lattice)

  ESTIMATED overall HOMO-LUMO gap:      0.07567751 eV between HOMO at k-point 1 and LUMO at k-point 48
  | This appears to be an indirect band gap.
  | Smallest direct gap :      2.60049184 eV for k_point 1 at    0.000000    0.416667    0.416667 (in units of recip. lattice)
  However, this system has fractional occupation numbers. Since we use a finite k-point grid,
  this material is metallic within the approximate finite broadening function (occupation_type)
  applied to determine the occupation numbers.

  Total energy components:
  | Sum of eigenvalues            :        -327.61385631 Ha       -8914.82661166 eV
  | XC energy correction          :         -39.86827354 Ha       -1084.87092064 eV
  | XC potential correction       :          52.67157515 Ha        1433.26648352 eV
  | Free-atom electrostatic energy:        -262.71365604 Ha       -7148.80230797 eV
  | Hartree energy correction     :          -1.19671495 Ha         -32.56427068 eV
  | Entropy correction            :          -0.00000141 Ha          -0.00003843 eV
  | ---------------------------
  | Total energy                  :        -578.72092570 Ha      -15747.79762743 eV
  | Total energy, T -> 0          :        -578.72092711 Ha      -15747.79766585 eV  <-- do not rely on this value for anything but (periodic) metals
  | Electronic free energy        :        -578.72092852 Ha      -15747.79770428 eV

  Derived energy quantities:
  | Kinetic energy                :         580.50962261 Ha       15796.47054691 eV
  | Electrostatic energy          :       -1119.36227478 Ha      -30459.39725370 eV
  | Energy correction for multipole
  | error in Hartree potential    :           0.01929595 Ha           0.52506942 eV
  | Sum of eigenvalues per atom                           :       -4457.41330583 eV
  | Total energy (T->0) per atom                          :       -7873.89883293 eV  <-- do not rely on this value for anything but (periodic) metals
  | Electronic free energy per atom                       :       -7873.89885214 eV

  Self-consistency convergence accuracy:
  | Change of charge density      :  0.2112E-01
  | Change of sum of eigenvalues  : -0.1385E+01 eV
  | Change of total energy        :  0.4287E-02 eV

  End self-consistency iteration #     3       :  max(cpu_time)    wall_clock(cpu1)
  | Time for this iteration                    :        4.228 s           4.228 s
  | Charge density update                      :        1.961 s           1.961 s
  | Density mixing & preconditioning           :        0.058 s           0.059 s
  | Hartree multipole update                   :        0.001 s           0.001 s
  | Hartree multipole summation                :        0.562 s           0.561 s
  | Integration                                :        1.009 s           1.009 s
  | Solution of K.-S. eqns.                    :        0.636 s           0.636 s
  | Total energy evaluation                    :        0.000 s           0.000 s

  Partial memory accounting:
  | Current value for overall tracked memory usage on task 0  :          10.884 MB
  | Peak value for overall tracked memory usage on task 0     :          14.613 MB after allocating wave
  | Largest tracked array allocation on task 0 so far         :           9.999 MB  when allocating +KS_eigenvector_complex
  Note:  These values currently only include a subset of arrays which are explicitly tracked.
  The "true" memory usage will be greater.
------------------------------------------------------------

------------------------------------------------------------
          Begin self-consistency iteration #    4

  Date     :  20190514, Time     :  105031.811
------------------------------------------------------------
  Evaluating new KS density using the density matrix
  Evaluating density matrix
  Time summed over all CPUs for getting density from density matrix: real work        1.819 s, elapsed        1.819 s
  Integration grid: deviation in total charge (<rho> - N_e) =   8.412826E-12
  Pulay mixing of updated and previous charge densities.

  Evaluating partitioned Hartree potential by multipole expansion.
  | Analytical far-field extrapolation by fixed multipoles:
  | Hartree multipole sum: apparent total charge =   0.155436E-01
  Summing up the Hartree potential.
  Time summed over all CPUs for potential: real work        0.534 s, elapsed        0.534 s
  | RMS charge density error from multipole expansion :   0.165713E-01
  | Average real-space part of the electrostatic potential :      0.58147699 eV

  Integrating Hamiltonian matrix: batch-based integration.
  Time summed over all CPUs for integration: real work        0.991 s, elapsed        0.991 s

  Updating Kohn-Sham eigenvalues, eigenvectors, occupation numbers, and Fermi level.
  Solving generalized eigenproblem

  Obtaining occupation numbers and chemical potential using ELSI.
  | Chemical potential (Fermi level):    -5.98148894eV
  What follows are estimated values for band gap, HOMO, LUMO, etc.
  | They are estimated on a discrete k-point grid and not necessarily exact.
  | For converged numbers, create a DOS and/or band structure plot on a denser k-grid.

  Highest occupied state (VBM) at     -6.06425617 eV (relative to internal zero)
  | Occupation number:      1.98076839
  | K-point:     832 at    0.833333    0.916667    0.916667 (in units of recip. lattice)

  Lowest unoccupied state (CBM) at    -5.97374582 eV (relative to internal zero)
  | Occupation number:      0.82664347
  | K-point:      48 at    0.000000    0.416667    0.416667 (in units of recip. lattice)

  ESTIMATED overall HOMO-LUMO gap:      0.09051035 eV between HOMO at k-point 832 and LUMO at k-point 48
  | This appears to be an indirect band gap.
  | Smallest direct gap :      2.75856685 eV for k_point 9 at    0.000000    0.416667    0.416667 (in units of recip. lattice)
  However, this system has fractional occupation numbers. Since we use a finite k-point grid,
  this material is metallic within the approximate finite broadening function (occupation_type)
  applied to determine the occupation numbers.

  Total energy components:
  | Sum of eigenvalues            :        -327.01060585 Ha       -8898.41133135 eV
  | XC energy correction          :         -39.93388127 Ha       -1086.65619769 eV
  | XC potential correction       :          52.75854400 Ha        1435.63302645 eV
  | Free-atom electrostatic energy:        -262.71365604 Ha       -7148.80230797 eV
  | Hartree energy correction     :          -1.82315612 Ha         -49.61060231 eV
  | Entropy correction            :          -0.00000267 Ha          -0.00007263 eV
  | ---------------------------
  | Total energy                  :        -578.72275528 Ha      -15747.84741287 eV
  | Total energy, T -> 0          :        -578.72275795 Ha      -15747.84748550 eV  <-- do not rely on this value for anything but (periodic) metals
  | Electronic free energy        :        -578.72276062 Ha      -15747.84755813 eV

  Derived energy quantities:
  | Kinetic energy                :         581.35324505 Ha       15819.42668127 eV
  | Electrostatic energy          :       -1120.14211906 Ha      -30480.61789644 eV
  | Energy correction for multipole
  | error in Hartree potential    :           0.02365053 Ha           0.64356365 eV
  | Sum of eigenvalues per atom                           :       -4449.20566568 eV
  | Total energy (T->0) per atom                          :       -7873.92374275 eV  <-- do not rely on this value for anything but (periodic) metals
  | Electronic free energy per atom                       :       -7873.92377907 eV

  Self-consistency convergence accuracy:
  | Change of charge density      :  0.1831E-01
  | Change of sum of eigenvalues  :  0.1642E+02 eV
  | Change of total energy        : -0.4979E-01 eV

  End self-consistency iteration #     4       :  max(cpu_time)    wall_clock(cpu1)
  | Time for this iteration                    :        4.119 s           4.119 s
  | Charge density update                      :        1.903 s           1.903 s
  | Density mixing & preconditioning           :        0.060 s           0.060 s
  | Hartree multipole update                   :        0.001 s           0.001 s
  | Hartree multipole summation                :        0.538 s           0.538 s
  | Integration                                :        0.991 s           0.991 s
  | Solution of K.-S. eqns.                    :        0.625 s           0.625 s
  | Total energy evaluation                    :        0.000 s           0.000 s

  Partial memory accounting:
  | Current value for overall tracked memory usage on task 0  :          10.884 MB
  | Peak value for overall tracked memory usage on task 0     :          14.613 MB after allocating wave
  | Largest tracked array allocation on task 0 so far         :           9.999 MB  when allocating +KS_eigenvector_complex
  Note:  These values currently only include a subset of arrays which are explicitly tracked.
  The "true" memory usage will be greater.
------------------------------------------------------------

------------------------------------------------------------
          Begin self-consistency iteration #    5

  Date     :  20190514, Time     :  105035.930
------------------------------------------------------------
  Evaluating new KS density using the density matrix
  Evaluating density matrix
  Time summed over all CPUs for getting density from density matrix: real work        1.846 s, elapsed        1.846 s
  Integration grid: deviation in total charge (<rho> - N_e) =   8.444800E-12
  Pulay mixing of updated and previous charge densities.

  Evaluating partitioned Hartree potential by multipole expansion.
  | Analytical far-field extrapolation by fixed multipoles:
  | Hartree multipole sum: apparent total charge =   0.170894E-01
  Summing up the Hartree potential.
  Time summed over all CPUs for potential: real work        0.539 s, elapsed        0.539 s
  | RMS charge density error from multipole expansion :   0.162419E-01
  | Average real-space part of the electrostatic potential :      0.58113720 eV

  Integrating Hamiltonian matrix: batch-based integration.
  Time summed over all CPUs for integration: real work        0.985 s, elapsed        0.985 s

  Updating Kohn-Sham eigenvalues, eigenvectors, occupation numbers, and Fermi level.
  Solving generalized eigenproblem

  Obtaining occupation numbers and chemical potential using ELSI.
  | Chemical potential (Fermi level):    -5.98244249eV
  What follows are estimated values for band gap, HOMO, LUMO, etc.
  | They are estimated on a discrete k-point grid and not necessarily exact.
  | For converged numbers, create a DOS and/or band structure plot on a denser k-grid.

  Highest occupied state (VBM) at     -6.06665044 eV (relative to internal zero)
  | Occupation number:      1.98276989
  | K-point:      72 at    0.000000    0.916667    0.083333 (in units of recip. lattice)

  Lowest unoccupied state (CBM) at    -5.97391462 eV (relative to internal zero)
  | Occupation number:      0.80939647
  | K-point:      48 at    0.000000    0.416667    0.416667 (in units of recip. lattice)

  ESTIMATED overall HOMO-LUMO gap:      0.09273582 eV between HOMO at k-point 72 and LUMO at k-point 48
  | This appears to be an indirect band gap.
  | Smallest direct gap :      2.76122554 eV for k_point 9 at    0.000000    0.416667    0.416667 (in units of recip. lattice)
  However, this system has fractional occupation numbers. Since we use a finite k-point grid,
  this material is metallic within the approximate finite broadening function (occupation_type)
  applied to determine the occupation numbers.

  Total energy components:
  | Sum of eigenvalues            :        -326.90779340 Ha       -8895.61366235 eV
  | XC energy correction          :         -39.94580638 Ha       -1086.98069644 eV
  | XC potential correction       :          52.77439057 Ha        1436.06423360 eV
  | Free-atom electrostatic energy:        -262.71365604 Ha       -7148.80230797 eV
  | Hartree energy correction     :          -1.93021124 Ha         -52.52372017 eV
  | Entropy correction            :          -0.00000266 Ha          -0.00007242 eV
  | ---------------------------
  | Total energy                  :        -578.72307649 Ha      -15747.85615333 eV
  | Total energy, T -> 0          :        -578.72307915 Ha      -15747.85622575 eV  <-- do not rely on this value for anything but (periodic) metals
  | Electronic free energy        :        -578.72308181 Ha      -15747.85629817 eV

  Derived energy quantities:
  | Kinetic energy                :         581.55682773 Ha       15824.96644798 eV
  | Electrostatic energy          :       -1120.33409784 Ha      -30485.84190487 eV
  | Energy correction for multipole
  | error in Hartree potential    :           0.02346246 Ha           0.63844602 eV
  | Sum of eigenvalues per atom                           :       -4447.80683118 eV
  | Total energy (T->0) per atom                          :       -7873.92811287 eV  <-- do not rely on this value for anything but (periodic) metals
  | Electronic free energy per atom                       :       -7873.92814909 eV

  Self-consistency convergence accuracy:
  | Change of charge density      :  0.6051E-01
  | Change of sum of eigenvalues  :  0.2798E+01 eV
  | Change of total energy        : -0.8740E-02 eV

  End self-consistency iteration #     5       :  max(cpu_time)    wall_clock(cpu1)
  | Time for this iteration                    :        4.140 s           4.140 s
  | Charge density update                      :        1.931 s           1.931 s
  | Density mixing & preconditioning           :        0.057 s           0.057 s
  | Hartree multipole update                   :        0.002 s           0.002 s
  | Hartree multipole summation                :        0.543 s           0.543 s
  | Integration                                :        0.985 s           0.985 s
  | Solution of K.-S. eqns.                    :        0.622 s           0.621 s
  | Total energy evaluation                    :        0.000 s           0.000 s

  Partial memory accounting:
  | Current value for overall tracked memory usage on task 0  :          10.885 MB
  | Peak value for overall tracked memory usage on task 0     :          14.613 MB after allocating wave
  | Largest tracked array allocation on task 0 so far         :           9.999 MB  when allocating +KS_eigenvector_complex
  Note:  These values currently only include a subset of arrays which are explicitly tracked.
  The "true" memory usage will be greater.
------------------------------------------------------------

------------------------------------------------------------
          Begin self-consistency iteration #    6

  Date     :  20190514, Time     :  105040.070
------------------------------------------------------------
  Evaluating new KS density using the density matrix
  Evaluating density matrix
  Time summed over all CPUs for getting density from density matrix: real work        1.884 s, elapsed        1.884 s
  Integration grid: deviation in total charge (<rho> - N_e) =   8.348877E-12
  Pulay mixing of updated and previous charge densities.

  Evaluating partitioned Hartree potential by multipole expansion.
  | Analytical far-field extrapolation by fixed multipoles:
  | Hartree multipole sum: apparent total charge =   0.900838E-02
  Summing up the Hartree potential.
  Time summed over all CPUs for potential: real work        0.523 s, elapsed        0.523 s
  | RMS charge density error from multipole expansion :   0.154067E-01
  | Average real-space part of the electrostatic potential :      0.48107801 eV

  Integrating Hamiltonian matrix: batch-based integration.
  Time summed over all CPUs for integration: real work        0.979 s, elapsed        0.979 s

  Updating Kohn-Sham eigenvalues, eigenvectors, occupation numbers, and Fermi level.
  Solving generalized eigenproblem

  Obtaining occupation numbers and chemical potential using ELSI.
  | Chemical potential (Fermi level):    -6.06625170eV
  What follows are estimated values for band gap, HOMO, LUMO, etc.
  | They are estimated on a discrete k-point grid and not necessarily exact.
  | For converged numbers, create a DOS and/or band structure plot on a denser k-grid.

  Highest occupied state (VBM) at     -6.10136854 eV (relative to internal zero)
  | Occupation number:      1.67941403
  | K-point:       1 at    0.000000    0.000000    0.000000 (in units of recip. lattice)

  Lowest unoccupied state (CBM) at    -6.01661336 eV (relative to internal zero)
  | Occupation number:      0.16032357
  | K-point:      48 at    0.000000    0.416667    0.416667 (in units of recip. lattice)

  ESTIMATED overall HOMO-LUMO gap:      0.08475518 eV between HOMO at k-point 1 and LUMO at k-point 48
  | This appears to be an indirect band gap.
  | Smallest direct gap :      2.59933186 eV for k_point 1 at    0.000000    0.416667    0.416667 (in units of recip. lattice)
  However, this system has fractional occupation numbers. Since we use a finite k-point grid,
  this material is metallic within the approximate finite broadening function (occupation_type)
  applied to determine the occupation numbers.

  Total energy components:
  | Sum of eigenvalues            :        -327.60640233 Ha       -8914.62377859 eV
  | XC energy correction          :         -39.87601729 Ha       -1085.08163874 eV
  | XC potential correction       :          52.68184800 Ha        1433.54602219 eV
  | Free-atom electrostatic energy:        -262.71365604 Ha       -7148.80230797 eV
  | Hartree energy correction     :          -1.20652716 Ha         -32.83127451 eV
  | Entropy correction            :          -0.00000122 Ha          -0.00003326 eV
  | ---------------------------
  | Total energy                  :        -578.72075482 Ha      -15747.79297763 eV
  | Total energy, T -> 0          :        -578.72075605 Ha      -15747.79301088 eV  <-- do not rely on this value for anything but (periodic) metals
  | Electronic free energy        :        -578.72075727 Ha      -15747.79304414 eV

  Derived energy quantities:
  | Kinetic energy                :         580.60042156 Ha       15798.94131193 eV
  | Electrostatic energy          :       -1119.44515910 Ha      -30461.65265082 eV
  | Energy correction for multipole
  | error in Hartree potential    :           0.02132356 Ha           0.58024370 eV
  | Sum of eigenvalues per atom                           :       -4457.31188930 eV
  | Total energy (T->0) per atom                          :       -7873.89650544 eV  <-- do not rely on this value for anything but (periodic) metals
  | Electronic free energy per atom                       :       -7873.89652207 eV

  Self-consistency convergence accuracy:
  | Change of charge density      :  0.6880E-01
  | Change of sum of eigenvalues  : -0.1901E+02 eV
  | Change of total energy        :  0.6318E-01 eV

  End self-consistency iteration #     6       :  max(cpu_time)    wall_clock(cpu1)
  | Time for this iteration                    :        4.172 s           4.172 s
  | Charge density update                      :        1.968 s           1.968 s
  | Density mixing & preconditioning           :        0.058 s           0.058 s
  | Hartree multipole update                   :        0.001 s           0.001 s
  | Hartree multipole summation                :        0.527 s           0.527 s
  | Integration                                :        0.979 s           0.979 s
  | Solution of K.-S. eqns.                    :        0.638 s           0.639 s
  | Total energy evaluation                    :        0.000 s           0.000 s

  Partial memory accounting:
  | Current value for overall tracked memory usage on task 0  :          10.885 MB
  | Peak value for overall tracked memory usage on task 0     :          14.613 MB after allocating wave
  | Largest tracked array allocation on task 0 so far         :           9.999 MB  when allocating +KS_eigenvector_complex
  Note:  These values currently only include a subset of arrays which are explicitly tracked.
  The "true" memory usage will be greater.
------------------------------------------------------------

------------------------------------------------------------
          Begin self-consistency iteration #    7

  Date     :  20190514, Time     :  105044.242
------------------------------------------------------------
  Evaluating new KS density using the density matrix
  Evaluating density matrix
  Time summed over all CPUs for getting density from density matrix: real work        1.727 s, elapsed        1.727 s
  Integration grid: deviation in total charge (<rho> - N_e) =   8.526513E-12
  Pulay mixing of updated and previous charge densities.

  Evaluating partitioned Hartree potential by multipole expansion.
  | Analytical far-field extrapolation by fixed multipoles:
  | Hartree multipole sum: apparent total charge =   0.924215E-02
  Summing up the Hartree potential.
  Time summed over all CPUs for potential: real work        0.557 s, elapsed        0.557 s
  | RMS charge density error from multipole expansion :   0.152958E-01
  | Average real-space part of the electrostatic potential :      0.47990050 eV

  Integrating Hamiltonian matrix: batch-based integration.
  Time summed over all CPUs for integration: real work        1.000 s, elapsed        1.000 s

  Updating Kohn-Sham eigenvalues, eigenvectors, occupation numbers, and Fermi level.
  Solving generalized eigenproblem

  Obtaining occupation numbers and chemical potential using ELSI.
  | Chemical potential (Fermi level):    -6.06699441eV
  What follows are estimated values for band gap, HOMO, LUMO, etc.
  | They are estimated on a discrete k-point grid and not necessarily exact.
  | For converged numbers, create a DOS and/or band structure plot on a denser k-grid.

  Highest occupied state (VBM) at     -6.10230354 eV (relative to internal zero)
  | Occupation number:      1.68205666
  | K-point:       1 at    0.000000    0.000000    0.000000 (in units of recip. lattice)

  Lowest unoccupied state (CBM) at    -6.01719862 eV (relative to internal zero)
  | Occupation number:      0.15900157
  | K-point:      48 at    0.000000    0.416667    0.416667 (in units of recip. lattice)

  ESTIMATED overall HOMO-LUMO gap:      0.08510492 eV between HOMO at k-point 1 and LUMO at k-point 48
  | This appears to be an indirect band gap.
  | Smallest direct gap :      2.60015263 eV for k_point 1 at    0.000000    0.416667    0.416667 (in units of recip. lattice)
  However, this system has fractional occupation numbers. Since we use a finite k-point grid,
  this material is metallic within the approximate finite broadening function (occupation_type)
  applied to determine the occupation numbers.

  Total energy components:
  | Sum of eigenvalues            :        -327.60050640 Ha       -8914.46334216 eV
  | XC energy correction          :         -39.87630940 Ha       -1085.08958749 eV
  | XC potential correction       :          52.68223852 Ha        1433.55664860 eV
  | Free-atom electrostatic energy:        -262.71365604 Ha       -7148.80230797 eV
  | Hartree energy correction     :          -1.21253757 Ha         -32.99482602 eV
  | Entropy correction            :          -0.00000121 Ha          -0.00003306 eV
  | ---------------------------
  | Total energy                  :        -578.72077090 Ha      -15747.79341505 eV
  | Total energy, T -> 0          :        -578.72077211 Ha      -15747.79344811 eV  <-- do not rely on this value for anything but (periodic) metals
  | Electronic free energy        :        -578.72077333 Ha      -15747.79348117 eV

  Derived energy quantities:
  | Kinetic energy                :         580.60849855 Ha       15799.16109802 eV
  | Electrostatic energy          :       -1119.45296005 Ha      -30461.86492557 eV
  | Energy correction for multipole
  | error in Hartree potential    :           0.02117422 Ha           0.57617978 eV
  | Sum of eigenvalues per atom                           :       -4457.23167108 eV
  | Total energy (T->0) per atom                          :       -7873.89672406 eV  <-- do not rely on this value for anything but (periodic) metals
  | Electronic free energy per atom                       :       -7873.89674059 eV

  Self-consistency convergence accuracy:
  | Change of charge density      :  0.2033E-01
  | Change of sum of eigenvalues  :  0.1604E+00 eV
  | Change of total energy        : -0.4374E-03 eV

  End self-consistency iteration #     7       :  max(cpu_time)    wall_clock(cpu1)
  | Time for this iteration                    :        4.062 s           4.062 s
  | Charge density update                      :        1.814 s           1.814 s
  | Density mixing & preconditioning           :        0.060 s           0.060 s
  | Hartree multipole update                   :        0.001 s           0.001 s
  | Hartree multipole summation                :        0.563 s           0.562 s
  | Integration                                :        0.999 s           1.000 s
  | Solution of K.-S. eqns.                    :        0.625 s           0.625 s
  | Total energy evaluation                    :        0.000 s           0.000 s

  Partial memory accounting:
  | Current value for overall tracked memory usage on task 0  :          10.885 MB
  | Peak value for overall tracked memory usage on task 0     :          14.613 MB after allocating wave
  | Largest tracked array allocation on task 0 so far         :           9.999 MB  when allocating +KS_eigenvector_complex
  Note:  These values currently only include a subset of arrays which are explicitly tracked.
  The "true" memory usage will be greater.
------------------------------------------------------------

------------------------------------------------------------
          Begin self-consistency iteration #    8

  Date     :  20190514, Time     :  105048.304
------------------------------------------------------------
  Evaluating new KS density using the density matrix
  Evaluating density matrix
  Time summed over all CPUs for getting density from density matrix: real work        1.813 s, elapsed        1.813 s
  Integration grid: deviation in total charge (<rho> - N_e) =   8.302692E-12
  Pulay mixing of updated and previous charge densities.

  Evaluating partitioned Hartree potential by multipole expansion.
  | Analytical far-field extrapolation by fixed multipoles:
  | Hartree multipole sum: apparent total charge =   0.584983E-02
  Summing up the Hartree potential.
  Time summed over all CPUs for potential: real work        0.536 s, elapsed        0.536 s
  | RMS charge density error from multipole expansion :   0.149527E-01
  | Average real-space part of the electrostatic potential :      0.44238979 eV

  Integrating Hamiltonian matrix: batch-based integration.
  Time summed over all CPUs for integration: real work        1.031 s, elapsed        1.031 s

  Updating Kohn-Sham eigenvalues, eigenvectors, occupation numbers, and Fermi level.
  Solving generalized eigenproblem

  Obtaining occupation numbers and chemical potential using ELSI.
  | Chemical potential (Fermi level):    -6.10265052eV
  What follows are estimated values for band gap, HOMO, LUMO, etc.
  | They are estimated on a discrete k-point grid and not necessarily exact.
  | For converged numbers, create a DOS and/or band structure plot on a denser k-grid.

  Highest occupied state (VBM) at     -6.16055449 eV (relative to internal zero)
  | Occupation number:      1.89853069
  | K-point:       1 at    0.000000    0.000000    0.000000 (in units of recip. lattice)

  Lowest unoccupied state (CBM) at    -6.03357653 eV (relative to internal zero)
  | Occupation number:      0.05073584
  | K-point:      48 at    0.000000    0.416667    0.416667 (in units of recip. lattice)

  ESTIMATED overall HOMO-LUMO gap:      0.12697796 eV between HOMO at k-point 1 and LUMO at k-point 48
  | This appears to be an indirect band gap.
  | Smallest direct gap :      2.62650262 eV for k_point 1 at    0.000000    0.416667    0.416667 (in units of recip. lattice)
  However, this system has fractional occupation numbers. Since we use a finite k-point grid,
  this material is metallic within the approximate finite broadening function (occupation_type)
  applied to determine the occupation numbers.

  Total energy components:
  | Sum of eigenvalues            :        -327.84671745 Ha       -8921.16308562 eV
  | XC energy correction          :         -39.85348491 Ha       -1084.46850149 eV
  | XC potential correction       :          52.65198050 Ha        1432.73328616 eV
  | Free-atom electrostatic energy:        -262.71365604 Ha       -7148.80230797 eV
  | Hartree energy correction     :          -0.95855660 Ha         -26.08365227 eV
  | Entropy correction            :          -0.00000050 Ha          -0.00001367 eV
  | ---------------------------
  | Total energy                  :        -578.72043450 Ha      -15747.78426120 eV
  | Total energy, T -> 0          :        -578.72043500 Ha      -15747.78427487 eV  <-- do not rely on this value for anything but (periodic) metals
  | Electronic free energy        :        -578.72043551 Ha      -15747.78428854 eV

  Derived energy quantities:
  | Kinetic energy                :         580.31525123 Ha       15791.18143235 eV
  | Electrostatic energy          :       -1119.18220082 Ha      -30454.49719205 eV
  | Energy correction for multipole
  | error in Hartree potential    :           0.02042018 Ha           0.55566144 eV
  | Sum of eigenvalues per atom                           :       -4460.58154281 eV
  | Total energy (T->0) per atom                          :       -7873.89213743 eV  <-- do not rely on this value for anything but (periodic) metals
  | Electronic free energy per atom                       :       -7873.89214427 eV

  Self-consistency convergence accuracy:
  | Change of charge density      :  0.2048E-01
  | Change of sum of eigenvalues  : -0.6700E+01 eV
  | Change of total energy        :  0.9154E-02 eV

  End self-consistency iteration #     8       :  max(cpu_time)    wall_clock(cpu1)
  | Time for this iteration                    :        4.140 s           4.141 s
  | Charge density update                      :        1.904 s           1.904 s
  | Density mixing & preconditioning           :        0.056 s           0.056 s
  | Hartree multipole update                   :        0.001 s           0.001 s
  | Hartree multipole summation                :        0.541 s           0.541 s
  | Integration                                :        1.030 s           1.031 s
  | Solution of K.-S. eqns.                    :        0.607 s           0.607 s
  | Total energy evaluation                    :        0.000 s           0.001 s

  Partial memory accounting:
  | Current value for overall tracked memory usage on task 0  :          10.885 MB
  | Peak value for overall tracked memory usage on task 0     :          14.613 MB after allocating wave
  | Largest tracked array allocation on task 0 so far         :           9.999 MB  when allocating +KS_eigenvector_complex
  Note:  These values currently only include a subset of arrays which are explicitly tracked.
  The "true" memory usage will be greater.
------------------------------------------------------------

------------------------------------------------------------
          Begin self-consistency iteration #    9

  Date     :  20190514, Time     :  105052.445
------------------------------------------------------------
  Evaluating new KS density using the density matrix
  Evaluating density matrix
  Time summed over all CPUs for getting density from density matrix: real work        1.802 s, elapsed        1.802 s
  Integration grid: deviation in total charge (<rho> - N_e) =   8.355983E-12
  Pulay mixing of updated and previous charge densities.

  Evaluating partitioned Hartree potential by multipole expansion.
  | Analytical far-field extrapolation by fixed multipoles:
  | Hartree multipole sum: apparent total charge =   0.591740E-02
  Summing up the Hartree potential.
  Time summed over all CPUs for potential: real work        0.512 s, elapsed        0.512 s
  | RMS charge density error from multipole expansion :   0.149504E-01
  | Average real-space part of the electrostatic potential :      0.43743455 eV

  Integrating Hamiltonian matrix: batch-based integration.
  Time summed over all CPUs for integration: real work        0.981 s, elapsed        0.981 s

  Updating Kohn-Sham eigenvalues, eigenvectors, occupation numbers, and Fermi level.
  Solving generalized eigenproblem

  Obtaining occupation numbers and chemical potential using ELSI.
  | Chemical potential (Fermi level):    -6.10551318eV
  What follows are estimated values for band gap, HOMO, LUMO, etc.
  | They are estimated on a discrete k-point grid and not necessarily exact.
  | For converged numbers, create a DOS and/or band structure plot on a denser k-grid.

  Highest occupied state (VBM) at     -6.16528325 eV (relative to internal zero)
  | Occupation number:      1.90907776
  | K-point:       1 at    0.000000    0.000000    0.000000 (in units of recip. lattice)

  Lowest unoccupied state (CBM) at    -6.03478997 eV (relative to internal zero)
  | Occupation number:      0.04546201
  | K-point:      48 at    0.000000    0.416667    0.416667 (in units of recip. lattice)

  ESTIMATED overall HOMO-LUMO gap:      0.13049328 eV between HOMO at k-point 1 and LUMO at k-point 48
  | This appears to be an indirect band gap.
  | Smallest direct gap :      2.62857244 eV for k_point 1 at    0.000000    0.416667    0.416667 (in units of recip. lattice)
  However, this system has fractional occupation numbers. Since we use a finite k-point grid,
  this material is metallic within the approximate finite broadening function (occupation_type)
  applied to determine the occupation numbers.

  Total energy components:
  | Sum of eigenvalues            :        -327.87617349 Ha       -8921.96462520 eV
[...]
  | Largest tracked array allocation on task 0 so far         :           9.999 MB  when allocating +KS_eigenvector_complex
  Note:  These values currently only include a subset of arrays which are explicitly tracked.
  The "true" memory usage will be greater.
------------------------------------------------------------

------------------------------------------------------------
          Begin self-consistency iteration #   14

  Date     :  20190514, Time     :  105112.689
------------------------------------------------------------
  Evaluating new KS density using the density matrix
  Evaluating density matrix
  Time summed over all CPUs for getting density from density matrix: real work        1.749 s, elapsed        1.749 s
  Integration grid: deviation in total charge (<rho> - N_e) =   8.437695E-12
  Pulay mixing of updated and previous charge densities.

  Evaluating partitioned Hartree potential by multipole expansion.
  | Analytical far-field extrapolation by fixed multipoles:
  | Hartree multipole sum: apparent total charge =   0.692038E-02
  Summing up the Hartree potential.
  Time summed over all CPUs for potential: real work        0.527 s, elapsed        0.527 s
  | RMS charge density error from multipole expansion :   0.148270E-01
  | Average real-space part of the electrostatic potential :      0.42300795 eV

  Integrating Hamiltonian matrix: batch-based integration.
  Time summed over all CPUs for integration: real work        0.949 s, elapsed        0.949 s

  Updating Kohn-Sham eigenvalues, eigenvectors, occupation numbers, and Fermi level.
  Solving generalized eigenproblem

  Obtaining occupation numbers and chemical potential using ELSI.
  | Chemical potential (Fermi level):    -6.11339307eV
  What follows are estimated values for band gap, HOMO, LUMO, etc.
  | They are estimated on a discrete k-point grid and not necessarily exact.
  | For converged numbers, create a DOS and/or band structure plot on a denser k-grid.

  Highest occupied state (VBM) at     -6.17850695 eV (relative to internal zero)
  | Occupation number:      1.93448074
  | K-point:       1 at    0.000000    0.000000    0.000000 (in units of recip. lattice)

  Lowest unoccupied state (CBM) at    -6.03790900 eV (relative to internal zero)
  | Occupation number:      0.03276003
  | K-point:      48 at    0.000000    0.416667    0.416667 (in units of recip. lattice)

  ESTIMATED overall HOMO-LUMO gap:      0.14059795 eV between HOMO at k-point 1 and LUMO at k-point 48
  | This appears to be an indirect band gap.
  | Smallest direct gap :      2.63520545 eV for k_point 1 at    0.000000    0.416667    0.416667 (in units of recip. lattice)
  However, this system has fractional occupation numbers. Since we use a finite k-point grid,
  this material is metallic within the approximate finite broadening function (occupation_type)
  applied to determine the occupation numbers.

  Total energy components:
  | Sum of eigenvalues            :        -327.92342680 Ha       -8923.25045321 eV
  | XC energy correction          :         -39.84534637 Ha       -1084.24704072 eV
  | XC potential correction       :          52.64120693 Ha        1432.44012232 eV
  | Free-atom electrostatic energy:        -262.71365604 Ha       -7148.80230797 eV
  | Hartree energy correction     :          -0.87916938 Ha         -23.92341602 eV
  | Entropy correction            :          -0.00000035 Ha          -0.00000951 eV
  | ---------------------------
  | Total energy                  :        -578.72039167 Ha      -15747.78309561 eV
  | Total energy, T -> 0          :        -578.72039202 Ha      -15747.78310511 eV  <-- do not rely on this value for anything but (periodic) metals
  | Electronic free energy        :        -578.72039236 Ha      -15747.78311462 eV

  Derived energy quantities:
  | Kinetic energy                :         580.21884682 Ha       15788.55813487 eV
  | Electrostatic energy          :       -1119.09389211 Ha      -30452.09418976 eV
  | Energy correction for multipole
  | error in Hartree potential    :           0.02015116 Ha           0.54834085 eV
  | Sum of eigenvalues per atom                           :       -4461.62522660 eV
  | Total energy (T->0) per atom                          :       -7873.89155256 eV  <-- do not rely on this value for anything but (periodic) metals
  | Electronic free energy per atom                       :       -7873.89155731 eV

  Self-consistency convergence accuracy:
  | Change of charge density      :  0.2937E-05
  | Change of sum of eigenvalues  : -0.1172E-02 eV
  | Change of total energy        :  0.1298E-06 eV

  End self-consistency iteration #    14       :  max(cpu_time)    wall_clock(cpu1)
  | Time for this iteration                    :        3.979 s           3.979 s
  | Charge density update                      :        1.831 s           1.831 s
  | Density mixing & preconditioning           :        0.058 s           0.059 s
  | Hartree multipole update                   :        0.001 s           0.000 s
  | Hartree multipole summation                :        0.531 s           0.532 s
  | Integration                                :        0.950 s           0.949 s
  | Solution of K.-S. eqns.                    :        0.606 s           0.607 s
  | Total energy evaluation                    :        0.001 s           0.001 s

  Partial memory accounting:
  | Current value for overall tracked memory usage on task 0  :          10.886 MB
  | Peak value for overall tracked memory usage on task 0     :          14.613 MB after allocating wave
  | Largest tracked array allocation on task 0 so far         :           9.999 MB  when allocating +KS_eigenvector_complex
  Note:  These values currently only include a subset of arrays which are explicitly tracked.
  The "true" memory usage will be greater.
------------------------------------------------------------

------------------------------------------------------------
          Begin self-consistency iteration #   15

  Date     :  20190514, Time     :  105116.668
------------------------------------------------------------
  Evaluating new KS density using the density matrix
  Evaluating density matrix
  Time summed over all CPUs for getting density from density matrix: real work        1.748 s, elapsed        1.748 s
  Integration grid: deviation in total charge (<rho> - N_e) =   8.412826E-12
  Pulay mixing of updated and previous charge densities.

  Evaluating partitioned Hartree potential by multipole expansion.
  | Analytical far-field extrapolation by fixed multipoles:
  | Hartree multipole sum: apparent total charge =   0.692038E-02
  Summing up the Hartree potential.
  Time summed over all CPUs for potential: real work        0.507 s, elapsed        0.507 s
  | RMS charge density error from multipole expansion :   0.148270E-01
  | Average real-space part of the electrostatic potential :      0.42300798 eV

  Integrating Hamiltonian matrix: batch-based integration.
  Time summed over all CPUs for integration: real work        0.930 s, elapsed        0.930 s

  Updating Kohn-Sham eigenvalues, eigenvectors, occupation numbers, and Fermi level.
  Solving generalized eigenproblem

  Obtaining occupation numbers and chemical potential using ELSI.
  | Chemical potential (Fermi level):    -6.11339305eV
  What follows are estimated values for band gap, HOMO, LUMO, etc.
  | They are estimated on a discrete k-point grid and not necessarily exact.
  | For converged numbers, create a DOS and/or band structure plot on a denser k-grid.

  Highest occupied state (VBM) at     -6.17850692 eV (relative to internal zero)
  | Occupation number:      1.93448069
  | K-point:       1 at    0.000000    0.000000    0.000000 (in units of recip. lattice)

  Lowest unoccupied state (CBM) at    -6.03790899 eV (relative to internal zero)
  | Occupation number:      0.03276006
  | K-point:      48 at    0.000000    0.416667    0.416667 (in units of recip. lattice)

  ESTIMATED overall HOMO-LUMO gap:      0.14059793 eV between HOMO at k-point 1 and LUMO at k-point 48
  | This appears to be an indirect band gap.
  | Smallest direct gap :      2.63520544 eV for k_point 1 at    0.000000    0.416667    0.416667 (in units of recip. lattice)
  However, this system has fractional occupation numbers. Since we use a finite k-point grid,
  this material is metallic within the approximate finite broadening function (occupation_type)
  applied to determine the occupation numbers.

  Total energy components:
  | Sum of eigenvalues            :        -327.92342669 Ha       -8923.25045026 eV
  | XC energy correction          :         -39.84534638 Ha       -1084.24704101 eV
  | XC potential correction       :          52.64120694 Ha        1432.44012269 eV
  | Free-atom electrostatic energy:        -262.71365604 Ha       -7148.80230797 eV
  | Hartree energy correction     :          -0.87916949 Ha         -23.92341907 eV
  | Entropy correction            :          -0.00000035 Ha          -0.00000951 eV
  | ---------------------------
  | Total energy                  :        -578.72039167 Ha      -15747.78309561 eV
  | Total energy, T -> 0          :        -578.72039202 Ha      -15747.78310511 eV  <-- do not rely on this value for anything but (periodic) metals
  | Electronic free energy        :        -578.72039236 Ha      -15747.78311462 eV

  Derived energy quantities:
  | Kinetic energy                :         580.21884693 Ha       15788.55813801 eV
  | Electrostatic energy          :       -1119.09389221 Ha      -30452.09419262 eV
  | Energy correction for multipole
  | error in Hartree potential    :           0.02015116 Ha           0.54834088 eV
  | Sum of eigenvalues per atom                           :       -4461.62522513 eV
  | Total energy (T->0) per atom                          :       -7873.89155256 eV  <-- do not rely on this value for anything but (periodic) metals
  | Electronic free energy per atom                       :       -7873.89155731 eV

  Self-consistency convergence accuracy:
  | Change of charge density      :  0.2506E-07
  | Change of sum of eigenvalues  :  0.2951E-05 eV
  | Change of total energy        : -0.8476E-09 eV

  Preliminary charge convergence reached. Turning off preconditioner.

  Writing Kohn-Sham eigenvalues.
  K-point:       1 at    0.000000    0.000000    0.000000 (in units of recip. lattice)

  State    Occupation    Eigenvalue [Ha]    Eigenvalue [eV]
      1       2.00000         -65.480497        -1781.81498
      2       2.00000         -65.480497        -1781.81498
      3       2.00000          -5.098255         -138.73058
      4       2.00000          -5.097521         -138.71059
      5       2.00000          -3.511149          -95.54324
      6       2.00000          -3.511149          -95.54324
      7       2.00000          -3.511149          -95.54324
      8       2.00000          -3.509819          -95.50704
      9       2.00000          -3.509819          -95.50704
     10       2.00000          -3.509819          -95.50704
     11       2.00000          -0.718233          -19.54410
     12       1.93448          -0.227056           -6.17851
     13       1.93448          -0.227056           -6.17851
     14       1.93448          -0.227056           -6.17851
     15       0.00000          -0.130214           -3.54330
     16       0.00000          -0.130214           -3.54330
     17       0.00000          -0.130214           -3.54330
     18       0.00000          -0.014664           -0.39903
     19       0.00000           0.063235            1.72071
     20       0.00000           0.063235            1.72071

  What follows are estimated values for band gap, HOMO, LUMO, etc.
  | They are estimated on a discrete k-point grid and not necessarily exact.
  | For converged numbers, create a DOS and/or band structure plot on a denser k-grid.

  Highest occupied state (VBM) at     -6.17850692 eV (relative to internal zero)
  | Occupation number:      1.93448069
  | K-point:       1 at    0.000000    0.000000    0.000000 (in units of recip. lattice)

  Lowest unoccupied state (CBM) at    -6.03790899 eV (relative to internal zero)
  | Occupation number:      0.03276006
  | K-point:      48 at    0.000000    0.416667    0.416667 (in units of recip. lattice)

  ESTIMATED overall HOMO-LUMO gap:      0.14059793 eV between HOMO at k-point 1 and LUMO at k-point 48
  | This appears to be an indirect band gap.
  | Smallest direct gap :      2.63520544 eV for k_point 1 at    0.000000    0.416667    0.416667 (in units of recip. lattice)
  However, this system has fractional occupation numbers. Since we use a finite k-point grid,
  this material is metallic within the approximate finite broadening function (occupation_type)
  applied to determine the occupation numbers.

  Self-consistency cycle converged.

  End self-consistency iteration #    15       :  max(cpu_time)    wall_clock(cpu1)
  | Time for this iteration                    :        3.951 s           3.951 s
  | Charge density update                      :        1.837 s           1.837 s
  | Density mixing                             :        0.055 s           0.055 s
  | Hartree multipole update                   :        0.001 s           0.001 s
  | Hartree multipole summation                :        0.511 s           0.510 s
  | Integration                                :        0.930 s           0.931 s
  | Solution of K.-S. eqns.                    :        0.617 s           0.616 s
  | Total energy evaluation                    :        0.000 s           0.001 s

  Partial memory accounting:
  | Current value for overall tracked memory usage on task 0  :          10.886 MB
  | Peak value for overall tracked memory usage on task 0     :          14.613 MB after allocating wave
  | Largest tracked array allocation on task 0 so far         :           9.999 MB  when allocating +KS_eigenvector_complex
  Note:  These values currently only include a subset of arrays which are explicitly tracked.
  The "true" memory usage will be greater.
------------------------------------------------------------

  Energy and forces in a compact form:
  | Total energy uncorrected      :         -0.157477830956082E+05 eV
  | Total energy corrected        :         -0.157477831051142E+05 eV  <-- do not rely on this value for anything but (periodic) metals
  | Electronic free energy        :         -0.157477831146201E+05 eV

  ------------------------------------ 
  Start decomposition of the XC Energy 
  ------------------------------------ 
  X and C from original XC functional choice 
  Hartree-Fock Energy :          0.000000000 Ha              0.000000000 eV
  X Energy            :        -37.690860457 Ha          -1025.620496042 eV
  C Energy            :         -2.154485927 Ha            -58.626544965 eV
  Total XC Energy     :        -39.845346385 Ha          -1084.247041007 eV
  ------------------------------------ 
  LDA X and C from self-consistent density 
  X Energy LDA        :        -37.690860457 Ha          -1025.620496042 eV
  C Energy LDA        :         -2.154485927 Ha            -58.626544965 eV
  ------------------------------------ 
  End decomposition of the XC Energy 
  ------------------------------------ 

------------------------------------------------------------

------------------------------------------------------------------------------
  Final output of selected total energy values:

  The following output summarizes some interesting total energy values
  at the end of a run (AFTER all relaxation, molecular dynamics, etc.).

  | Total energy of the DFT / Hartree-Fock s.c.f. calculation      :         -15747.783095608 eV
  | Final zero-broadening corrected energy (caution - metals only) :         -15747.783105114 eV
  | For reference only, the value of 1 Hartree used in FHI-aims is :             27.211384500 eV

  Before relying on these values, please be sure to understand exactly which
  total energy value is referred to by a given number. Different objects may
  all carry the same name 'total energy'. Definitions:

  Total energy of the DFT / Hartree-Fock s.c.f. calculation:
  | Note that this energy does not include ANY quantities calculated after the
  | s.c.f. cycle, in particular not ANY RPA, MP2, etc. many-body perturbation terms.

  Final zero-broadening corrected energy:
  | For metallic systems only, a broadening of the occupation numbers at the Fermi
  | level can be extrapolated back to zero broadening by an electron-gas inspired
  | formula. For all systems that are not real metals, this value can be
  | meaningless and should be avoided.

------------------------------------------------------------------------------
  Methods described in the following list of references were used in this FHI-aims run.
  If you publish the results, please make sure to cite these reference if they apply.
  FHI-aims is an academic code, and for our developers (often, Ph.D. students
  and postdocs), scientific credit in the community is essential.
  Thank you for helping us!

  For any use of FHI-aims, please cite:

    Volker Blum, Ralf Gehrke, Felix Hanke, Paula Havu, Ville Havu,
    Xinguo Ren, Karsten Reuter, and Matthias Scheffler
    'Ab initio molecular simulations with numeric atom-centered orbitals'
    Computer Physics Communications 180, 2175-2196 (2009)
    http://dx.doi.org/10.1016/j.cpc.2009.06.022


  For the real-space grid partitioning and parallelization used in this calculation, please cite:

    Ville Havu, Volker Blum, Paula Havu, and Matthias Scheffler,
    'Efficient O(N) integration for all-electron electronic structure calculation'
    'using numerically tabulated basis functions'
    Journal of Computational Physics 228, 8367-8379 (2009).
    http://dx.doi.org/10.1016/j.jcp.2009.08.008

  Of course, there are many other important community references, e.g., those cited in the
  above references. Our list is limited to references that describe implementations in the
  FHI-aims code. The reason is purely practical (length of this list) - please credit others as well.

------------------------------------------------------------
          Leaving FHI-aims.
          Date     :  20190514, Time     :  105120.629

          Computational steps:
          | Number of self-consistency cycles          :           15
          | Number of SCF (re)initializations          :            1

          Detailed time accounting                     :  max(cpu_time)    wall_clock(cpu1)
          | Total time                                 :       65.296 s          65.298 s
          | Preparation time                           :        0.111 s           0.110 s
          | Boundary condition initalization           :        0.042 s           0.043 s
          | Grid partitioning                          :        0.038 s           0.038 s
          | Preloading free-atom quantities on grid    :        0.001 s           0.001 s
          | Free-atom superposition energy             :        0.047 s           0.047 s
          | Total time for integrations                :       17.088 s          17.089 s
          | Total time for solution of K.-S. equations :       10.634 s          10.633 s
          | Total time for density update              :       28.148 s          28.148 s
          | Total time for mixing & preconditioning    :        0.871 s           0.874 s
          | Total time for Hartree multipole update    :        0.015 s           0.015 s
          | Total time for Hartree multipole sum       :        8.037 s           8.036 s
          | Total time for total energy evaluation     :        0.005 s           0.005 s
          | Total time for scaled ZORA corrections     :        0.000 s           0.000 s

 This is a stub MPI_ALLREDUCE call.
 You should not be here. Check your
 setting on the use_mpi variable, or
 link against true MPI-libraries.
