------------------------------------------------------------
          Invoking FHI-aims ...
          Version 171221_1
          Compiled on 2019/05/06 at 14:26:40 on host ffph0xx.

          When using FHI-aims, please cite the following reference:

          Volker Blum, Ralf Gehrke, Felix Hanke, Paula Havu,
          Ville Havu, Xinguo Ren, Karsten Reuter, and Matthias Scheffler,
          'Ab Initio Molecular Simulations with Numeric Atom-Centered Orbitals',
          Computer Physics Communications 180, 2175-2196 (2009)

          For any questions about FHI-aims, please visit the aimsclub website
          with its forums and wiki. Contributions to both the forums and the
          wiki are warmly encouraged - they are for you, and everyone is welcome there.

------------------------------------------------------------



  Date     :  20190508, Time     :  170352.595
  Time zero on CPU 1             :   0.935000000000000E-03  s.
  Internal wall clock time zero  :           326567032.595  s.

  FHI-aims created a unique identifier for this run for later identification
  aims_uuid : 9C31BC21-C39B-4EB4-AE2F-B500B7475BDF


  Performing system and environment tests:
  *** Environment variable OMP_NUM_THREADS is not set
  *** For performance reasons you might want to set it to 1
  | Stacksize not measured: no C compiler

  Obtaining array dimensions for all initial allocations:
  
  -----------------------------------------------------------------------
  Parsing control.in (first pass over file, find array dimensions only).
  The contents of control.in will be repeated verbatim below
  unless switched off by setting 'verbatim_writeout .false.' .
  in the first line of control.in .
  -----------------------------------------------------------------------
  
  # Relaxation of the H3O+ molecule
  #--- Method ---
    xc  pw-lda
    charge 1.0 # this gives the cation
    spin none
  
  #######Iteration limit####################
    sc_iter_limit 100
  
  #######Relaxation######################
    ####relax_geometry trm 1E-3
  
  #######Species#########################
  ################################################################################
  #
  #  FHI-aims code project
  #  VB, Fritz-Haber Institut, 2009
  #
  #  Suggested "light" defaults for H atom (to be pasted into control.in file)
  #  Be sure to double-check any results obtained with these settings for post-processing,
  #  e.g., with the "tight" defaults and larger basis sets.
  #
  ################################################################################
    species        H
  #     global species definitions
      nucleus             1
      mass                1.00794
  #
      l_hartree           4
  #
      cut_pot             3.5  1.5  1.0
      basis_dep_cutoff    1e-4
  #
      radial_base         24 5.0
      radial_multiplier   1
      angular_grids       specified
        division   0.2421   50
        division   0.3822  110
        division   0.4799  194
        division   0.5341  302
  #      division   0.5626  434
  #      division   0.5922  590
  #      division   0.6542  770
  #      division   0.6868 1202
  #      outer_grid  770
        outer_grid  302
  ################################################################################
  #
  #  Definition of "minimal" basis
  #
  ################################################################################
  #     valence basis states
      valence      1  s   1.
  #     ion occupancy
      ion_occ      1  s   0.5
  ################################################################################
  #
  #  Suggested additional basis functions. For production calculations,
  #  uncomment them one after another (the most important basis functions are
  #  listed first).
  #
  #  Basis constructed for dimers: 0.5 A, 0.7 A, 1.0 A, 1.5 A, 2.5 A
  #
  ################################################################################
  #  "First tier" - improvements: -1014.90 meV to -62.69 meV
       hydro 2 s 2.1
       hydro 2 p 3.5
  #  "Second tier" - improvements: -12.89 meV to -1.83 meV
  #     hydro 1 s 0.85
  #     hydro 2 p 3.7
  #     hydro 2 s 1.2
  #     hydro 3 d 7
  #  "Third tier" - improvements: -0.25 meV to -0.12 meV
  #     hydro 4 f 11.2
  #     hydro 3 p 4.8
  #     hydro 4 d 9
  #     hydro 3 s 3.2
  ################################################################################
  #
  #  FHI-aims code project
  #  VB, Fritz-Haber Institut, 2009
  #
  #  Suggested "light" defaults for O atom (to be pasted into control.in file)
  #  Be sure to double-check any results obtained with these settings for post-processing,
  #  e.g., with the "tight" defaults and larger basis sets.
  #
  ################################################################################
    species        O
  #     global species definitions
      nucleus             8
      mass                15.9994
  #
      l_hartree           4
  #
      cut_pot             3.5  1.5  1.0
      basis_dep_cutoff    1e-4
  #
      radial_base         36 5.0
      radial_multiplier   1
       angular_grids specified
        division   0.2659   50
        division   0.4451  110
        division   0.6052  194
        division   0.7543  302
  #      division   0.8014  434
  #      division   0.8507  590
  #      division   0.8762  770
  #      division   0.9023  974
  #      division   1.2339 1202
  #      outer_grid 974
        outer_grid 302
  ################################################################################
  #
  #  Definition of "minimal" basis
  #
  ################################################################################
  #     valence basis states
      valence      2  s   2.
      valence      2  p   4.
  #     ion occupancy
      ion_occ      2  s   1.
      ion_occ      2  p   3.
  ################################################################################
  #
  #  Suggested additional basis functions. For production calculations,
  #  uncomment them one after another (the most important basis functions are
  #  listed first).
  #
  #  Constructed for dimers: 1.0 A, 1.208 A, 1.5 A, 2.0 A, 3.0 A
  #
  ################################################################################
  #  "First tier" - improvements: -699.05 meV to -159.38 meV
       hydro 2 p 1.8
       hydro 3 d 7.6
       hydro 3 s 6.4
  #  "Second tier" - improvements: -49.91 meV to -5.39 meV
  #     hydro 4 f 11.6
  #     hydro 3 p 6.2
  #     hydro 3 d 5.6
  #     hydro 5 g 17.6
  #     hydro 1 s 0.75
  #  "Third tier" - improvements: -2.83 meV to -0.50 meV
  #     ionic 2 p auto
  #     hydro 4 f 10.8
  #     hydro 4 d 4.7
  #     hydro 2 s 6.8
  #  "Fourth tier" - improvements: -0.40 meV to -0.12 meV
  #     hydro 3 p 5
  #     hydro 3 s 3.3
  #     hydro 5 g 15.6
  #     hydro 4 f 17.6
  #     hydro 4 d 14
  # Further basis functions - -0.08 meV and below
  #     hydro 3 s 2.1
  #     hydro 4 d 11.6
  #     hydro 3 p 16
  #     hydro 2 s 17.2
  /afs/ictp.it/public/shared/smr2475/fhi-aims/species_defaults/light/01_H_default
  compute_forces .true.
  final_forces_cleaned .true.
  output dipole
  
  -----------------------------------------------------------------------
  Completed first pass over input file control.in .
  -----------------------------------------------------------------------
  
  
  -----------------------------------------------------------------------
  Parsing geometry.in (first pass over file, find array dimensions only).
  The contents of geometry.in will be repeated verbatim below
  unless switched off by setting 'verbatim_writeout .false.' .
  in the first line of geometry.in .
  -----------------------------------------------------------------------
  
  #
  # temporary structure-file for finite-difference calculation of forces
  # displacement   0.0020 of \# atom     0 direction     1
  #
  atom   -0.00000000    0.00197090    0.00000000   O
  atom    0.85488761   -0.49352200   -0.00000000   H
  atom   -0.85488761   -0.49352200   -0.00000000   H
  atom   -0.00000000    0.98707310   -0.00000000   H
  
  -----------------------------------------------------------------------
  Completed first pass over input file geometry.in .
  -----------------------------------------------------------------------
  

  Basic array size parameters:
  | Number of species                 :        2
  | Number of atoms                   :        4
  | Max. basis fn. angular momentum   :        2
  | Max. atomic/ionic basis occupied n:        2
  | Max. number of basis fn. types    :        2
  | Max. radial fns per species/type  :        3
  | Max. logarithmic grid size        :     1301
  | Max. radial integration grid size :       36
  | Max. angular integration grid size:      302
  | Max. angular grid division number :        8
  | Radial grid for Hartree potential :     1301
  | Number of spin channels           :        1

------------------------------------------------------------
          Reading file control.in.
------------------------------------------------------------
  XC: Using Perdew-Wang parametrisation of Ceperley-Alder LDA.
  Charged system requested: Charge =   0.100000E+01.
  Spin treatment: No spin polarisation.
  Maximum number of s.-c. iterations  :   100

  Reading configuration options for species H                   .
  | Found nuclear charge :   1.0000
  | Found atomic mass :    1.0079400000000001      amu
  | Found l_max for Hartree potential  :   4
  | Found cutoff potl. onset [A], width [A], scale factor :    3.50000    1.50000    1.00000
  | Threshold for basis-dependent cutoff potential is   0.100000E-03
  | Found data for basic radial integration grid :    24 points, outermost radius =    5.000 A
  | Found multiplier for basic radial grid :   1
  | Found angular grid specification: user-specified.
  | Specified grid contains     5 separate shells.
  | Check grid settings after all constraints further below.
  | Found free-atom valence shell :  1 s   1.000
  | No ionic wave fns used. Skipping ion_occ.
  | Found hydrogenic basis function :  2 s   2.100
  | Found hydrogenic basis function :  2 p   3.500
  Species H                   : Missing cutoff potential type.
  Defaulting to exp(1/x)/(1-x)^2 type cutoff potential.
  Species H : No 'logarithmic' tag. Using default grid for free atom:
  | Default logarithmic grid data [bohr] : 0.1000E-03 0.1000E+03 0.1012E+01
  Species H : On-site basis accuracy parameter (for Gram-Schmidt orthonormalisation) not specified.
  Using default value basis_acc =  0.1000000E-03.
  Species H                   : Using default innermost maximum threshold i_radial=  2 for radial functions.
  Species H                   : Default cutoff onset for free atom density etc. : 0.35000000E+01 AA.
  Species H                   : Basic radial grid will be enhanced according to radial_multiplier =   1, to contain    24 grid points.

  Reading configuration options for species O                   .
  | Found nuclear charge :   8.0000
  | Found atomic mass :    15.999400000000000      amu
  | Found l_max for Hartree potential  :   4
  | Found cutoff potl. onset [A], width [A], scale factor :    3.50000    1.50000    1.00000
  | Threshold for basis-dependent cutoff potential is   0.100000E-03
  | Found data for basic radial integration grid :    36 points, outermost radius =    5.000 A
  | Found multiplier for basic radial grid :   1
  | Found angular grid specification: user-specified.
  | Specified grid contains     5 separate shells.
  | Check grid settings after all constraints further below.
  | Found free-atom valence shell :  2 s   2.000
  | Found free-atom valence shell :  2 p   4.000
  | No ionic wave fns used. Skipping ion_occ.
  | No ionic wave fns used. Skipping ion_occ.
  | Found hydrogenic basis function :  2 p   1.800
  | Found hydrogenic basis function :  3 d   7.600
  | Found hydrogenic basis function :  3 s   6.400
  Species O                   : Missing cutoff potential type.
  Defaulting to exp(1/x)/(1-x)^2 type cutoff potential.
  Species O : No 'logarithmic' tag. Using default grid for free atom:
  | Default logarithmic grid data [bohr] : 0.1000E-03 0.1000E+03 0.1012E+01
  Species O : On-site basis accuracy parameter (for Gram-Schmidt orthonormalisation) not specified.
  Using default value basis_acc =  0.1000000E-03.
  Species O                   : Using default innermost maximum threshold i_radial=  2 for radial functions.
  Species O                   : Default cutoff onset for free atom density etc. : 0.35000000E+01 AA.
  Species O                   : Basic radial grid will be enhanced according to radial_multiplier =   1, to contain    36 grid points.
  Forces will be computed.
  Cleaning forces before final output.
  Dipole moment will be written out.

  Finished reading input file 'control.in'. Consistency checks are next.

  MPI_IN_PLACE appears to work with this MPI implementation.
  | Keeping use_mpi_in_place .true. (see manual).
  Target number of points in a grid batch is not set. Defaulting to  100
  Method for grid partitioning is not set. Defaulting to 'maxmin' partitioning.
  Batch size limit is not set. Defaulting to    200
  By default, will store active basis functions for each batch.
  If in need of memory, prune_basis_once .false. can be used to disable this option.
  communication_type for Hartree potential was not specified.
  Defaulting to calc_hartree .
 * Attention: 
 * You may want to set distributed_spline_storage to .true. in order to save memory.
 * This doesn't harm performance and is perfectly ok unless:
 * - you get error messages in postprocessing (about missing atoms in get_rho_multipole_spl)
 * - you need full spline storage in hirshfeld_analysis
  Defaulting to Pulay charge density mixer.
  Pulay mixer: Number of relevant iterations not set.
  Defaulting to    8 iterations.
  Pulay mixer: Number of initial linear mixing iterations not set.
  Defaulting to    0 iterations.
  Work space size for distributed Hartree potential not set.
  Defaulting to   0.200000E+03 MB.
  Mixing parameter for charge density mixing has not been set.
  Using default: charge_mix_param =     0.0500.
  The mixing parameter will be adjusted in iteration number     2 of the first full s.c.f. cycle only.
  Algorithm-dependent basis array size parameters:
  | n_max_pulay                         :        8
 * Notice: The s.c.f. convergence criterion sc_accuracy_rho was not provided.
 * We used to stop in this case, and ask the user to provide reasonable
 * scf convergence criteria. However, this led some users to employ criteria
 * that led to extremely long run times, e.g., for simple relaxation.
 * We now preset a default value for sc_accuracy_rho if it is not set.
 * You may still wish to check if this setting is too tight or too loose for your needs.
 * Based on n_atoms, FHI-aims chose sc_accuracy_rho =  0.100000E-05 .
  Presetting      1001 iterations before the initial mixing cycle
  is restarted anyway using the sc_init_iter criterion / keyword.
  Presetting a factor      1.000 between actual scf density residual
  and density convergence criterion sc_accuracy_rho below which sc_init_iter
  takes no effect.
 * No s.c.f. convergence criteria (sc_accuracy_*) were provided in control.in.
 * The run will proceed with a reasonable default guess, but please check whether.
 * the s.c.f. cycles seem to take too much or too little time.
  Geometry relaxation not requested: no relaxation will be performed.
  Force calculation: scf convergence accuracy of forces not set.
  Defaulting to 'sc_accuracy_forces not_checked'.
  Handling of forces: Unphysical translation and rotation will be removed from forces.
  No accuracy limit for integral partition fn. given. Defaulting to  0.1000E-14.
  No threshold value for u(r) in integrations given. Defaulting to  0.1000E-05.
  No occupation type (smearing scheme) given. Defaulting to Gaussian broadening, width =  0.1000E-01 eV.
  The width will be adjusted in iteration number     2 of the first full s.c.f. cycle only.
  S.C.F. convergence parameters will be adjusted in iteration number     2 of the first full s.c.f. cycle only.
  No accuracy for occupation numbers given. Defaulting to  0.1000E-12.
  No threshold value for occupation numbers given. Defaulting to  0.0000E+00.
  No accuracy for fermi level given. Defaulting to  0.1000E-19.
  Maximum # of iterations to find E_F not set. Defaulting to  200.
  Preferred method for the eigenvalue solver ('KS_method') not specified in 'control.in'.
  Defaulting to serial version, 'lapack_fast'.
  Will not use alltoall communication since running on < 1024 CPUs.
  Threshold for basis singularities not set.
  Default threshold for basis singularities:  0.1000E-04
  partition_type (choice of integration weights) for integrals was not specified.
  | Using a version of the partition function of Stratmann and coworkers ('stratmann_smoother').
  | At each grid point, the set of atoms used to build the partition table is smoothly restricted to
  | only those atoms whose free-atom density would be non-zero at that grid point.
  Partitioning for Hartree potential was not defined. Using partition_type for integrals.
  | Adjusted default value of keyword multip_moments_threshold to:       0.10000000E-11
  | This value may affect high angular momentum components of the Hartree potential in periodic systems.
  No q(lm)/r^(l+1) cutoff set for long-range Hartree potential.
  | Using default value of  0.100000E-09 .
  | Verify using the multipole_threshold keyword.
  Defaulting to new monopole extrapolation.
  Density update method: automatic selection selected.
------------------------------------------------------------


------------------------------------------------------------
          Reading geometry description geometry.in.
------------------------------------------------------------
 * Warning: Initial charge and total charge of the system are inconsistent.
 * Selected charge in control.in:     1.0000* Sum of initial charges in geometry.in:     0.0000
 * Warning! You did not set the 'relativistic' flag in input file 'control.in'.
 * Since you are not attempting to treat any elements beyond Ca(Z=20), FHI-aims
 * will default to 'relativistic none'.
 * You must ensure that this is really what you want!!
 * For example, DO NOT compute total-energy differences between results from
 * different settings of the 'relativistic' flag.
  Input structure read successfully.
  The structure contains        4 atoms,  and a total of         10.000 electrons.

  Input geometry:
  | No unit cell requested.
  | Atomic structure:
  |       Atom                x [A]            y [A]            z [A]
  |    1: Species O            -0.00000000        0.00197090        0.00000000
  |    2: Species H             0.85488761       -0.49352200       -0.00000000
  |    3: Species H            -0.85488761       -0.49352200       -0.00000000
  |    4: Species H            -0.00000000        0.98707310       -0.00000000
  |

  | The smallest distance between any two atoms is         0.98510220 AA.
  |
  | The first atom of this pair is atom number                      1 .
  | The second atom of this pair is atom number                     4 .

  Number of empty states per atom not set in control.in - providing a guess from actual geometry.
  | Total number of empty states used during s.c.f. cycle:        8
  If you use a very high smearing, use empty_states (per atom!) in control.in to increase this value.

  Structure-dependent array size parameters: 
  | Maximum number of distinct radial functions  :        9
  | Maximum number of basis functions            :       29
  | Number of Kohn-Sham states (occupied + empty):       13
------------------------------------------------------------

------------------------------------------------------------
          Preparing all fixed parts of the calculation.
------------------------------------------------------------
  Determining machine precision:
     2.2250738585072014E-308
  Setting up grids for atomic and cluster calculations.

  Creating wave function, potential, and density for free atoms.

  Species: H

  List of occupied orbitals and eigenvalues:
    n    l              occ      energy [Ha]    energy [eV]
    1    0           1.0000        -0.232375        -6.3233


  Species: O

  List of occupied orbitals and eigenvalues:
    n    l              occ      energy [Ha]    energy [eV]
    1    0           2.0000       -18.757744      -510.4242
    2    0           2.0000        -0.870917       -23.6989
    2    1           4.0000        -0.337950        -9.1961

  Creating fixed part of basis set: Ionic, confined, hydrogenic.

  H                    hydrogenic:

  List of hydrogenic basis orbitals: 
    n    l      effective z      eigenvalue [eV]  inner max. [A]     outer max. [A]     outer radius [A]   
    2    0         2.100000       -14.9728           0.193243           1.317208           4.583499
    2    1         3.500000       -41.6669           0.602369           0.602369           3.723403


  O                    hydrogenic:

  List of hydrogenic basis orbitals: 
    n    l      effective z      eigenvalue [eV]  inner max. [A]     outer max. [A]     outer radius [A]   
    2    1         1.800000       -10.9749           1.164242           1.164242           4.578029
    3    2         7.600000       -87.3180           0.624125           0.624125           3.251020
    3    0         6.400000       -61.9207           0.061167           1.081902           4.001998


  Adding cutoff potential to free-atom effective potential.
  Creating atomic-like basis functions for current effective potential.

  Species H                   :

  List of atomic basis orbitals and eigenvalues:
    n    l      energy [Ha]    energy [eV]    outer radius [A]
    1    0        -0.232375        -6.3233       4.527807


  Species O                   :

  List of atomic basis orbitals and eigenvalues:
    n    l      energy [Ha]    energy [eV]    outer radius [A]
    1    0       -18.757744      -510.4242       1.433179
    2    0        -0.870917       -23.6989       4.413171
    2    1        -0.337950        -9.1961       4.522403

  Assembling full basis from fixed parts.
  | Species H :   atomic orbital   1 s accepted.
  | Species H :    hydro orbital   2 s accepted.
  | Species H :    hydro orbital   2 p accepted.
  | Species O :   atomic orbital   1 s accepted.
  | Species O :    hydro orbital   3 s accepted.
  | Species O :   atomic orbital   2 s accepted.
  | Species O :   atomic orbital   2 p accepted.
  | Species O :    hydro orbital   2 p accepted.
  | Species O :    hydro orbital   3 d accepted.

  Basis size parameters after reduction:
  | Total number of radial functions:        9
  | Total number of basis functions :       29

  Per-task memory consumption for arrays in subroutine allocate_ext:
  |           2.249476MB.
  Testing on-site integration grid accuracy.
  |  Species  Function  <phi|h_atom|phi> (log., in eV)  <phi|h_atom|phi> (rad., in eV)
           1        1                 -6.3245358373                 -6.3232436907
           1        2                 14.1326137532                 14.1384481100
           1        3                 25.3627025200                 25.3628451197
           2        4               -510.4241781769               -510.4240769412
           2        5                 14.9072942218                 14.9072945276
           2        6                -21.2004736467                -21.2005650544
           2        7                 -9.1962086499                 -9.1963509828
           2        8                  8.1896755011                  8.1702200086
           2        9                 45.7920584945                 45.7920228528

  Preparing densities etc. for the partition functions (integrals / Hartree potential).

  Preparations completed.
  max(cpu_time)          :      0.047 s.
  Wall clock time (cpu1) :      0.047 s.
------------------------------------------------------------

------------------------------------------------------------
          Begin self-consistency loop: Initialization.

          Date     :  20190508, Time     :  170352.644
------------------------------------------------------------

  Initializing index lists of integration centers etc. from given atomic structure:
  | Number of centers in hartree potential         :         4
  | Number of centers in hartree multipole         :         4
  | Number of centers in electron density summation:         4
  | Number of centers in basis integrals           :         4
  | Number of centers in integrals                 :         4
  | Number of centers in hamiltonian               :         4
  Partitioning the integration grid into batches with maxmin method.
  | Maximal weight for a single point:     1.000
  | Minimal weight for a single point:     0.000
  | Number of batches:      256
  | Maximal batch size:      90
  | Minimal batch size:      72
  | Average batch size:      80.719
  | Standard deviation of batch sizes:       6.453
  Initializing partition tables, free-atom densities, potentials, etc. across the integration grid (initialize_grid_storage).
  | initialize_grid_storage: Actual outermost partition radius vs. multipole_radius_free
  | (-- VB: in principle, multipole_radius_free should be larger, hence this output)
  | Species        1: Confinement radius =              4.999999999999999 AA, multipole_radius_free =              5.054417573612229 AA.
  | Species        1: outer_partition_radius set to              5.054417573612229 AA .
  | Species        2: Confinement radius =              4.999999999999999 AA, multipole_radius_free =              5.048384829883283 AA.
  | Species        2: outer_partition_radius set to              5.048384829883283 AA .
  | Original list of interatomic distances with           4 x          4 entries is created.
  | Net number of integration points:    20664
  | of which are non-zero points    :    18434
  Renormalizing the initial density to the exact electron count on the 3D integration grid.
  | Initial density: Formal number of electrons (from input files) :      11.0000000000
  | Integrated number of electrons on 3D grid     :      10.9999412409
  | Charge integration error                      :      -0.0000587591
  | Normalization factor for density and gradient :       1.0000053418
  Obtaining max. number of non-zero basis functions in each batch (get_n_compute_maxes).
  | Maximal number of non-zero basis functions:       29 in task     0
  Selecting the method for density update.
  Loop over occupied states selected for charge density update.
  Allocating        0.003 MB for KS_eigenvector
  Integrating Hamiltonian matrix: batch-based integration.
  Time summed over all CPUs for integration: real work        0.029 s, elapsed        0.029 s
  Integrating overlap matrix.
  Time summed over all CPUs for integration: real work        0.015 s, elapsed        0.015 s

  Updating Kohn-Sham eigenvalues, eigenvectors, occupation numbers, and Fermi level.
  Solving generalized eigenproblem
  Updating Kohn-Sham eigenvalues and eigenfunctions.
  Transforming overlap matrix and checking for singularities.
  Overlap matrix is nonsingular:
  | Lowest eigenvalue:  0.119883E-01
  Solving real generalised eigenvalue problem by standard LAPACK (fast)

  Obtaining occupation numbers and chemical potential using ELSI.
  | Chemical potential (Fermi level):    -6.58007186eV
  Writing Kohn-Sham eigenvalues.

  State    Occupation    Eigenvalue [Ha]    Eigenvalue [eV]
      1       2.00000         -18.914968         -514.70248
      2       2.00000          -1.148412          -31.24987
      3       2.00000          -0.685843          -18.66272
      4       2.00000          -0.684385          -18.62307
      5       2.00000          -0.491912          -13.38562
      6       0.00000          -0.091631           -2.49341
      7       0.00000           0.005062            0.13774
      8       0.00000           0.006006            0.16344
      9       0.00000           0.209699            5.70621
     10       0.00000           0.264921            7.20886
     11       0.00000           0.265083            7.21328
     12       0.00000           0.427824           11.64168
     13       0.00000           0.676539           18.40955

  Highest occupied state (VBM) at    -13.38561741 eV
  | Occupation number:      2.00000000

  Lowest unoccupied state (CBM) at    -2.49340732 eV
  | Occupation number:      0.00000000

  Overall HOMO-LUMO gap:     10.89221010 eV.
  Calculating total energy contributions from superposition of free atom densities.

  Total energy components:
  | Sum of eigenvalues            :         -43.85104003 Ha       -1193.24751096 eV
  | XC energy correction          :          -8.86463267 Ha        -241.21892796 eV
  | XC potential correction       :          11.67267628 Ha         317.62968240 eV
  | Free-atom electrostatic energy:         -35.26804344 Ha        -959.69229054 eV
  | Hartree energy correction     :          -0.00000000 Ha          -0.00000000 eV
  | Entropy correction            :          -0.00000000 Ha          -0.00000000 eV
  | ---------------------------
  | Total energy                  :         -76.31103985 Ha       -2076.52904707 eV
  | Total energy, T -> 0          :         -76.31103985 Ha       -2076.52904707 eV  <-- do not rely on this value for anything but (periodic) metals
  | Electronic free energy        :         -76.31103985 Ha       -2076.52904707 eV

  Derived energy quantities:
  | Kinetic energy                :          75.66659806 Ha        2058.99289375 eV
  | Electrostatic energy          :        -143.11300525 Ha       -3894.30301286 eV
  | Energy correction for multipole
  | error in Hartree potential    :           0.00000000 Ha           0.00000000 eV
  | Sum of eigenvalues per atom                           :        -298.31187774 eV
  | Total energy (T->0) per atom                          :        -519.13226177 eV  <-- do not rely on this value for anything but (periodic) metals
  | Electronic free energy per atom                       :        -519.13226177 eV
  Initialize hartree_potential_storage
  Max. number of atoms included in rho_multipole:            4

  End scf initialization - timings             :  max(cpu_time)    wall_clock(cpu1)
  | Time for scf. initialization               :        0.085 s           0.085 s
  | Boundary condition initialization          :        0.000 s           0.001 s
  | Integration                                :        0.044 s           0.044 s
  | Solution of K.-S. eqns.                    :        0.001 s           0.001 s
  | Grid partitioning                          :        0.014 s           0.014 s
  | Preloading free-atom quantities on grid    :        0.001 s           0.001 s
  | Free-atom superposition energy             :        0.012 s           0.012 s
  | Total energy evaluation                    :        0.000 s           0.000 s

  Partial memory accounting:
  | Current value for overall tracked memory usage on task 0  :           0.017 MB
  | Peak value for overall tracked memory usage on task 0     :           0.080 MB after allocating wave
  | Largest tracked array allocation on task 0 so far         :           0.021 MB  when allocating H_times_psi
  Note:  These values currently only include a subset of arrays which are explicitly tracked.
  The "true" memory usage will be greater.
------------------------------------------------------------

------------------------------------------------------------
          Begin self-consistency iteration #    1

  Date     :  20190508, Time     :  170352.729
------------------------------------------------------------
  Evaluating new KS density.
  Integration grid: deviation in total charge (<rho> - N_e) =  -5.329071E-15
  Pulay mixing of updated and previous charge densities.

  Evaluating partitioned Hartree potential by multipole expansion.
  | Analytical far-field extrapolation by fixed multipoles:
  | Hartree multipole sum: apparent total charge =   0.499207E-01
  Summing up the Hartree potential.
  Time summed over all CPUs for potential: real work        0.017 s, elapsed        0.017 s
  | RMS charge density error from multipole expansion :   0.542173E-03

  Integrating Hamiltonian matrix: batch-based integration.
  Time summed over all CPUs for integration: real work        0.028 s, elapsed        0.028 s

  Updating Kohn-Sham eigenvalues, eigenvectors, occupation numbers, and Fermi level.
  Solving generalized eigenproblem
  Updating Kohn-Sham eigenvalues and eigenfunctions.
  Solving real generalised eigenvalue problem by standard LAPACK (fast)

  Obtaining occupation numbers and chemical potential using ELSI.
  | Chemical potential (Fermi level):    -6.78371082eV
  Writing Kohn-Sham eigenvalues.

  State    Occupation    Eigenvalue [Ha]    Eigenvalue [eV]
      1       2.00000         -18.904026         -514.40471
      2       2.00000          -1.151729          -31.34014
      3       2.00000          -0.690734          -18.79584
      4       2.00000          -0.689292          -18.75658
      5       2.00000          -0.493997          -13.44233
      6       0.00000          -0.101671           -2.76661
      7       0.00000          -0.004189           -0.11397
      8       0.00000          -0.003222           -0.08766
      9       0.00000           0.202676            5.51509
     10       0.00000           0.254781            6.93295
     11       0.00000           0.254921            6.93677
     12       0.00000           0.417573           11.36274
     13       0.00000           0.668149           18.18126

  Highest occupied state (VBM) at    -13.44233084 eV
  | Occupation number:      2.00000000

  Lowest unoccupied state (CBM) at    -2.76661458 eV
  | Occupation number:      0.00000000

  Overall HOMO-LUMO gap:     10.67571626 eV.

  Total energy components:
  | Sum of eigenvalues            :         -43.85955442 Ha       -1193.47919942 eV
  | XC energy correction          :          -8.86852624 Ha        -241.32487755 eV
  | XC potential correction       :          11.67802959 Ha         317.77535343 eV
  | Free-atom electrostatic energy:         -35.26804344 Ha        -959.69229054 eV
  | Hartree energy correction     :           0.02511395 Ha           0.68338524 eV
  | Entropy correction            :          -0.00000000 Ha          -0.00000000 eV
  | ---------------------------
  | Total energy                  :         -76.29298057 Ha       -2076.03762884 eV
  | Total energy, T -> 0          :         -76.29298057 Ha       -2076.03762884 eV  <-- do not rely on this value for anything but (periodic) metals
  | Electronic free energy        :         -76.29298057 Ha       -2076.03762884 eV

  Derived energy quantities:
  | Kinetic energy                :          75.76004925 Ha        2061.53582996 eV
  | Electrostatic energy          :        -143.18450358 Ha       -3896.24858125 eV
  | Energy correction for multipole
  | error in Hartree potential    :           0.00057083 Ha           0.01553298 eV
  | Sum of eigenvalues per atom                           :        -298.36979985 eV
  | Total energy (T->0) per atom                          :        -519.00940721 eV  <-- do not rely on this value for anything but (periodic) metals
  | Electronic free energy per atom                       :        -519.00940721 eV

  Self-consistency convergence accuracy:
  | Change of charge density      :  0.2702E+00
  | Change of sum of eigenvalues  : -0.2317E+00 eV
  | Change of total energy        :  0.4914E+00 eV

  End self-consistency iteration #     1       :  max(cpu_time)    wall_clock(cpu1)
  | Time for this iteration                    :        0.061 s           0.062 s
  | Charge density update                      :        0.014 s           0.014 s
  | Density mixing                             :        0.000 s           0.000 s
  | Hartree multipole update                   :        0.001 s           0.002 s
  | Hartree multipole summation                :        0.017 s           0.017 s
  | Integration                                :        0.029 s           0.028 s
  | Solution of K.-S. eqns.                    :        0.000 s           0.001 s
  | Total energy evaluation                    :        0.000 s           0.000 s

  Partial memory accounting:
  | Current value for overall tracked memory usage on task 0  :           0.017 MB
  | Peak value for overall tracked memory usage on task 0     :           0.086 MB after allocating wave
  | Largest tracked array allocation on task 0 so far         :           0.021 MB  when allocating H_times_psi
  Note:  These values currently only include a subset of arrays which are explicitly tracked.
  The "true" memory usage will be greater.
------------------------------------------------------------

------------------------------------------------------------
          Begin self-consistency iteration #    2

  Date     :  20190508, Time     :  170352.791
------------------------------------------------------------
  Evaluating new KS density.
  Integration grid: deviation in total charge (<rho> - N_e) =   1.776357E-15
  Pulay mixing of updated and previous charge densities.

  Evaluating partitioned Hartree potential by multipole expansion.
  | Analytical far-field extrapolation by fixed multipoles:
  | Hartree multipole sum: apparent total charge =   0.445018E+00
  Summing up the Hartree potential.
  Time summed over all CPUs for potential: real work        0.017 s, elapsed        0.017 s
  | RMS charge density error from multipole expansion :   0.477032E-02

  Integrating Hamiltonian matrix: batch-based integration.
  Time summed over all CPUs for integration: real work        0.028 s, elapsed        0.028 s

  Updating Kohn-Sham eigenvalues, eigenvectors, occupation numbers, and Fermi level.
  Solving generalized eigenproblem
  Updating Kohn-Sham eigenvalues and eigenfunctions.
  Solving real generalised eigenvalue problem by standard LAPACK (fast)

  Obtaining occupation numbers and chemical potential using ELSI.
  | Chemical potential (Fermi level):    -8.43118864eV
  Highest occupied state (VBM) at    -14.14209056 eV
  | Occupation number:      2.00000000

  Lowest unoccupied state (CBM) at    -4.89493375 eV
  | Occupation number:      0.00000000

  Overall HOMO-LUMO gap:      9.24715680 eV.

  Checking to see if s.c.f. parameters should be adjusted.
  The system likely has a gap. Increased the default Pulay mixing parameter (charge_mix_param). Value:   0.200000 .
  Kept the default occupation width. Value:   0.010000 eV.

  Total energy components:
  | Sum of eigenvalues            :         -44.03124689 Ha       -1198.15118911 eV
  | XC energy correction          :          -8.89837020 Ha        -242.13697290 eV
  | XC potential correction       :          11.71903528 Ha         318.89117484 eV
  | Free-atom electrostatic energy:         -35.26804344 Ha        -959.69229054 eV
  | Hartree energy correction     :           0.27432796 Ha           7.46484348 eV
  | Entropy correction            :          -0.00000000 Ha          -0.00000000 eV
  | ---------------------------
  | Total energy                  :         -76.20429729 Ha       -2073.62443423 eV
  | Total energy, T -> 0          :         -76.20429729 Ha       -2073.62443423 eV  <-- do not rely on this value for anything but (periodic) metals
  | Electronic free energy        :         -76.20429729 Ha       -2073.62443423 eV

  Derived energy quantities:
  | Kinetic energy                :          76.33227524 Ha        2077.10689121 eV
  | Electrostatic energy          :        -143.63820233 Ha       -3908.59435254 eV
  | Energy correction for multipole
  | error in Hartree potential    :           0.00478246 Ha           0.13013745 eV
  | Sum of eigenvalues per atom                           :        -299.53779728 eV
  | Total energy (T->0) per atom                          :        -518.40610856 eV  <-- do not rely on this value for anything but (periodic) metals
  | Electronic free energy per atom                       :        -518.40610856 eV

  Self-consistency convergence accuracy:
  | Change of charge density      :  0.2442E+00
  | Change of sum of eigenvalues  : -0.4672E+01 eV
  | Change of total energy        :  0.2413E+01 eV

  End self-consistency iteration #     2       :  max(cpu_time)    wall_clock(cpu1)
  | Time for this iteration                    :        0.059 s           0.058 s
  | Charge density update                      :        0.012 s           0.011 s
  | Density mixing                             :        0.000 s           0.001 s
  | Hartree multipole update                   :        0.001 s           0.001 s
  | Hartree multipole summation                :        0.017 s           0.017 s
  | Integration                                :        0.028 s           0.028 s
  | Solution of K.-S. eqns.                    :        0.000 s           0.000 s
  | Total energy evaluation                    :        0.000 s           0.000 s

  Partial memory accounting:
  | Current value for overall tracked memory usage on task 0  :           0.018 MB
  | Peak value for overall tracked memory usage on task 0     :           0.087 MB after allocating wave
  | Largest tracked array allocation on task 0 so far         :           0.021 MB  when allocating H_times_psi
  Note:  These values currently only include a subset of arrays which are explicitly tracked.
  The "true" memory usage will be greater.
------------------------------------------------------------

------------------------------------------------------------
          Begin self-consistency iteration #    3

  Date     :  20190508, Time     :  170352.850
------------------------------------------------------------
  Evaluating new KS density.
  Integration grid: deviation in total charge (<rho> - N_e) =  -5.329071E-15
  Pulay mixing of updated and previous charge densities.

  Evaluating partitioned Hartree potential by multipole expansion.
  | Analytical far-field extrapolation by fixed multipoles:
  | Hartree multipole sum: apparent total charge =   0.845494E+00
  Summing up the Hartree potential.
  Time summed over all CPUs for potential: real work        0.016 s, elapsed        0.016 s
  | RMS charge density error from multipole expansion :   0.869194E-02

  Integrating Hamiltonian matrix: batch-based integration.
  Time summed over all CPUs for integration: real work        0.028 s, elapsed        0.028 s

  Updating Kohn-Sham eigenvalues, eigenvectors, occupation numbers, and Fermi level.
  Solving generalized eigenproblem
  Updating Kohn-Sham eigenvalues and eigenfunctions.
  Solving real generalised eigenvalue problem by standard LAPACK (fast)

  Obtaining occupation numbers and chemical potential using ELSI.
  | Chemical potential (Fermi level):   -11.27271784eV
  Highest occupied state (VBM) at    -17.60653930 eV
  | Occupation number:      2.00000000

  Lowest unoccupied state (CBM) at    -7.50115467 eV
  | Occupation number:      0.00000000

  Overall HOMO-LUMO gap:     10.10538463 eV.

  Total energy components:
  | Sum of eigenvalues            :         -45.40490974 Ha       -1235.53045714 eV
  | XC energy correction          :          -8.80030545 Ha        -239.46849536 eV
  | XC potential correction       :          11.59086563 Ha         315.40350131 eV
  | Free-atom electrostatic energy:         -35.26804344 Ha        -959.69229054 eV
  | Hartree energy correction     :           1.70844211 Ha          46.48907524 eV
  | Entropy correction            :          -0.00000000 Ha          -0.00000000 eV
  | ---------------------------
  | Total energy                  :         -76.17395089 Ha       -2072.79866649 eV
  | Total energy, T -> 0          :         -76.17395089 Ha       -2072.79866649 eV  <-- do not rely on this value for anything but (periodic) metals
  | Electronic free energy        :         -76.17395089 Ha       -2072.79866649 eV

  Derived energy quantities:
  | Kinetic energy                :          75.81000719 Ha        2062.89525463 eV
  | Electrostatic energy          :        -143.18365263 Ha       -3896.22542576 eV
  | Energy correction for multipole
  | error in Hartree potential    :           0.00602860 Ha           0.16404661 eV
  | Sum of eigenvalues per atom                           :        -308.88261428 eV
  | Total energy (T->0) per atom                          :        -518.19966662 eV  <-- do not rely on this value for anything but (periodic) metals
  | Electronic free energy per atom                       :        -518.19966662 eV

  Self-consistency convergence accuracy:
  | Change of charge density      :  0.1100E+00
  | Change of sum of eigenvalues  : -0.3738E+02 eV
  | Change of total energy        :  0.8258E+00 eV

  End self-consistency iteration #     3       :  max(cpu_time)    wall_clock(cpu1)
  | Time for this iteration                    :        0.058 s           0.057 s
  | Charge density update                      :        0.011 s           0.011 s
  | Density mixing                             :        0.000 s           0.000 s
  | Hartree multipole update                   :        0.001 s           0.001 s
  | Hartree multipole summation                :        0.016 s           0.017 s
  | Integration                                :        0.028 s           0.028 s
  | Solution of K.-S. eqns.                    :        0.000 s           0.000 s
  | Total energy evaluation                    :        0.000 s           0.000 s

  Partial memory accounting:
  | Current value for overall tracked memory usage on task 0  :           0.018 MB
  | Peak value for overall tracked memory usage on task 0     :           0.088 MB after allocating wave
  | Largest tracked array allocation on task 0 so far         :           0.021 MB  when allocating H_times_psi
  Note:  These values currently only include a subset of arrays which are explicitly tracked.
  The "true" memory usage will be greater.
------------------------------------------------------------

------------------------------------------------------------
          Begin self-consistency iteration #    4

  Date     :  20190508, Time     :  170352.907
------------------------------------------------------------
  Evaluating new KS density.
  Integration grid: deviation in total charge (<rho> - N_e) =  -1.065814E-14
  Pulay mixing of updated and previous charge densities.

  Evaluating partitioned Hartree potential by multipole expansion.
  | Analytical far-field extrapolation by fixed multipoles:
  | Hartree multipole sum: apparent total charge =   0.101139E+01
  Summing up the Hartree potential.
  Time summed over all CPUs for potential: real work        0.017 s, elapsed        0.017 s
  | RMS charge density error from multipole expansion :   0.104188E-01

  Integrating Hamiltonian matrix: batch-based integration.
  Time summed over all CPUs for integration: real work        0.029 s, elapsed        0.029 s

  Updating Kohn-Sham eigenvalues, eigenvectors, occupation numbers, and Fermi level.
  Solving generalized eigenproblem
  Updating Kohn-Sham eigenvalues and eigenfunctions.
  Solving real generalised eigenvalue problem by standard LAPACK (fast)

  Obtaining occupation numbers and chemical potential using ELSI.
  | Chemical potential (Fermi level):   -11.99472979eV
  Highest occupied state (VBM) at    -18.41934752 eV
  | Occupation number:      2.00000000

  Lowest unoccupied state (CBM) at    -8.30584974 eV
  | Occupation number:      0.00000000

  Overall HOMO-LUMO gap:     10.11349778 eV.

  Total energy components:
  | Sum of eigenvalues            :         -45.70473547 Ha       -1243.68913022 eV
  | XC energy correction          :          -8.79686472 Ha        -239.37486822 eV
  | XC potential correction       :          11.58682804 Ha         315.29363294 eV
  | Free-atom electrostatic energy:         -35.26804344 Ha        -959.69229054 eV
  | Hartree energy correction     :           2.01152518 Ha          54.73638519 eV
  | Entropy correction            :          -0.00000000 Ha          -0.00000000 eV
  | ---------------------------
  | Total energy                  :         -76.17129040 Ha       -2072.72627085 eV
  | Total energy, T -> 0          :         -76.17129040 Ha       -2072.72627085 eV  <-- do not rely on this value for anything but (periodic) metals
  | Electronic free energy        :         -76.17129040 Ha       -2072.72627085 eV

  Derived energy quantities:
  | Kinetic energy                :          75.78756245 Ha        2062.28450210 eV
  | Electrostatic energy          :        -143.16198813 Ha       -3895.63590473 eV
  | Energy correction for multipole
  | error in Hartree potential    :           0.00710332 Ha           0.19329110 eV
  | Sum of eigenvalues per atom                           :        -310.92228255 eV
  | Total energy (T->0) per atom                          :        -518.18156771 eV  <-- do not rely on this value for anything but (periodic) metals
  | Electronic free energy per atom                       :        -518.18156771 eV

  Self-consistency convergence accuracy:
  | Change of charge density      :  0.5030E-01
  | Change of sum of eigenvalues  : -0.8159E+01 eV
  | Change of total energy        :  0.7240E-01 eV

  End self-consistency iteration #     4       :  max(cpu_time)    wall_clock(cpu1)
  | Time for this iteration                    :        0.060 s           0.060 s
  | Charge density update                      :        0.012 s           0.012 s
  | Density mixing                             :        0.000 s           0.000 s
  | Hartree multipole update                   :        0.001 s           0.002 s
  | Hartree multipole summation                :        0.017 s           0.017 s
  | Integration                                :        0.029 s           0.029 s
  | Solution of K.-S. eqns.                    :        0.000 s           0.000 s
  | Total energy evaluation                    :        0.000 s           0.000 s

  Partial memory accounting:
  | Current value for overall tracked memory usage on task 0  :           0.019 MB
  | Peak value for overall tracked memory usage on task 0     :           0.088 MB after allocating wave
  | Largest tracked array allocation on task 0 so far         :           0.021 MB  when allocating H_times_psi
  Note:  These values currently only include a subset of arrays which are explicitly tracked.
  The "true" memory usage will be greater.
------------------------------------------------------------

------------------------------------------------------------
          Begin self-consistency iteration #    5

  Date     :  20190508, Time     :  170352.967
------------------------------------------------------------
  Evaluating new KS density.
  Integration grid: deviation in total charge (<rho> - N_e) =  -1.243450E-14
  Pulay mixing of updated and previous charge densities.

  Evaluating partitioned Hartree potential by multipole expansion.
  | Analytical far-field extrapolation by fixed multipoles:
  | Hartree multipole sum: apparent total charge =   0.100808E+01
  Summing up the Hartree potential.
  Time summed over all CPUs for potential: real work        0.017 s, elapsed        0.017 s
  | RMS charge density error from multipole expansion :   0.104612E-01

  Integrating Hamiltonian matrix: batch-based integration.
  Time summed over all CPUs for integration: real work        0.028 s, elapsed        0.028 s

  Updating Kohn-Sham eigenvalues, eigenvectors, occupation numbers, and Fermi level.
  Solving generalized eigenproblem
  Updating Kohn-Sham eigenvalues and eigenfunctions.
  Solving real generalised eigenvalue problem by standard LAPACK (fast)

  Obtaining occupation numbers and chemical potential using ELSI.
  | Chemical potential (Fermi level):   -11.79224593eV
  Highest occupied state (VBM) at    -18.12254184 eV
  | Occupation number:      2.00000000

  Lowest unoccupied state (CBM) at    -8.15563463 eV
  | Occupation number:      0.00000000

  Overall HOMO-LUMO gap:      9.96690721 eV.

  Total energy components:
  | Sum of eigenvalues            :         -45.58584174 Ha       -1240.45386737 eV
  | XC energy correction          :          -8.81226934 Ha        -239.79404939 eV
  | XC potential correction       :          11.60710465 Ha         315.84538769 eV
  | Free-atom electrostatic energy:         -35.26804344 Ha        -959.69229054 eV
  | Hartree energy correction     :           1.88788463 Ha          51.37195461 eV
  | Entropy correction            :          -0.00000000 Ha          -0.00000000 eV
  | ---------------------------
  | Total energy                  :         -76.17116523 Ha       -2072.72286501 eV
  | Total energy, T -> 0          :         -76.17116523 Ha       -2072.72286501 eV  <-- do not rely on this value for anything but (periodic) metals
  | Electronic free energy        :         -76.17116523 Ha       -2072.72286501 eV

  Derived energy quantities:
  | Kinetic energy                :          75.84404686 Ha        2063.82152124 eV
  | Electrostatic energy          :        -143.20294276 Ha       -3896.75033686 eV
  | Energy correction for multipole
  | error in Hartree potential    :           0.00696666 Ha           0.18957258 eV
  | Sum of eigenvalues per atom                           :        -310.11346684 eV
  | Total energy (T->0) per atom                          :        -518.18071625 eV  <-- do not rely on this value for anything but (periodic) metals
  | Electronic free energy per atom                       :        -518.18071625 eV

  Self-consistency convergence accuracy:
  | Change of charge density      :  0.1085E-01
  | Change of sum of eigenvalues  :  0.3235E+01 eV
  | Change of total energy        :  0.3406E-02 eV

  End self-consistency iteration #     5       :  max(cpu_time)    wall_clock(cpu1)
  | Time for this iteration                    :        0.062 s           0.062 s
  | Charge density update                      :        0.013 s           0.013 s
  | Density mixing                             :        0.001 s           0.001 s
  | Hartree multipole update                   :        0.001 s           0.002 s
  | Hartree multipole summation                :        0.017 s           0.017 s
  | Integration                                :        0.028 s           0.028 s
  | Solution of K.-S. eqns.                    :        0.000 s           0.000 s
  | Total energy evaluation                    :        0.000 s           0.001 s

  Partial memory accounting:
  | Current value for overall tracked memory usage on task 0  :           0.019 MB
  | Peak value for overall tracked memory usage on task 0     :           0.088 MB after allocating wave
  | Largest tracked array allocation on task 0 so far         :           0.021 MB  when allocating H_times_psi
  Note:  These values currently only include a subset of arrays which are explicitly tracked.
  The "true" memory usage will be greater.
------------------------------------------------------------

------------------------------------------------------------
          Begin self-consistency iteration #    6

  Date     :  20190508, Time     :  170353.029
------------------------------------------------------------
  Evaluating new KS density.
  Integration grid: deviation in total charge (<rho> - N_e) =  -1.776357E-15
  Pulay mixing of updated and previous charge densities.

  Evaluating partitioned Hartree potential by multipole expansion.
  | Analytical far-field extrapolation by fixed multipoles:
  | Hartree multipole sum: apparent total charge =   0.998798E+00
  Summing up the Hartree potential.
  Time summed over all CPUs for potential: real work        0.017 s, elapsed        0.017 s
  | RMS charge density error from multipole expansion :   0.103742E-01

  Integrating Hamiltonian matrix: batch-based integration.
  Time summed over all CPUs for integration: real work        0.029 s, elapsed        0.029 s

  Updating Kohn-Sham eigenvalues, eigenvectors, occupation numbers, and Fermi level.
  Solving generalized eigenproblem
  Updating Kohn-Sham eigenvalues and eigenfunctions.
  Solving real generalised eigenvalue problem by standard LAPACK (fast)

  Obtaining occupation numbers and chemical potential using ELSI.
  | Chemical potential (Fermi level):   -11.79280202eV
  Highest occupied state (VBM) at    -18.11821886 eV
  | Occupation number:      2.00000000

  Lowest unoccupied state (CBM) at    -8.12460123 eV
  | Occupation number:      0.00000000

  Overall HOMO-LUMO gap:      9.99361763 eV.

  Total energy components:
  | Sum of eigenvalues            :         -45.58870548 Ha       -1240.53179358 eV
  | XC energy correction          :          -8.81014408 Ha        -239.73621793 eV
  | XC potential correction       :          11.60425961 Ha         315.76797012 eV
  | Free-atom electrostatic energy:         -35.26804344 Ha        -959.69229054 eV
  | Hartree energy correction     :           1.89150220 Ha          51.47039377 eV
  | Entropy correction            :          -0.00000000 Ha          -0.00000000 eV
  | ---------------------------
  | Total energy                  :         -76.17113117 Ha       -2072.72193816 eV
  | Total energy, T -> 0          :         -76.17113117 Ha       -2072.72193816 eV  <-- do not rely on this value for anything but (periodic) metals
  | Electronic free energy        :         -76.17113117 Ha       -2072.72193816 eV

  Derived energy quantities:
  | Kinetic energy                :          75.82284295 Ha        2063.24453344 eV
  | Electrostatic energy          :        -143.18383005 Ha       -3896.23025366 eV
  | Energy correction for multipole
  | error in Hartree potential    :           0.00678360 Ha           0.18459118 eV
  | Sum of eigenvalues per atom                           :        -310.13294839 eV
  | Total energy (T->0) per atom                          :        -518.18048454 eV  <-- do not rely on this value for anything but (periodic) metals
  | Electronic free energy per atom                       :        -518.18048454 eV

  Self-consistency convergence accuracy:
  | Change of charge density      :  0.7485E-02
  | Change of sum of eigenvalues  : -0.7793E-01 eV
  | Change of total energy        :  0.9268E-03 eV

  End self-consistency iteration #     6       :  max(cpu_time)    wall_clock(cpu1)
  | Time for this iteration                    :        0.059 s           0.059 s
  | Charge density update                      :        0.012 s           0.011 s
  | Density mixing                             :        0.001 s           0.001 s
  | Hartree multipole update                   :        0.001 s           0.001 s
  | Hartree multipole summation                :        0.017 s           0.017 s
  | Integration                                :        0.029 s           0.029 s
  | Solution of K.-S. eqns.                    :        0.000 s           0.000 s
  | Total energy evaluation                    :        0.000 s           0.000 s

  Partial memory accounting:
  | Current value for overall tracked memory usage on task 0  :           0.019 MB
  | Peak value for overall tracked memory usage on task 0     :           0.089 MB after allocating wave
  | Largest tracked array allocation on task 0 so far         :           0.021 MB  when allocating H_times_psi
  Note:  These values currently only include a subset of arrays which are explicitly tracked.
  The "true" memory usage will be greater.
------------------------------------------------------------

------------------------------------------------------------
          Begin self-consistency iteration #    7

  Date     :  20190508, Time     :  170353.088
------------------------------------------------------------
  Evaluating new KS density.
  Integration grid: deviation in total charge (<rho> - N_e) =  -1.776357E-14
  Pulay mixing of updated and previous charge densities.

  Evaluating partitioned Hartree potential by multipole expansion.
  | Analytical far-field extrapolation by fixed multipoles:
  | Hartree multipole sum: apparent total charge =   0.999245E+00
  Summing up the Hartree potential.
  Time summed over all CPUs for potential: real work        0.017 s, elapsed        0.017 s
  | RMS charge density error from multipole expansion :   0.103672E-01

  Integrating Hamiltonian matrix: batch-based integration.
  Time summed over all CPUs for integration: real work        0.029 s, elapsed        0.029 s

  Updating Kohn-Sham eigenvalues, eigenvectors, occupation numbers, and Fermi level.
  Solving generalized eigenproblem
  Updating Kohn-Sham eigenvalues and eigenfunctions.
  Solving real generalised eigenvalue problem by standard LAPACK (fast)

  Obtaining occupation numbers and chemical potential using ELSI.
  | Chemical potential (Fermi level):   -11.79329321eV
  Highest occupied state (VBM) at    -18.11952718 eV
  | Occupation number:      2.00000000

  Lowest unoccupied state (CBM) at    -8.12463876 eV
  | Occupation number:      0.00000000

  Overall HOMO-LUMO gap:      9.99488842 eV.

  Total energy components:
  | Sum of eigenvalues            :         -45.59035513 Ha       -1240.57668300 eV
  | XC energy correction          :          -8.80998910 Ha        -239.73200088 eV
  | XC potential correction       :          11.60405359 Ha         315.76236389 eV
  | Free-atom electrostatic energy:         -35.26804344 Ha        -959.69229054 eV
  | Hartree energy correction     :           1.89320402 Ha          51.51670258 eV
  | Entropy correction            :          -0.00000000 Ha          -0.00000000 eV
  | ---------------------------
  | Total energy                  :         -76.17113006 Ha       -2072.72190796 eV
  | Total energy, T -> 0          :         -76.17113006 Ha       -2072.72190796 eV  <-- do not rely on this value for anything but (periodic) metals
  | Electronic free energy        :         -76.17113006 Ha       -2072.72190796 eV

  Derived energy quantities:
  | Kinetic energy                :          75.81945673 Ha        2063.15238977 eV
  | Electrostatic energy          :        -143.18059770 Ha       -3896.14229685 eV
  | Energy correction for multipole
  | error in Hartree potential    :           0.00673163 Ha           0.18317686 eV
  | Sum of eigenvalues per atom                           :        -310.14417075 eV
  | Total energy (T->0) per atom                          :        -518.18047699 eV  <-- do not rely on this value for anything but (periodic) metals
  | Electronic free energy per atom                       :        -518.18047699 eV

  Self-consistency convergence accuracy:
  | Change of charge density      :  0.9642E-03
  | Change of sum of eigenvalues  : -0.4489E-01 eV
  | Change of total energy        :  0.3020E-04 eV

  End self-consistency iteration #     7       :  max(cpu_time)    wall_clock(cpu1)
  | Time for this iteration                    :        0.060 s           0.061 s
  | Charge density update                      :        0.011 s           0.011 s
  | Density mixing                             :        0.001 s           0.001 s
  | Hartree multipole update                   :        0.001 s           0.002 s
  | Hartree multipole summation                :        0.017 s           0.017 s
  | Integration                                :        0.029 s           0.029 s
  | Solution of K.-S. eqns.                    :        0.000 s           0.000 s
  | Total energy evaluation                    :        0.000 s           0.001 s

  Partial memory accounting:
  | Current value for overall tracked memory usage on task 0  :           0.019 MB
  | Peak value for overall tracked memory usage on task 0     :           0.089 MB after allocating wave
  | Largest tracked array allocation on task 0 so far         :           0.021 MB  when allocating H_times_psi
  Note:  These values currently only include a subset of arrays which are explicitly tracked.
  The "true" memory usage will be greater.
------------------------------------------------------------

------------------------------------------------------------
          Begin self-consistency iteration #    8

  Date     :  20190508, Time     :  170353.149
------------------------------------------------------------
  Evaluating new KS density.
  Integration grid: deviation in total charge (<rho> - N_e) =   1.776357E-14
  Pulay mixing of updated and previous charge densities.

  Evaluating partitioned Hartree potential by multipole expansion.
  | Analytical far-field extrapolation by fixed multipoles:
  | Hartree multipole sum: apparent total charge =   0.999483E+00
  Summing up the Hartree potential.
  Time summed over all CPUs for potential: real work        0.016 s, elapsed        0.016 s
  | RMS charge density error from multipole expansion :   0.103707E-01

  Integrating Hamiltonian matrix: batch-based integration.
  Time summed over all CPUs for integration: real work        0.028 s, elapsed        0.028 s

  Updating Kohn-Sham eigenvalues, eigenvectors, occupation numbers, and Fermi level.
  Solving generalized eigenproblem
  Updating Kohn-Sham eigenvalues and eigenfunctions.
  Solving real generalised eigenvalue problem by standard LAPACK (fast)

  Obtaining occupation numbers and chemical potential using ELSI.
  | Chemical potential (Fermi level):   -11.78573396eV
  Highest occupied state (VBM) at    -18.10899364 eV
  | Occupation number:      2.00000000

  Lowest unoccupied state (CBM) at    -8.11913931 eV
  | Occupation number:      0.00000000

  Overall HOMO-LUMO gap:      9.98985432 eV.

  Total energy components:
  | Sum of eigenvalues            :         -45.58645469 Ha       -1240.47054649 eV
  | XC energy correction          :          -8.81057955 Ha        -239.74806790 eV
  | XC potential correction       :          11.60483054 Ha         315.78350591 eV
  | Free-atom electrostatic energy:         -35.26804344 Ha        -959.69229054 eV
  | Hartree energy correction     :           1.88911747 Ha          51.40550191 eV
  | Entropy correction            :          -0.00000000 Ha          -0.00000000 eV
  | ---------------------------
  | Total energy                  :         -76.17112966 Ha       -2072.72189711 eV
  | Total energy, T -> 0          :         -76.17112966 Ha       -2072.72189711 eV  <-- do not rely on this value for anything but (periodic) metals
  | Electronic free energy        :         -76.17112966 Ha       -2072.72189711 eV

  Derived energy quantities:
  | Kinetic energy                :          75.82053278 Ha        2063.18167034 eV
  | Electrostatic energy          :        -143.18108289 Ha       -3896.15549955 eV
  | Energy correction for multipole
  | error in Hartree potential    :           0.00671124 Ha           0.18262202 eV
  | Sum of eigenvalues per atom                           :        -310.11763662 eV
  | Total energy (T->0) per atom                          :        -518.18047428 eV  <-- do not rely on this value for anything but (periodic) metals
  | Electronic free energy per atom                       :        -518.18047428 eV

  Self-consistency convergence accuracy:
  | Change of charge density      :  0.7232E-03
  | Change of sum of eigenvalues  :  0.1061E+00 eV
  | Change of total energy        :  0.1085E-04 eV

  End self-consistency iteration #     8       :  max(cpu_time)    wall_clock(cpu1)
  | Time for this iteration                    :        0.058 s           0.058 s
  | Charge density update                      :        0.011 s           0.011 s
  | Density mixing                             :        0.001 s           0.001 s
  | Hartree multipole update                   :        0.001 s           0.001 s
  | Hartree multipole summation                :        0.016 s           0.016 s
  | Integration                                :        0.028 s           0.029 s
  | Solution of K.-S. eqns.                    :        0.000 s           0.000 s
  | Total energy evaluation                    :        0.000 s           0.000 s

  Partial memory accounting:
  | Current value for overall tracked memory usage on task 0  :           0.020 MB
  | Peak value for overall tracked memory usage on task 0     :           0.089 MB after allocating wave
  | Largest tracked array allocation on task 0 so far         :           0.021 MB  when allocating H_times_psi
  Note:  These values currently only include a subset of arrays which are explicitly tracked.
  The "true" memory usage will be greater.
------------------------------------------------------------

------------------------------------------------------------
          Begin self-consistency iteration #    9

  Date     :  20190508, Time     :  170353.207
------------------------------------------------------------
  Evaluating new KS density.
  Integration grid: deviation in total charge (<rho> - N_e) =   0.000000E+00
  Pulay mixing of updated and previous charge densities.

  Evaluating partitioned Hartree potential by multipole expansion.
  | Analytical far-field extrapolation by fixed multipoles:
  | Hartree multipole sum: apparent total charge =   0.999547E+00
  Summing up the Hartree potential.
  Time summed over all CPUs for potential: real work        0.016 s, elapsed        0.016 s
  | RMS charge density error from multipole expansion :   0.103717E-01

  Integrating Hamiltonian matrix: batch-based integration.
  Time summed over all CPUs for integration: real work        0.029 s, elapsed        0.029 s

  Updating Kohn-Sham eigenvalues, eigenvectors, occupation numbers, and Fermi level.
  Solving generalized eigenproblem
  Updating Kohn-Sham eigenvalues and eigenfunctions.
  Solving real generalised eigenvalue problem by standard LAPACK (fast)

  Obtaining occupation numbers and chemical potential using ELSI.
  | Chemical potential (Fermi level):   -11.78494653eV
  Highest occupied state (VBM) at    -18.10810882 eV
  | Occupation number:      2.00000000

  Lowest unoccupied state (CBM) at    -8.11861419 eV
  | Occupation number:      0.00000000

  Overall HOMO-LUMO gap:      9.98949462 eV.

  Total energy components:
  | Sum of eigenvalues            :         -45.58616231 Ha       -1240.46259040 eV
  | XC energy correction          :          -8.81063650 Ha        -239.74961741 eV
  | XC potential correction       :          11.60490544 Ha         315.78554413 eV
  | Free-atom electrostatic energy:         -35.26804344 Ha        -959.69229054 eV
  | Hartree energy correction     :           1.88880716 Ha          51.39705800 eV
  | Entropy correction            :          -0.00000000 Ha          -0.00000000 eV
  | ---------------------------
  | Total energy                  :         -76.17112963 Ha       -2072.72189623 eV
  | Total energy, T -> 0          :         -76.17112963 Ha       -2072.72189623 eV  <-- do not rely on this value for anything but (periodic) metals
  | Electronic free energy        :         -76.17112963 Ha       -2072.72189623 eV

  Derived energy quantities:
  | Kinetic energy                :          75.82055443 Ha        2063.18225947 eV
  | Electrostatic energy          :        -143.18104756 Ha       -3896.15453828 eV
  | Energy correction for multipole
  | error in Hartree potential    :           0.00670811 Ha           0.18253692 eV
  | Sum of eigenvalues per atom                           :        -310.11564760 eV
  | Total energy (T->0) per atom                          :        -518.18047406 eV  <-- do not rely on this value for anything but (periodic) metals
  | Electronic free energy per atom                       :        -518.18047406 eV

  Self-consistency convergence accuracy:
  | Change of charge density      :  0.8043E-04
  | Change of sum of eigenvalues  :  0.7956E-02 eV
  | Change of total energy        :  0.8805E-06 eV

  End self-consistency iteration #     9       :  max(cpu_time)    wall_clock(cpu1)
  | Time for this iteration                    :        0.059 s           0.059 s
  | Charge density update                      :        0.011 s           0.011 s
  | Density mixing                             :        0.001 s           0.001 s
  | Hartree multipole update                   :        0.001 s           0.001 s
  | Hartree multipole summation                :        0.017 s           0.017 s
  | Integration                                :        0.028 s           0.029 s
  | Solution of K.-S. eqns.                    :        0.000 s           0.000 s
  | Total energy evaluation                    :        0.000 s           0.000 s

  Partial memory accounting:
  | Current value for overall tracked memory usage on task 0  :           0.020 MB
  | Peak value for overall tracked memory usage on task 0     :           0.089 MB after allocating wave
  | Largest tracked array allocation on task 0 so far         :           0.021 MB  when allocating H_times_psi
  Note:  These values currently only include a subset of arrays which are explicitly tracked.
  The "true" memory usage will be greater.
------------------------------------------------------------

------------------------------------------------------------
          Begin self-consistency iteration #   10

  Date     :  20190508, Time     :  170353.266
------------------------------------------------------------
  Evaluating new KS density.
  Integration grid: deviation in total charge (<rho> - N_e) =  -2.131628E-14
  Pulay mixing of updated and previous charge densities.

  Evaluating partitioned Hartree potential by multipole expansion.
  | Analytical far-field extrapolation by fixed multipoles:
  | Hartree multipole sum: apparent total charge =   0.999553E+00
  Summing up the Hartree potential.
  Time summed over all CPUs for potential: real work        0.016 s, elapsed        0.016 s
  | RMS charge density error from multipole expansion :   0.103718E-01

  Integrating Hamiltonian matrix: batch-based integration.
  Time summed over all CPUs for integration: real work        0.029 s, elapsed        0.029 s

  Updating Kohn-Sham eigenvalues, eigenvectors, occupation numbers, and Fermi level.
  Solving generalized eigenproblem
  Updating Kohn-Sham eigenvalues and eigenfunctions.
  Solving real generalised eigenvalue problem by standard LAPACK (fast)

  Obtaining occupation numbers and chemical potential using ELSI.
  | Chemical potential (Fermi level):   -11.78489933eV
  Highest occupied state (VBM) at    -18.10811381 eV
  | Occupation number:      2.00000000

  Lowest unoccupied state (CBM) at    -8.11856715 eV
  | Occupation number:      0.00000000

  Overall HOMO-LUMO gap:      9.98954666 eV.

  Total energy components:
  | Sum of eigenvalues            :         -45.58617826 Ha       -1240.46302442 eV
  | XC energy correction          :          -8.81063700 Ha        -239.74963099 eV
  | XC potential correction       :          11.60490605 Ha         315.78556060 eV
  | Free-atom electrostatic energy:         -35.26804344 Ha        -959.69229054 eV
  | Hartree energy correction     :           1.88882302 Ha          51.39748932 eV
  | Entropy correction            :          -0.00000000 Ha          -0.00000000 eV
  | ---------------------------
  | Total energy                  :         -76.17112963 Ha       -2072.72189604 eV
  | Total energy, T -> 0          :         -76.17112963 Ha       -2072.72189604 eV  <-- do not rely on this value for anything but (periodic) metals
  | Electronic free energy        :         -76.17112963 Ha       -2072.72189604 eV

  Derived energy quantities:
  | Kinetic energy                :          75.82051110 Ha        2063.18108040 eV
  | Electrostatic energy          :        -143.18100372 Ha       -3896.15334546 eV
  | Energy correction for multipole
  | error in Hartree potential    :           0.00670753 Ha           0.18252122 eV
  | Sum of eigenvalues per atom                           :        -310.11575611 eV
  | Total energy (T->0) per atom                          :        -518.18047401 eV  <-- do not rely on this value for anything but (periodic) metals
  | Electronic free energy per atom                       :        -518.18047401 eV

  Self-consistency convergence accuracy:
  | Change of charge density      :  0.1064E-04
  | Change of sum of eigenvalues  : -0.4340E-03 eV
  | Change of total energy        :  0.1853E-06 eV

  End self-consistency iteration #    10       :  max(cpu_time)    wall_clock(cpu1)
  | Time for this iteration                    :        0.059 s           0.059 s
  | Charge density update                      :        0.011 s           0.011 s
  | Density mixing                             :        0.001 s           0.001 s
  | Hartree multipole update                   :        0.001 s           0.002 s
  | Hartree multipole summation                :        0.017 s           0.016 s
  | Integration                                :        0.029 s           0.029 s
  | Solution of K.-S. eqns.                    :        0.000 s           0.000 s
  | Total energy evaluation                    :        0.000 s           0.000 s

  Partial memory accounting:
  | Current value for overall tracked memory usage on task 0  :           0.020 MB
  | Peak value for overall tracked memory usage on task 0     :           0.089 MB after allocating wave
  | Largest tracked array allocation on task 0 so far         :           0.021 MB  when allocating H_times_psi
  Note:  These values currently only include a subset of arrays which are explicitly tracked.
  The "true" memory usage will be greater.
------------------------------------------------------------

------------------------------------------------------------
          Begin self-consistency iteration #   11

  Date     :  20190508, Time     :  170353.326
------------------------------------------------------------
  Evaluating new KS density.
  Integration grid: deviation in total charge (<rho> - N_e) =   1.598721E-14
  Pulay mixing of updated and previous charge densities.

  Evaluating partitioned Hartree potential by multipole expansion.
  | Analytical far-field extrapolation by fixed multipoles:
  | Hartree multipole sum: apparent total charge =   0.999557E+00
  Summing up the Hartree potential.
  Time summed over all CPUs for potential: real work        0.017 s, elapsed        0.017 s
  | RMS charge density error from multipole expansion :   0.103719E-01

  Integrating Hamiltonian matrix: batch-based integration.
  Time summed over all CPUs for integration: real work        0.028 s, elapsed        0.028 s

  Updating Kohn-Sham eigenvalues, eigenvectors, occupation numbers, and Fermi level.
  Solving generalized eigenproblem
  Updating Kohn-Sham eigenvalues and eigenfunctions.
  Solving real generalised eigenvalue problem by standard LAPACK (fast)

  Obtaining occupation numbers and chemical potential using ELSI.
  | Chemical potential (Fermi level):   -11.78484275eV
  Highest occupied state (VBM) at    -18.10802340 eV
  | Occupation number:      2.00000000

  Lowest unoccupied state (CBM) at    -8.11853705 eV
  | Occupation number:      0.00000000

  Overall HOMO-LUMO gap:      9.98948635 eV.

  Total energy components:
  | Sum of eigenvalues            :         -45.58614019 Ha       -1240.46198859 eV
  | XC energy correction          :          -8.81064297 Ha        -239.74979348 eV
  | XC potential correction       :          11.60491393 Ha         315.78577514 eV
  | Free-atom electrostatic energy:         -35.26804344 Ha        -959.69229054 eV
  | Hartree energy correction     :           1.88878303 Ha          51.39640138 eV
  | Entropy correction            :          -0.00000000 Ha          -0.00000000 eV
  | ---------------------------
[...]
  | Largest tracked array allocation on task 0 so far         :           0.021 MB  when allocating H_times_psi
  Note:  These values currently only include a subset of arrays which are explicitly tracked.
  The "true" memory usage will be greater.
------------------------------------------------------------

------------------------------------------------------------
          Begin self-consistency iteration #   12

  Date     :  20190508, Time     :  170353.385
------------------------------------------------------------
  Evaluating new KS density.
  Integration grid: deviation in total charge (<rho> - N_e) =   2.664535E-14
  Pulay mixing of updated and previous charge densities.

  Evaluating partitioned Hartree potential by multipole expansion.
  | Analytical far-field extrapolation by fixed multipoles:
  | Hartree multipole sum: apparent total charge =   0.999557E+00
  Summing up the Hartree potential.
  Time summed over all CPUs for potential: real work        0.017 s, elapsed        0.017 s
  | RMS charge density error from multipole expansion :   0.103719E-01

  Integrating Hamiltonian matrix: batch-based integration.
  Time summed over all CPUs for integration: real work        0.028 s, elapsed        0.028 s

  Updating Kohn-Sham eigenvalues, eigenvectors, occupation numbers, and Fermi level.
  Solving generalized eigenproblem
  Updating Kohn-Sham eigenvalues and eigenfunctions.
  Solving real generalised eigenvalue problem by standard LAPACK (fast)

  Obtaining occupation numbers and chemical potential using ELSI.
  | Chemical potential (Fermi level):   -11.78483948eV
  Highest occupied state (VBM) at    -18.10801937 eV
  | Occupation number:      2.00000000

  Lowest unoccupied state (CBM) at    -8.11853543 eV
  | Occupation number:      0.00000000

  Overall HOMO-LUMO gap:      9.98948393 eV.

  Total energy components:
  | Sum of eigenvalues            :         -45.58613815 Ha       -1240.46193310 eV
  | XC energy correction          :          -8.81064329 Ha        -239.74980229 eV
  | XC potential correction       :          11.60491436 Ha         315.78578677 eV
  | Free-atom electrostatic energy:         -35.26804344 Ha        -959.69229054 eV
  | Hartree energy correction     :           1.88878089 Ha          51.39634305 eV
  | Entropy correction            :          -0.00000000 Ha          -0.00000000 eV
  | ---------------------------
  | Total energy                  :         -76.17112963 Ha       -2072.72189611 eV
  | Total energy, T -> 0          :         -76.17112963 Ha       -2072.72189611 eV  <-- do not rely on this value for anything but (periodic) metals
  | Electronic free energy        :         -76.17112963 Ha       -2072.72189611 eV

  Derived energy quantities:
  | Kinetic energy                :          75.82054099 Ha        2063.18189385 eV
  | Electrostatic energy          :        -143.18102733 Ha       -3896.15398767 eV
  | Energy correction for multipole
  | error in Hartree potential    :           0.00670757 Ha           0.18252233 eV
  | Sum of eigenvalues per atom                           :        -310.11548327 eV
  | Total energy (T->0) per atom                          :        -518.18047403 eV  <-- do not rely on this value for anything but (periodic) metals
  | Electronic free energy per atom                       :        -518.18047403 eV

  Self-consistency convergence accuracy:
  | Change of charge density      :  0.3437E-06
  | Change of sum of eigenvalues  :  0.5550E-04 eV
  | Change of total energy        : -0.1523E-07 eV

  Electronic self-consistency reached - switching on the force computation.

  End self-consistency iteration #    12       :  max(cpu_time)    wall_clock(cpu1)
  | Time for this iteration                    :        0.059 s           0.059 s
  | Charge density & force component update    :        0.011 s           0.011 s
  | Density mixing                             :        0.001 s           0.001 s
  | Hartree multipole update                   :        0.001 s           0.001 s
  | Hartree multipole summation                :        0.017 s           0.017 s
  | Integration                                :        0.029 s           0.029 s
  | Solution of K.-S. eqns.                    :        0.000 s           0.000 s
  | Total energy evaluation                    :        0.000 s           0.000 s

  Partial memory accounting:
  | Current value for overall tracked memory usage on task 0  :           0.020 MB
  | Peak value for overall tracked memory usage on task 0     :           0.089 MB after allocating wave
  | Largest tracked array allocation on task 0 so far         :           0.021 MB  when allocating H_times_psi
  Note:  These values currently only include a subset of arrays which are explicitly tracked.
  The "true" memory usage will be greater.
------------------------------------------------------------

------------------------------------------------------------
          Begin self-consistency iteration #   13

  Date     :  20190508, Time     :  170353.444
------------------------------------------------------------
  Evaluating new KS density and force components.
  Integration grid: deviation in total charge (<rho> - N_e) =   2.486900E-14
  Pulay mixing of updated and previous charge densities.

  Evaluating partitioned Hartree potential by multipole expansion.
  | Analytical far-field extrapolation by fixed multipoles:
  | Hartree multipole sum: apparent total charge =   0.999557E+00
  Summing up the Hartree potential.
  Time summed over all CPUs for potential: real work        0.051 s, elapsed        0.051 s
  | RMS charge density error from multipole expansion :   0.103719E-01

  Integrating Hamiltonian matrix: batch-based integration.
  Time summed over all CPUs for integration: real work        0.028 s, elapsed        0.028 s

  Updating Kohn-Sham eigenvalues, eigenvectors, occupation numbers, and Fermi level.
  Solving generalized eigenproblem
  Updating Kohn-Sham eigenvalues and eigenfunctions.
  Solving real generalised eigenvalue problem by standard LAPACK (fast)

  Obtaining occupation numbers and chemical potential using ELSI.
  | Chemical potential (Fermi level):   -11.78484008eV
  Highest occupied state (VBM) at    -18.10802013 eV
  | Occupation number:      2.00000000

  Lowest unoccupied state (CBM) at    -8.11853552 eV
  | Occupation number:      0.00000000

  Overall HOMO-LUMO gap:      9.98948461 eV.

  Total energy components:
  | Sum of eigenvalues            :         -45.58613855 Ha       -1240.46194395 eV
  | XC energy correction          :          -8.81064321 Ha        -239.74980011 eV
  | XC potential correction       :          11.60491426 Ha         315.78578389 eV
  | Free-atom electrostatic energy:         -35.26804344 Ha        -959.69229054 eV
  | Hartree energy correction     :           1.88878132 Ha          51.39635461 eV
  | Entropy correction            :          -0.00000000 Ha          -0.00000000 eV
  | ---------------------------
  | Total energy                  :         -76.17112963 Ha       -2072.72189611 eV
  | Total energy, T -> 0          :         -76.17112963 Ha       -2072.72189611 eV  <-- do not rely on this value for anything but (periodic) metals
  | Electronic free energy        :         -76.17112963 Ha       -2072.72189611 eV

  Derived energy quantities:
  | Kinetic energy                :          75.82054049 Ha        2063.18188040 eV
  | Electrostatic energy          :        -143.18102691 Ha       -3896.15397640 eV
  | Energy correction for multipole
  | error in Hartree potential    :           0.00670757 Ha           0.18252225 eV
  | Sum of eigenvalues per atom                           :        -310.11548599 eV
  | Total energy (T->0) per atom                          :        -518.18047403 eV  <-- do not rely on this value for anything but (periodic) metals
  | Electronic free energy per atom                       :        -518.18047403 eV

  atomic forces [eV/Ang]:
  -----------------------
  atom #    1
   Hellmann-Feynman              : -0.457845E-12 -0.164798E+00  0.952558E-13
   Ionic forces                  :  0.000000E+00  0.000000E+00  0.000000E+00
   Multipole                     : -0.159710E-12  0.460025E-02  0.349244E-13
   Pulay                         : -0.122628E-11  0.224484E-03 -0.885451E-12
   ----------------------------------------------------------------
   Total forces(   1)            : -0.184383E-11 -0.159973E+00 -0.755271E-12
  atom #    2
   Hellmann-Feynman              :  0.226317E+00 -0.116457E+00 -0.107826E-13
   Ionic forces                  :  0.000000E+00  0.000000E+00  0.000000E+00
   Multipole                     :  0.773234E-01 -0.451815E-01  0.220487E-15
   Pulay                         : -0.336961E+00  0.195968E+00  0.277765E-13
   ----------------------------------------------------------------
   Total forces(   2)            : -0.333203E-01  0.343294E-01  0.172145E-13
  atom #    3
   Hellmann-Feynman              : -0.226317E+00 -0.116457E+00 -0.353008E-14
   Ionic forces                  :  0.000000E+00  0.000000E+00  0.000000E+00
   Multipole                     : -0.773234E-01 -0.451815E-01  0.239750E-15
   Pulay                         :  0.336961E+00  0.195968E+00 -0.190530E-13
   ----------------------------------------------------------------
   Total forces(   3)            :  0.333203E-01  0.343294E-01 -0.223433E-13
  atom #    4
   Hellmann-Feynman              : -0.139313E-13  0.394179E+00 -0.107849E-13
   Ionic forces                  :  0.000000E+00  0.000000E+00  0.000000E+00
   Multipole                     : -0.516096E-15  0.905416E-01  0.479573E-15
   Pulay                         : -0.524154E-13 -0.393654E+00  0.581348E-14
   ----------------------------------------------------------------
   Total forces(   4)            : -0.668628E-13  0.910669E-01 -0.449180E-14


  Self-consistency convergence accuracy:
  | Change of charge density      :  0.1419E-06
  | Change of sum of eigenvalues  : -0.1085E-04 eV
  | Change of total energy        :  0.2794E-08 eV
  | Change of forces              :  0.3526E+00 eV/A

  Writing Kohn-Sham eigenvalues.

  State    Occupation    Eigenvalue [Ha]    Eigenvalue [eV]
      1       2.00000         -19.013719         -517.38961
      2       2.00000          -1.337114          -36.38473
      3       2.00000          -0.889007          -24.19112
      4       2.00000          -0.887772          -24.15749
      5       2.00000          -0.665458          -18.10802
      6       0.00000          -0.298351           -8.11854
      7       0.00000          -0.197973           -5.38712
      8       0.00000          -0.196602           -5.34980
      9       0.00000           0.025510            0.69417
     10       0.00000           0.048539            1.32082
     11       0.00000           0.048638            1.32351
     12       0.00000           0.207464            5.64539
     13       0.00000           0.480717           13.08097

  Highest occupied state (VBM) at    -18.10802013 eV
  | Occupation number:      2.00000000

  Lowest unoccupied state (CBM) at    -8.11853552 eV
  | Occupation number:      0.00000000

  Overall HOMO-LUMO gap:      9.98948461 eV.

  Self-consistency cycle converged.

  End self-consistency iteration #    13       :  max(cpu_time)    wall_clock(cpu1)
  | Time for this iteration                    :        0.124 s           0.124 s
  | Charge density & force component update    :        0.041 s           0.041 s
  | Density mixing                             :        0.001 s           0.001 s
  | Hartree multipole update                   :        0.001 s           0.002 s
  | Hartree multipole summation                :        0.052 s           0.051 s
  | Integration                                :        0.028 s           0.028 s
  | Solution of K.-S. eqns.                    :        0.000 s           0.000 s
  | Total energy evaluation                    :        0.000 s           0.000 s

  Partial memory accounting:
  | Current value for overall tracked memory usage on task 0  :           0.020 MB
  | Peak value for overall tracked memory usage on task 0     :           0.124 MB after allocating h_times_wave
  | Largest tracked array allocation on task 0 so far         :           0.063 MB  when allocating gradient_basis_wave
  Note:  These values currently only include a subset of arrays which are explicitly tracked.
  The "true" memory usage will be greater.
------------------------------------------------------------
  ------------------------------------------------------------
   Computing monopole / dipole moments for complete molecule:
  | Total electronic charge [e]         :          0.100000000006371E+02
  | Total ionic charge [e]              :          0.110000000000000E+02
  | Total charge [e]                    :          0.999999999362926E+00
 * Warning: The system has a total charge of      1.00000000 .
 * The dipole moment depends on the choice of the origin.
  | Total dipole moment [eAng]          :          0.253091006731399E-14        -0.114845169725502E-02        -0.361407905919090E-15
  | Absolute dipole moment              :          0.114845169725502E-02 eAng              /                   0.551538889150810E-02 Debye  .
  Removing unitary transformations (pure translations, rotations) from forces on atoms.
  Atomic forces before filtering:
  | Net force on center of mass :  -0.195376E-11 -0.247061E-03 -0.764891E-12 eV/A
  | Net torque on center of mass:  -0.300866E-14 -0.338175E-13  0.523850E-13 eV
  Atomic forces after filtering:
  | Net force on center of mass :   0.485034E-17 -0.111504E-16  0.202824E-27 eV/A
  | Net torque on center of mass:  -0.214660E-28  0.000000E+00  0.472354E-17 eV

  Energy and forces in a compact form:
  | Total energy uncorrected      :         -0.207272189611171E+04 eV
  | Total energy corrected        :         -0.207272189611171E+04 eV  <-- do not rely on this value for anything but (periodic) metals
  | Electronic free energy        :         -0.207272189611171E+04 eV
  Total atomic forces (unitary forces cleaned) [eV/Ang]:
  |   1         -0.135536725915872E-11         -0.159911056428674E+00         -0.564044713781477E-12
  |   2         -0.333202710065372E-01          0.343911936233877E-01          0.187641337069298E-12
  |   3          0.333202710074534E-01          0.343911936234125E-01          0.187641337069298E-12
  |   4          0.439257453508399E-12          0.911286691818738E-01          0.188762039642880E-12

  ------------------------------------ 
  Start decomposition of the XC Energy 
  ------------------------------------ 
  X and C from original XC functional choice 
  Hartree-Fock Energy :          0.000000000 Ha              0.000000000 eV
  X Energy            :         -8.146715642 Ha           -221.683411758 eV
  C Energy            :         -0.663927569 Ha            -18.066388352 eV
  Total XC Energy     :         -8.810643211 Ha           -239.749800110 eV
  ------------------------------------ 
  LDA X and C from self-consistent density 
  X Energy LDA        :         -8.146715642 Ha           -221.683411758 eV
  C Energy LDA        :         -0.663927569 Ha            -18.066388352 eV
  ------------------------------------ 
  End decomposition of the XC Energy 
  ------------------------------------ 

------------------------------------------------------------

------------------------------------------------------------------------------
  Final output of selected total energy values:

  The following output summarizes some interesting total energy values
  at the end of a run (AFTER all relaxation, molecular dynamics, etc.).

  | Total energy of the DFT / Hartree-Fock s.c.f. calculation      :          -2072.721896112 eV
  | Final zero-broadening corrected energy (caution - metals only) :          -2072.721896112 eV
  | For reference only, the value of 1 Hartree used in FHI-aims is :             27.211384500 eV

  Before relying on these values, please be sure to understand exactly which
  total energy value is referred to by a given number. Different objects may
  all carry the same name 'total energy'. Definitions:

  Total energy of the DFT / Hartree-Fock s.c.f. calculation:
  | Note that this energy does not include ANY quantities calculated after the
  | s.c.f. cycle, in particular not ANY RPA, MP2, etc. many-body perturbation terms.

  Final zero-broadening corrected energy:
  | For metallic systems only, a broadening of the occupation numbers at the Fermi
  | level can be extrapolated back to zero broadening by an electron-gas inspired
  | formula. For all systems that are not real metals, this value can be
  | meaningless and should be avoided.

------------------------------------------------------------------------------
  Methods described in the following list of references were used in this FHI-aims run.
  If you publish the results, please make sure to cite these reference if they apply.
  FHI-aims is an academic code, and for our developers (often, Ph.D. students
  and postdocs), scientific credit in the community is essential.
  Thank you for helping us!

  For any use of FHI-aims, please cite:

    Volker Blum, Ralf Gehrke, Felix Hanke, Paula Havu, Ville Havu,
    Xinguo Ren, Karsten Reuter, and Matthias Scheffler
    'Ab initio molecular simulations with numeric atom-centered orbitals'
    Computer Physics Communications 180, 2175-2196 (2009)
    http://dx.doi.org/10.1016/j.cpc.2009.06.022


  For the real-space grid partitioning and parallelization used in this calculation, please cite:

    Ville Havu, Volker Blum, Paula Havu, and Matthias Scheffler,
    'Efficient O(N) integration for all-electron electronic structure calculation'
    'using numerically tabulated basis functions'
    Journal of Computational Physics 228, 8367-8379 (2009).
    http://dx.doi.org/10.1016/j.jcp.2009.08.008

  Of course, there are many other important community references, e.g., those cited in the
  above references. Our list is limited to references that describe implementations in the
  FHI-aims code. The reason is purely practical (length of this list) - please credit others as well.

------------------------------------------------------------
          Leaving FHI-aims.
          Date     :  20190508, Time     :  170353.581

          Computational steps:
          | Number of self-consistency cycles          :           13
          | Number of SCF (re)initializations          :            1

          Detailed time accounting                     :  max(cpu_time)    wall_clock(cpu1)
          | Total time                                 :        0.986 s           0.986 s
          | Preparation time                           :        0.047 s           0.047 s
          | Boundary condition initalization           :        0.000 s           0.001 s
          | Grid partitioning                          :        0.014 s           0.014 s
          | Preloading free-atom quantities on grid    :        0.001 s           0.001 s
          | Free-atom superposition energy             :        0.012 s           0.012 s
          | Total time for integrations                :        0.414 s           0.415 s
          | Total time for solution of K.-S. equations :        0.003 s           0.002 s
          | Total time for density & force components  :        0.181 s           0.179 s
          | Total time for mixing                      :        0.010 s           0.010 s
          | Total time for Hartree multipole update    :        0.018 s           0.019 s
          | Total time for Hartree multipole sum       :        0.253 s           0.253 s
          | Total time for total energy evaluation     :        0.001 s           0.002 s

 This is a stub MPI_ALLREDUCE call.
 You should not be here. Check your
 setting on the use_mpi variable, or
 link against true MPI-libraries.
