------------------------------------------------------------
          Invoking FHI-aims ...
          Version 171221_1
          Compiled on 2019/05/06 at 14:26:40 on host ffph0xx.

          When using FHI-aims, please cite the following reference:

          Volker Blum, Ralf Gehrke, Felix Hanke, Paula Havu,
          Ville Havu, Xinguo Ren, Karsten Reuter, and Matthias Scheffler,
          'Ab Initio Molecular Simulations with Numeric Atom-Centered Orbitals',
          Computer Physics Communications 180, 2175-2196 (2009)

          For any questions about FHI-aims, please visit the aimsclub website
          with its forums and wiki. Contributions to both the forums and the
          wiki are warmly encouraged - they are for you, and everyone is welcome there.

------------------------------------------------------------



  Date     :  20190514, Time     :  124039.018
  Time zero on CPU 1             :   0.671000000000000E-03  s.
  Internal wall clock time zero  :           327069639.018  s.

  FHI-aims created a unique identifier for this run for later identification
  aims_uuid : 6E540DBC-0464-4D7E-A4B3-91D54FDA688F


  Performing system and environment tests:
  *** Environment variable OMP_NUM_THREADS is not set
  *** For performance reasons you might want to set it to 1
  | Stacksize not measured: no C compiler

  Obtaining array dimensions for all initial allocations:
  
  -----------------------------------------------------------------------
  Parsing control.in (first pass over file, find array dimensions only).
  The contents of control.in will be repeated verbatim below
  unless switched off by setting 'verbatim_writeout .false.' .
  in the first line of control.in .
  -----------------------------------------------------------------------
  
  #--- method ---
  xc pw-lda
  spin none
  relativistic atomic_zora scalar
  #---
  
  #--- k-grid settings ---
  k_grid 12 12 12
  #---
  
  
  
  
  
  
  
  
  
  
  
  #-------------------------------------------------------------------------------
  #--- Species defaults for Si
  #-------------------------------------------------------------------------------
  
  ################################################################################
  #
  #  FHI-aims code project
  #  VB, Fritz-Haber Institut, 2009
  #
  #  Suggested "light" defaults for Si atom (to be pasted into control.in file)
  #  Be sure to double-check any results obtained with these settings for post-processing,
  #  e.g., with the "tight" defaults and larger basis sets.
  #
  ################################################################################
    species        Si
  #     global species definitions
      nucleus             14
      mass                28.0855
  #
      l_hartree           4
  #
      cut_pot             3.5          1.5  1.0
      basis_dep_cutoff    1e-4
  #
      radial_base         42 5.0
      radial_multiplier   1
      angular_grids       specified
        division   0.5866   50
        division   0.9616  110
        division   1.2249  194
        division   1.3795  302
  #      division   1.4810  434
  #      division   1.5529  590
  #      division   1.6284  770
  #      division   1.7077  974
  #      division   2.4068 1202
  #      outer_grid   974
        outer_grid 302
  ################################################################################
  #
  #  Definition of "minimal" basis
  #
  ################################################################################
  #     valence basis states
      valence      3  s   2.
      valence      3  p   2.
  #     ion occupancy
      ion_occ      3  s   1.
      ion_occ      3  p   1.
  ################################################################################
  #
  #  Suggested additional basis functions. For production calculations,
  #  uncomment them one after another (the most important basis functions are
  #  listed first).
  #
  #  Constructed for dimers: 1.75 A, 2.0 A, 2.25 A, 2.75 A, 3.75 A
  #
  ################################################################################
  #  "First tier" - improvements: -571.96 meV to -37.03 meV
       hydro 3 d 4.2
       hydro 2 p 1.4
  #     hydro 4 f 6.2
       ionic 3 s auto
  #  "Second tier" - improvements: -16.76 meV to -3.03 meV
  #     hydro 3 d 9
  #     hydro 5 g 9.4
  #     hydro 4 p 4
  #     hydro 1 s 0.65
  #  "Third tier" - improvements: -3.89 meV to -0.60 meV
  #     ionic 3 d auto
  #     hydro 3 s 2.6
  #     hydro 4 f 8.4
  #     hydro 3 d 3.4
  #     hydro 3 p 7.8
  #  "Fourth tier" - improvements: -0.33 meV to -0.11 meV
  #     hydro 2 p 1.6
  #     hydro 5 g 10.8
  #     hydro 5 f 11.2
  #     hydro 3 d 1
  #     hydro 4 s 4.5
  #  Further basis functions that fell out of the optimization - noise
  #  level... < -0.08 meV
  #     hydro 4 d 6.6
  #     hydro 5 g 16.4
  #     hydro 4 d 9
  
  -----------------------------------------------------------------------
  Completed first pass over input file control.in .
  -----------------------------------------------------------------------
  
  
  -----------------------------------------------------------------------
  Parsing geometry.in (first pass over file, find array dimensions only).
  The contents of geometry.in will be repeated verbatim below
  unless switched off by setting 'verbatim_writeout .false.' .
  in the first line of geometry.in .
  -----------------------------------------------------------------------
  
  lattice_vector   0.000000   3.000000   3.000000
  lattice_vector   3.000000   0.000000   3.000000
  lattice_vector   3.000000   3.000000   0.000000
  atom_frac   0.000000   0.000000   0.000000 Si
  atom_frac   0.250000   0.250000   0.250000 Si
  
  -----------------------------------------------------------------------
  Completed first pass over input file geometry.in .
  -----------------------------------------------------------------------
  

  Basic array size parameters:
  | Number of species                 :        1
  | Number of atoms                   :        2
  | Number of lattice vectors         :        3
  | Max. basis fn. angular momentum   :        2
  | Max. atomic/ionic basis occupied n:        3
  | Max. number of basis fn. types    :        3
  | Max. radial fns per species/type  :        5
  | Max. logarithmic grid size        :     1346
  | Max. radial integration grid size :       42
  | Max. angular integration grid size:      302
  | Max. angular grid division number :        8
  | Radial grid for Hartree potential :     1346
  | Number of spin channels           :        1

------------------------------------------------------------
          Reading file control.in.
------------------------------------------------------------
  XC: Using Perdew-Wang parametrisation of Ceperley-Alder LDA.
  Spin treatment: No spin polarisation.
  Scalar relativistic treatment of kinetic energy: on-site free-atom approximation to ZORA.
  Found k-point grid:        12        12        12

  Reading configuration options for species Si                  .
  | Found nuclear charge :  14.0000
  | Found atomic mass :    28.085500000000000      amu
  | Found l_max for Hartree potential  :   4
  | Found cutoff potl. onset [A], width [A], scale factor :    3.50000    1.50000    1.00000
  | Threshold for basis-dependent cutoff potential is   0.100000E-03
  | Found data for basic radial integration grid :    42 points, outermost radius =    5.000 A
  | Found multiplier for basic radial grid :   1
  | Found angular grid specification: user-specified.
  | Specified grid contains     5 separate shells.
  | Check grid settings after all constraints further below.
  | Found free-atom valence shell :  3 s   2.000
  | Found free-atom valence shell :  3 p   2.000
  | Found free-ion valence shell :  3 s   1.000
  | Found free-ion valence shell :  3 p   1.000
  | Found hydrogenic basis function :  3 d   4.200
  | Found hydrogenic basis function :  2 p   1.400
  | Found ionic basis function :  3 s , default cutoff radius.
  Species Si                  : Missing cutoff potential type.
  Defaulting to exp(1/x)/(1-x)^2 type cutoff potential.
  Species Si: No 'logarithmic' tag. Using default grid for free atom:
  | Default logarithmic grid data [bohr] : 0.1000E-03 0.1000E+03 0.1012E+01
  | Will include ionic basis functions of  2.0-fold positive Si                   ion.
  Species Si: On-site basis accuracy parameter (for Gram-Schmidt orthonormalisation) not specified.
  Using default value basis_acc =  0.1000000E-03.
  Species Si                  : Using default innermost maximum threshold i_radial=  2 for radial functions.
  Species Si                  : Default cutoff onset for free atom density etc. : 0.35000000E+01 AA.
  Species Si                  : Basic radial grid will be enhanced according to radial_multiplier =   1, to contain    42 grid points.

  Finished reading input file 'control.in'. Consistency checks are next.

  MPI_IN_PLACE appears to work with this MPI implementation.
  | Keeping use_mpi_in_place .true. (see manual).
  Target number of points in a grid batch is not set. Defaulting to  100
  Method for grid partitioning is not set. Defaulting to 'maxmin' partitioning.
  Batch size limit is not set. Defaulting to    200
  By default, will store active basis functions for each batch.
  If in need of memory, prune_basis_once .false. can be used to disable this option.
  communication_type for Hartree potential was not specified.
  Defaulting to calc_hartree .
 * Attention: 
 * You may want to set distributed_spline_storage to .true. in order to save memory.
 * This doesn't harm performance and is perfectly ok unless:
 * - you get error messages in postprocessing (about missing atoms in get_rho_multipole_spl)
 * - you need full spline storage in hirshfeld_analysis
  Defaulting to Pulay charge density mixer.
  Pulay mixer: Number of relevant iterations not set.
  Defaulting to    8 iterations.
  Pulay mixer: Number of initial linear mixing iterations not set.
  Defaulting to    0 iterations.
  Work space size for distributed Hartree potential not set.
  Defaulting to   0.200000E+03 MB.
  Mixing parameter for charge density mixing has not been set.
  Using default: charge_mix_param =     0.0500.
  The mixing parameter will be adjusted in iteration number     2 of the first full s.c.f. cycle only.
  Algorithm-dependent basis array size parameters:
  | n_max_pulay                         :        8
 * Notice: The s.c.f. convergence criterion sc_accuracy_rho was not provided.
 * We used to stop in this case, and ask the user to provide reasonable
 * scf convergence criteria. However, this led some users to employ criteria
 * that led to extremely long run times, e.g., for simple relaxation.
 * We now preset a default value for sc_accuracy_rho if it is not set.
 * You may still wish to check if this setting is too tight or too loose for your needs.
 * Based on n_atoms, FHI-aims chose sc_accuracy_rho =  0.100000E-05 .
  Maximum number of self-consistency iterations not provided.
  Presetting  1000 iterations.
  Presetting      1001 iterations before the initial mixing cycle
  is restarted anyway using the sc_init_iter criterion / keyword.
  Presetting a factor      1.000 between actual scf density residual
  and density convergence criterion sc_accuracy_rho below which sc_init_iter
  takes no effect.
 * No s.c.f. convergence criteria (sc_accuracy_*) were provided in control.in.
 * The run will proceed with a reasonable default guess, but please check whether.
 * the s.c.f. cycles seem to take too much or too little time.
  Calculation of forces was not defined in control.in. No forces will be calculated.
  Geometry relaxation not requested: no relaxation will be performed.
  No accuracy limit for integral partition fn. given. Defaulting to  0.1000E-14.
  No threshold value for u(r) in integrations given. Defaulting to  0.1000E-05.
  No occupation type (smearing scheme) given. Defaulting to Gaussian broadening, width =  0.1000E-01 eV.
  The width will be adjusted in iteration number     2 of the first full s.c.f. cycle only.
  S.C.F. convergence parameters will be adjusted in iteration number     2 of the first full s.c.f. cycle only.
  No accuracy for occupation numbers given. Defaulting to  0.1000E-12.
  No threshold value for occupation numbers given. Defaulting to  0.0000E+00.
  No accuracy for fermi level given. Defaulting to  0.1000E-19.
  Maximum # of iterations to find E_F not set. Defaulting to  200.
  Preferred method for the eigenvalue solver ('KS_method') not specified in 'control.in'.
  Defaulting to serial version, 'lapack_fast'.
  Will not use alltoall communication since running on < 1024 CPUs.
  Threshold for basis singularities not set.
  Default threshold for basis singularities:  0.1000E-04
  partition_type (choice of integration weights) for integrals was not specified.
  | Using a version of the partition function of Stratmann and coworkers ('stratmann_smoother').
  | At each grid point, the set of atoms used to build the partition table is smoothly restricted to
  | only those atoms whose free-atom density would be non-zero at that grid point.
  Partitioning for Hartree potential was not defined. Using partition_type for integrals.
  | Adjusted default value of keyword multip_moments_threshold to:       0.10000000E-11
  | This value may affect high angular momentum components of the Hartree potential in periodic systems.
  Angular momentum expansion for Kerker preconditioner not set explicitly.
  | Using default value of   0
  No explicit requirement for turning off preconditioner.
  | By default, it will be turned off when the charge convergence reaches
  | sc_accuracy_rho  =   0.100000E-05
  No special mixing parameter while Kerker preconditioner is on.
  Using default: charge_mix_param =     0.0500.
  No q(lm)/r^(l+1) cutoff set for long-range Hartree potential.
  | Using default value of  0.100000E-09 .
  | Verify using the multipole_threshold keyword.
  Defaulting to new monopole extrapolation.
  Density update method: automatic selection selected.
  Using density matrix based charge density update.
  Using density matrix based charge density update.
  Using packed matrix style: index .
  Defaulting to use time-reversal symmetry for k-point grid.
------------------------------------------------------------


------------------------------------------------------------
          Reading geometry description geometry.in.
------------------------------------------------------------
  Input structure read successfully.
  The structure contains        2 atoms,  and a total of         28.000 electrons.

  Input geometry:
  | Unit cell:
  |        0.00000000        3.00000000        3.00000000
  |        3.00000000        0.00000000        3.00000000
  |        3.00000000        3.00000000        0.00000000
  | Atomic structure:
  |       Atom                x [A]            y [A]            z [A]
  |    1: Species Si            0.00000000        0.00000000        0.00000000
  |    2: Species Si            1.50000000        1.50000000        1.50000000

  Lattice parameters for 3D lattice (in Angstroms) :     4.242641    4.242641    4.242641
  Angle(s) between unit vectors (in degrees)      :    60.000000   60.000000   60.000000

  |

  | The smallest distance between any two atoms is         2.59807621 AA.
  |
  | The first atom of this pair is atom number                      1 .
  | The second atom of this pair is atom number                     2 .
  | Wigner-Seitz cell of the first atom image           0     0     0 .
  | (The Wigner-Seitz cell of the second atom is 0 0 0  by definition.)

  Quantities derived from the lattice vectors:
  | Reciprocal lattice vector 1: -1.047198  1.047198  1.047198
  | Reciprocal lattice vector 2:  1.047198 -1.047198  1.047198
  | Reciprocal lattice vector 3:  1.047198  1.047198 -1.047198
  | Unit cell volume                               :   0.540000E+02  A^3

  Range separation radius for Ewald summation (hartree_convergence_parameter):      4.33395405 bohr.

  Fractional coordinates:
                         L1                L2                L3
       atom_frac         0.00000000        0.00000000        0.00000000  Si
       atom_frac         0.25000000        0.25000000        0.25000000  Si

  Number of empty states per atom not set in control.in - providing a guess from actual geometry.
  | Total number of empty states used during s.c.f. cycle:        6
  If you use a very high smearing, use empty_states (per atom!) in control.in to increase this value.

  Structure-dependent array size parameters: 
  | Maximum number of distinct radial functions  :        8
  | Maximum number of basis functions            :       36
  | Number of Kohn-Sham states (occupied + empty):       20
------------------------------------------------------------

------------------------------------------------------------
          Preparing all fixed parts of the calculation.
------------------------------------------------------------
  Determining machine precision:
     2.2250738585072014E-308
  Setting up grids for atomic and cluster calculations.

  Creating wave function, potential, and density for free atoms.

  Species: Si

  List of occupied orbitals and eigenvalues:
    n    l              occ      energy [Ha]    energy [eV]
    1    0           2.0000       -65.491668     -1782.1190
    2    0           2.0000        -5.087967      -138.4506
    3    0           2.0000        -0.391471       -10.6525
    2    1           6.0000        -3.502246       -95.3010
    3    1           2.0000        -0.143943        -3.9169

  Creating fixed part of basis set: Ionic, confined, hydrogenic.

  Si                   ion:

  List of free ionic orbitals and eigenvalues:
    n    l      energy [Ha]    energy [eV]
    1    0       -66.364436     -1805.8682
    2    0        -5.935799      -161.5213
    3    0        -1.078166       -29.3384
    2    1        -4.351123      -118.4001
    3    1        -0.781733       -21.2720


  List of ionic basis orbitals and eigenvalues:
    n    l      energy [Ha]    energy [eV]    outer radius [A]
    3    0        -1.078146       -29.3378       4.214062


  Si                   hydrogenic:

  List of hydrogenic basis orbitals: 
    n    l      effective z      eigenvalue [eV]  inner max. [A]     outer max. [A]     outer radius [A]   
    3    2         4.200000       -26.6624           1.139231           1.139231           4.534782
    2    1         1.400000        -6.4613           1.472672           1.472672           4.590560


  Adding cutoff potential to free-atom effective potential.
  Creating atomic-like basis functions for current effective potential.

  Species Si                  :

  List of atomic basis orbitals and eigenvalues:
    n    l      energy [Ha]    energy [eV]    outer radius [A]
    1    0       -65.491668     -1782.1190       0.789468
    2    0        -5.087967      -138.4506       2.815114
    3    0        -0.391471       -10.6525       4.534782
    2    1        -3.502246       -95.3010       3.259919
    3    1        -0.143943        -3.9169       4.590560

  Assembling full basis from fixed parts.
  | Species Si :   atomic orbital   1 s accepted.
  | Species Si :   atomic orbital   2 s accepted.
  | Species Si :    ionic orbital   3 s accepted.
  | Species Si :   atomic orbital   3 s accepted.
  | Species Si :   atomic orbital   2 p accepted.
  | Species Si :   atomic orbital   3 p accepted.
  | Species Si :    hydro orbital   2 p accepted.
  | Species Si :    hydro orbital   3 d accepted.

  Basis size parameters after reduction:
  | Total number of radial functions:        8
  | Total number of basis functions :       36

  Per-task memory consumption for arrays in subroutine allocate_ext:
  |           2.757868MB.
  Testing on-site integration grid accuracy.
  |  Species  Function  <phi|h_atom|phi> (log., in eV)  <phi|h_atom|phi> (rad., in eV)
           1        1              -1782.1189727076              -1782.1182429251
           1        2               -138.4506350693               -138.4506310079
           1        3                -10.3030408815                -10.3029120678
           1        4                  5.0238999146                  4.9457540310 ***
           1        5                -95.3009689499                -95.3009689315
           1        6                 -3.9266496564                 -3.9420918374
           1        7                  6.3453628447                  6.1632372158 ***
           1        8                  6.2883050744                  6.2861881409
 * Note: Onsite integrals marked "***" above are less accurate than
 * onsite_accuracy_threshold =    0.03000 eV. Usually, this is harmless.
 * When in doubt, tighten the "radial" and/or "radial_multiplier" flags to check.

  Preparing densities etc. for the partition functions (integrals / Hartree potential).

  Preparations completed.
  max(cpu_time)          :      0.091 s.
  Wall clock time (cpu1) :      0.091 s.
------------------------------------------------------------

------------------------------------------------------------
          Begin self-consistency loop: Initialization.

          Date     :  20190514, Time     :  124039.110
------------------------------------------------------------

  Initializing index lists of integration centers etc. from given atomic structure:
  Mapping all atomic coordinates to central unit cell.

  Initializing the k-points
          Using symmetry for reducing the k-points
  | k-points reduced from:     1728 to      868
  | Number of k-points                             :       868
  The eigenvectors in the calculations are COMPLEX.
  | K-points in task   0:       868
  | Number of basis functions in the Hamiltonian integrals :       923
  | Number of basis functions in a single unit cell        :        36
  | Number of centers in hartree potential         :       708
  | Number of centers in hartree multipole         :       228
  | Number of centers in electron density summation:       172
  | Number of centers in basis integrals           :       172
  | Number of centers in integrals                 :        75
  | Number of centers in hamiltonian               :       172
  | Consuming       1274 KiB for k_phase.
  | Number of super-cells (origin) [n_cells]                     :        2197
  | Number of super-cells (after PM_index) [n_cells]             :          94
  | Number of super-cells in hamiltonian [n_cells_in_hamiltonian]:          94
  | Size of matrix packed + index [n_hamiltonian_matrix_size] :       32403
  Partitioning the integration grid into batches with maxmin method.
  | Maximal weight for a single point:     1.000
  | Minimal weight for a single point:     0.582
  | Number of batches:      128
  | Maximal batch size:      90
  | Minimal batch size:      85
  | Average batch size:      87.562
  | Standard deviation of batch sizes:       1.493
  Initializing partition tables, free-atom densities, potentials, etc. across the integration grid (initialize_grid_storage).
  | initialize_grid_storage: Actual outermost partition radius vs. multipole_radius_free
  | (-- VB: in principle, multipole_radius_free should be larger, hence this output)
  | Species        1: Confinement radius =              4.999999999999999 AA, multipole_radius_free =              5.000694715736543 AA.
  | Species        1: outer_partition_radius set to              5.000694715736543 AA .
  | Original list of interatomic distances with         172 x        172 entries is created.
  | Net number of integration points:    11208
  | of which are non-zero points    :    10092
  | Numerical average free-atom electrostatic potential    :     -9.74396080 eV
  Renormalizing the initial density to the exact electron count on the 3D integration grid.
  | Initial density: Formal number of electrons (from input files) :      28.0000000000
  | Integrated number of electrons on 3D grid     :      28.0024606670
  | Charge integration error                      :       0.0024606670
  | Normalization factor for density and gradient :       0.9999121268
  Obtaining max. number of non-zero basis functions in each batch (get_n_compute_maxes).
  | Maximal number of non-zero basis functions:      379 in task     0
  Allocating        9.999 MB for KS_eigenvector_complex
  Integrating Hamiltonian matrix: batch-based integration.
  Time summed over all CPUs for integration: real work        0.341 s, elapsed        0.341 s
  Integrating overlap matrix.
  Time summed over all CPUs for integration: real work        0.244 s, elapsed        0.244 s
  Decreasing sparse matrix size:
   Tolerance:   9.9999998245167004E-014
   Hamiltonian matrix
  | Array has    28802 nonzero elements out of    32403 elements
  | Sparsity factor is 0.111
   Overlap matrix
  | Array has    27516 nonzero elements out of    32403 elements
  | Sparsity factor is 0.151
  New size of hamiltonian matrix:       29059

  Updating Kohn-Sham eigenvalues, eigenvectors, occupation numbers, and Fermi level.
  Solving generalized eigenproblem
  Transforming overlap matrix and checking for singularities.
  Overlap matrix is nonsingular at first k-point:
  | Lowest eigenvalue:  0.131365E-01

  Obtaining occupation numbers and chemical potential using ELSI.
  | Chemical potential (Fermi level):    -5.58663677eV
  Writing Kohn-Sham eigenvalues.
  K-point:       1 at    0.000000    0.000000    0.000000 (in units of recip. lattice)

  State    Occupation    Eigenvalue [Ha]    Eigenvalue [eV]
      1       2.00000         -65.500571        -1782.36123
      2       2.00000         -65.500571        -1782.36123
      3       2.00000          -5.099280         -138.75848
      4       2.00000          -5.099215         -138.75671
      5       2.00000          -3.513538          -95.60824
      6       2.00000          -3.513538          -95.60824
      7       2.00000          -3.513538          -95.60824
      8       2.00000          -3.513359          -95.60335
      9       2.00000          -3.513359          -95.60335
     10       2.00000          -3.513359          -95.60335
     11       2.00000          -0.584009          -15.89170
     12       2.00000          -0.212464           -5.78145
     13       2.00000          -0.212464           -5.78145
     14       2.00000          -0.212464           -5.78145
     15       0.00000          -0.203832           -5.54656
     16       0.00000          -0.120489           -3.27868
     17       0.00000          -0.120489           -3.27868
     18       0.00000          -0.120489           -3.27868
     19       0.00000           0.081648            2.22175
     20       0.00000           0.081648            2.22175

  What follows are estimated values for band gap, HOMO, LUMO, etc.
  | They are estimated on a discrete k-point grid and not necessarily exact.
  | For converged numbers, create a DOS and/or band structure plot on a denser k-grid.

  Highest occupied state (VBM) at     -5.78144775 eV (relative to internal zero)
  | Occupation number:      2.00000000
  | K-point:       1 at    0.000000    0.000000    0.000000 (in units of recip. lattice)

  Lowest unoccupied state (CBM) at    -5.54655656 eV (relative to internal zero)
  | Occupation number:      0.00000001
  | K-point:       1 at    0.000000    0.000000    0.000000 (in units of recip. lattice)

  ESTIMATED overall HOMO-LUMO gap:      0.23489119 eV between HOMO at k-point 1 and LUMO at k-point 1
  | This appears to be a direct band gap.
  The gap value is above 0.2 eV. Unless you are using a very sparse k-point grid,
  this system is most likely an insulator or a semiconductor.
  Calculating total energy contributions from superposition of free atom densities.

  Total energy components:
  | Sum of eigenvalues            :        -327.52274968 Ha       -8912.34747393 eV
  | XC energy correction          :         -39.52114421 Ha       -1075.42505105 eV
  | XC potential correction       :          52.21501360 Ha        1420.84281165 eV
  | Free-atom electrostatic energy:        -263.87874939 Ha       -7180.50611089 eV
  | Hartree energy correction     :          -0.00000000 Ha          -0.00000000 eV
  | Entropy correction            :          -0.00000000 Ha          -0.00000000 eV
  | ---------------------------
  | Total energy                  :        -578.70762968 Ha      -15747.43582423 eV
  | Total energy, T -> 0          :        -578.70762968 Ha      -15747.43582423 eV  <-- do not rely on this value for anything but (periodic) metals
  | Electronic free energy        :        -578.70762968 Ha      -15747.43582423 eV

  Derived energy quantities:
  | Kinetic energy                :         579.38142809 Ha       15765.77081201 eV
  | Electrostatic energy          :       -1118.56791356 Ha      -30437.78158519 eV
  | Energy correction for multipole
  | error in Hartree potential    :           0.00000000 Ha           0.00000000 eV
  | Sum of eigenvalues per atom                           :       -4456.17373697 eV
  | Total energy (T->0) per atom                          :       -7873.71791212 eV  <-- do not rely on this value for anything but (periodic) metals
  | Electronic free energy per atom                       :       -7873.71791212 eV
  Initialize hartree_potential_storage
  Max. number of atoms included in rho_multipole:            2

  End scf initialization - timings             :  max(cpu_time)    wall_clock(cpu1)
  | Time for scf. initialization               :        1.749 s           1.749 s
  | Boundary condition initialization          :        0.049 s           0.049 s
  | Integration                                :        0.585 s           0.585 s
  | Solution of K.-S. eqns.                    :        0.965 s           0.965 s
  | Grid partitioning                          :        0.023 s           0.023 s
  | Preloading free-atom quantities on grid    :        0.001 s           0.001 s
  | Free-atom superposition energy             :        0.025 s           0.025 s
  | Total energy evaluation                    :        0.000 s           0.000 s

  Partial memory accounting:
  | Current value for overall tracked memory usage on task 0  :          10.581 MB
  | Peak value for overall tracked memory usage on task 0     :          12.615 MB after allocating wave
  | Largest tracked array allocation on task 0 so far         :           9.999 MB  when allocating +KS_eigenvector_complex
  Note:  These values currently only include a subset of arrays which are explicitly tracked.
  The "true" memory usage will be greater.
------------------------------------------------------------

------------------------------------------------------------
          Begin self-consistency iteration #    1

  Date     :  20190514, Time     :  124040.859
------------------------------------------------------------
  Evaluating new KS density using the density matrix
  Evaluating density matrix
  Time summed over all CPUs for getting density from density matrix: real work        0.575 s, elapsed        0.575 s
  Integration grid: deviation in total charge (<rho> - N_e) =   8.252954E-12
  Pulay mixing of updated and previous charge densities.

  Evaluating partitioned Hartree potential by multipole expansion.
  | Analytical far-field extrapolation by fixed multipoles:
  | Hartree multipole sum: apparent total charge =   0.267091E-02
  Summing up the Hartree potential.
  | Estimated reciprocal-space cutoff momentum G_max:         2.14272145 bohr^-1 .
  | Reciprocal lattice points for long-range Hartree potential:      58
  Time summed over all CPUs for potential: real work        0.348 s, elapsed        0.348 s
  | RMS charge density error from multipole expansion :   0.288350E-03
  | Average real-space part of the electrostatic potential :     -0.00364069 eV

  Integrating Hamiltonian matrix: batch-based integration.
  Time summed over all CPUs for integration: real work        0.346 s, elapsed        0.346 s

  Updating Kohn-Sham eigenvalues, eigenvectors, occupation numbers, and Fermi level.
  Solving generalized eigenproblem

  Obtaining occupation numbers and chemical potential using ELSI.
  | Chemical potential (Fermi level):    -5.57708585eV
  Writing Kohn-Sham eigenvalues.
  K-point:       1 at    0.000000    0.000000    0.000000 (in units of recip. lattice)

  State    Occupation    Eigenvalue [Ha]    Eigenvalue [eV]
      1       2.00000         -65.502988        -1782.42698
      2       2.00000         -65.502988        -1782.42698
      3       2.00000          -5.100062         -138.77974
      4       2.00000          -5.099997         -138.77797
      5       2.00000          -3.514384          -95.63125
      6       2.00000          -3.514384          -95.63125
      7       2.00000          -3.514384          -95.63125
      8       2.00000          -3.514205          -95.62637
      9       2.00000          -3.514205          -95.62637
     10       2.00000          -3.514205          -95.62637
     11       2.00000          -0.583671          -15.88248
     12       2.00000          -0.212019           -5.76933
     13       2.00000          -0.212019           -5.76933
     14       2.00000          -0.212019           -5.76933
     15       0.00000          -0.203481           -5.53701
     16       0.00000          -0.120246           -3.27207
     17       0.00000          -0.120246           -3.27207
     18       0.00000          -0.120246           -3.27207
     19       0.00000           0.081952            2.23003
     20       0.00000           0.081952            2.23003

  What follows are estimated values for band gap, HOMO, LUMO, etc.
  | They are estimated on a discrete k-point grid and not necessarily exact.
  | For converged numbers, create a DOS and/or band structure plot on a denser k-grid.

  Highest occupied state (VBM) at     -5.76932675 eV (relative to internal zero)
  | Occupation number:      2.00000000
  | K-point:       1 at    0.000000    0.000000    0.000000 (in units of recip. lattice)

  Lowest unoccupied state (CBM) at    -5.53701154 eV (relative to internal zero)
  | Occupation number:      0.00000001
  | K-point:       1 at    0.000000    0.000000    0.000000 (in units of recip. lattice)

  ESTIMATED overall HOMO-LUMO gap:      0.23231521 eV between HOMO at k-point 1 and LUMO at k-point 1
  | This appears to be a direct band gap.
  The gap value is above 0.2 eV. Unless you are using a very sparse k-point grid,
  this system is most likely an insulator or a semiconductor.

  Total energy components:
  | Sum of eigenvalues            :        -327.54282413 Ha       -8912.89372774 eV
  | XC energy correction          :         -39.52159907 Ha       -1075.43742839 eV
  | XC potential correction       :          52.21560395 Ha        1420.85887605 eV
  | Free-atom electrostatic energy:        -263.87874939 Ha       -7180.50611089 eV
  | Hartree energy correction     :           0.02019664 Ha           0.54957850 eV
  | Entropy correction            :          -0.00000000 Ha          -0.00000000 eV
  | ---------------------------
  | Total energy                  :        -578.70737200 Ha      -15747.42881247 eV
  | Total energy, T -> 0          :        -578.70737200 Ha      -15747.42881247 eV  <-- do not rely on this value for anything but (periodic) metals
  | Electronic free energy        :        -578.70737200 Ha      -15747.42881247 eV

  Derived energy quantities:
  | Kinetic energy                :         579.29414749 Ha       15763.39578603 eV
  | Electrostatic energy          :       -1118.47992042 Ha      -30435.38717011 eV
  | Energy correction for multipole
  | error in Hartree potential    :           0.00031781 Ha           0.00864795 eV
  | Sum of eigenvalues per atom                           :       -4456.44686387 eV
  | Total energy (T->0) per atom                          :       -7873.71440624 eV  <-- do not rely on this value for anything but (periodic) metals
  | Electronic free energy per atom                       :       -7873.71440624 eV

  Self-consistency convergence accuracy:
  | Change of charge density      :  0.7838E-01
  | Change of sum of eigenvalues  : -0.5463E+00 eV
  | Change of total energy        :  0.7012E-02 eV

  End self-consistency iteration #     1       :  max(cpu_time)    wall_clock(cpu1)
  | Time for this iteration                    :        1.844 s           1.844 s
  | Charge density update                      :        0.627 s           0.627 s
  | Density mixing & preconditioning           :        0.045 s           0.045 s
  | Hartree multipole update                   :        0.001 s           0.000 s
  | Hartree multipole summation                :        0.351 s           0.351 s
  | Integration                                :        0.346 s           0.346 s
  | Solution of K.-S. eqns.                    :        0.474 s           0.474 s
  | Total energy evaluation                    :        0.000 s           0.001 s

  Partial memory accounting:
  | Current value for overall tracked memory usage on task 0  :          10.581 MB
  | Peak value for overall tracked memory usage on task 0     :          12.615 MB after allocating wave
  | Largest tracked array allocation on task 0 so far         :           9.999 MB  when allocating +KS_eigenvector_complex
  Note:  These values currently only include a subset of arrays which are explicitly tracked.
  The "true" memory usage will be greater.
------------------------------------------------------------

------------------------------------------------------------
          Begin self-consistency iteration #    2

  Date     :  20190514, Time     :  124042.703
------------------------------------------------------------
  Evaluating new KS density using the density matrix
  Evaluating density matrix
  Time summed over all CPUs for getting density from density matrix: real work        0.572 s, elapsed        0.572 s
  Integration grid: deviation in total charge (<rho> - N_e) =   8.419931E-12
  Pulay mixing of updated and previous charge densities.

  Evaluating partitioned Hartree potential by multipole expansion.
  | Analytical far-field extrapolation by fixed multipoles:
  | Hartree multipole sum: apparent total charge =   0.646242E-02
  Summing up the Hartree potential.
  Time summed over all CPUs for potential: real work        0.429 s, elapsed        0.429 s
  | RMS charge density error from multipole expansion :   0.571539E-02
  | Average real-space part of the electrostatic potential :      0.11782046 eV

  Integrating Hamiltonian matrix: batch-based integration.
  Time summed over all CPUs for integration: real work        0.345 s, elapsed        0.345 s

  Updating Kohn-Sham eigenvalues, eigenvectors, occupation numbers, and Fermi level.
  Solving generalized eigenproblem

  Obtaining occupation numbers and chemical potential using ELSI.
  | Chemical potential (Fermi level):    -5.26474353eV
  What follows are estimated values for band gap, HOMO, LUMO, etc.
  | They are estimated on a discrete k-point grid and not necessarily exact.
  | For converged numbers, create a DOS and/or band structure plot on a denser k-grid.

  Highest occupied state (VBM) at     -5.44885408 eV (relative to internal zero)
  | Occupation number:      2.00000000
  | K-point:       1 at    0.000000    0.000000    0.000000 (in units of recip. lattice)

  Lowest unoccupied state (CBM) at    -5.22467485 eV (relative to internal zero)
  | Occupation number:      0.00000001
  | K-point:       1 at    0.000000    0.000000    0.000000 (in units of recip. lattice)

  ESTIMATED overall HOMO-LUMO gap:      0.22417923 eV between HOMO at k-point 1 and LUMO at k-point 1
  | This appears to be a direct band gap.
  The gap value is above 0.2 eV. Unless you are using a very sparse k-point grid,
  this system is most likely an insulator or a semiconductor.

  Checking to see if s.c.f. parameters should be adjusted.
  The system likely has a gap. Increased the default Pulay mixing parameter (charge_mix_param). Value:   0.200000 .
  Kept the default occupation width. Value:   0.010000 eV.

  Total energy components:
  | Sum of eigenvalues            :        -327.32095256 Ha       -8906.85629513 eV
  | XC energy correction          :         -39.53762622 Ha       -1075.87354918 eV
  | XC potential correction       :          52.23654037 Ha        1421.42858508 eV
  | Free-atom electrostatic energy:        -263.87874939 Ha       -7180.50611089 eV
  | Hartree energy correction     :          -0.20437796 Ha          -5.56140721 eV
  | Entropy correction            :          -0.00000000 Ha          -0.00000000 eV
  | ---------------------------
  | Total energy                  :        -578.70516575 Ha      -15747.36877733 eV
  | Total energy, T -> 0          :        -578.70516575 Ha      -15747.36877733 eV  <-- do not rely on this value for anything but (periodic) metals
  | Electronic free energy        :        -578.70516575 Ha      -15747.36877733 eV

  Derived energy quantities:
  | Kinetic energy                :         579.06430130 Ha       15757.14135278 eV
  | Electrostatic energy          :       -1118.23184083 Ha      -30428.63658093 eV
  | Energy correction for multipole
  | error in Hartree potential    :           0.00630180 Ha           0.17148067 eV
  | Sum of eigenvalues per atom                           :       -4453.42814756 eV
  | Total energy (T->0) per atom                          :       -7873.68438867 eV  <-- do not rely on this value for anything but (periodic) metals
  | Electronic free energy per atom                       :       -7873.68438867 eV

  Self-consistency convergence accuracy:
  | Change of charge density      :  0.7450E-01
  | Change of sum of eigenvalues  :  0.6037E+01 eV
  | Change of total energy        :  0.6004E-01 eV

  End self-consistency iteration #     2       :  max(cpu_time)    wall_clock(cpu1)
  | Time for this iteration                    :        1.920 s           1.920 s
  | Charge density update                      :        0.623 s           0.623 s
  | Density mixing & preconditioning           :        0.045 s           0.045 s
  | Hartree multipole update                   :        0.001 s           0.001 s
  | Hartree multipole summation                :        0.432 s           0.432 s
  | Integration                                :        0.345 s           0.345 s
  | Solution of K.-S. eqns.                    :        0.474 s           0.474 s
  | Total energy evaluation                    :        0.000 s           0.000 s

  Partial memory accounting:
  | Current value for overall tracked memory usage on task 0  :          10.582 MB
  | Peak value for overall tracked memory usage on task 0     :          12.615 MB after allocating wave
  | Largest tracked array allocation on task 0 so far         :           9.999 MB  when allocating +KS_eigenvector_complex
  Note:  These values currently only include a subset of arrays which are explicitly tracked.
  The "true" memory usage will be greater.
------------------------------------------------------------

------------------------------------------------------------
          Begin self-consistency iteration #    3

  Date     :  20190514, Time     :  124044.623
------------------------------------------------------------
  Evaluating new KS density using the density matrix
  Evaluating density matrix
  Time summed over all CPUs for getting density from density matrix: real work        0.572 s, elapsed        0.572 s
  Integration grid: deviation in total charge (<rho> - N_e) =   8.370193E-12
  Pulay mixing of updated and previous charge densities.

  Evaluating partitioned Hartree potential by multipole expansion.
  | Analytical far-field extrapolation by fixed multipoles:
  | Hartree multipole sum: apparent total charge =   0.597229E-02
  Summing up the Hartree potential.
  Time summed over all CPUs for potential: real work        0.428 s, elapsed        0.428 s
  | RMS charge density error from multipole expansion :   0.576464E-02
  | Average real-space part of the electrostatic potential :      0.11378828 eV

  Integrating Hamiltonian matrix: batch-based integration.
  Time summed over all CPUs for integration: real work        0.342 s, elapsed        0.343 s

  Updating Kohn-Sham eigenvalues, eigenvectors, occupation numbers, and Fermi level.
  Solving generalized eigenproblem

  Obtaining occupation numbers and chemical potential using ELSI.
  | Chemical potential (Fermi level):    -5.27645434eV
  What follows are estimated values for band gap, HOMO, LUMO, etc.
  | They are estimated on a discrete k-point grid and not necessarily exact.
  | For converged numbers, create a DOS and/or band structure plot on a denser k-grid.

  Highest occupied state (VBM) at     -5.45731268 eV (relative to internal zero)
  | Occupation number:      2.00000000
  | K-point:       1 at    0.000000    0.000000    0.000000 (in units of recip. lattice)

  Lowest unoccupied state (CBM) at    -5.23638073 eV (relative to internal zero)
  | Occupation number:      0.00000001
  | K-point:       1 at    0.000000    0.000000    0.000000 (in units of recip. lattice)

  ESTIMATED overall HOMO-LUMO gap:      0.22093195 eV between HOMO at k-point 1 and LUMO at k-point 1
  | This appears to be a direct band gap.
  The gap value is above 0.2 eV. Unless you are using a very sparse k-point grid,
  this system is most likely an insulator or a semiconductor.

  Total energy components:
  | Sum of eigenvalues            :        -327.34414329 Ha       -8907.48734702 eV
  | XC energy correction          :         -39.53664515 Ha       -1075.84685295 eV
  | XC potential correction       :          52.23524819 Ha        1421.39342297 eV
  | Free-atom electrostatic energy:        -263.87874939 Ha       -7180.50611089 eV
  | Hartree energy correction     :          -0.18082709 Ha          -4.92055548 eV
  | Entropy correction            :          -0.00000000 Ha          -0.00000000 eV
  | ---------------------------
  | Total energy                  :        -578.70511673 Ha      -15747.36744337 eV
  | Total energy, T -> 0          :        -578.70511673 Ha      -15747.36744337 eV  <-- do not rely on this value for anything but (periodic) metals
  | Electronic free energy        :        -578.70511673 Ha      -15747.36744337 eV

  Derived energy quantities:
  | Kinetic energy                :         579.06004482 Ha       15757.02552813 eV
  | Electrostatic energy          :       -1118.22851640 Ha      -30428.54611855 eV
  | Energy correction for multipole
  | error in Hartree potential    :           0.00636957 Ha           0.17332475 eV
  | Sum of eigenvalues per atom                           :       -4453.74367351 eV
  | Total energy (T->0) per atom                          :       -7873.68372169 eV  <-- do not rely on this value for anything but (periodic) metals
  | Electronic free energy per atom                       :       -7873.68372169 eV

  Self-consistency convergence accuracy:
  | Change of charge density      :  0.1131E-01
  | Change of sum of eigenvalues  : -0.6311E+00 eV
  | Change of total energy        :  0.1334E-02 eV

  End self-consistency iteration #     3       :  max(cpu_time)    wall_clock(cpu1)
  | Time for this iteration                    :        1.912 s           1.912 s
  | Charge density update                      :        0.623 s           0.623 s
  | Density mixing & preconditioning           :        0.044 s           0.044 s
  | Hartree multipole update                   :        0.001 s           0.001 s
  | Hartree multipole summation                :        0.431 s           0.431 s
  | Integration                                :        0.342 s           0.343 s
  | Solution of K.-S. eqns.                    :        0.470 s           0.470 s
  | Total energy evaluation                    :        0.000 s           0.000 s

  Partial memory accounting:
  | Current value for overall tracked memory usage on task 0  :          10.582 MB
  | Peak value for overall tracked memory usage on task 0     :          12.615 MB after allocating wave
  | Largest tracked array allocation on task 0 so far         :           9.999 MB  when allocating +KS_eigenvector_complex
  Note:  These values currently only include a subset of arrays which are explicitly tracked.
  The "true" memory usage will be greater.
------------------------------------------------------------

------------------------------------------------------------
          Begin self-consistency iteration #    4

  Date     :  20190514, Time     :  124046.535
------------------------------------------------------------
  Evaluating new KS density using the density matrix
  Evaluating density matrix
  Time summed over all CPUs for getting density from density matrix: real work        0.569 s, elapsed        0.569 s
  Integration grid: deviation in total charge (<rho> - N_e) =   8.409273E-12
  Pulay mixing of updated and previous charge densities.

  Evaluating partitioned Hartree potential by multipole expansion.
  | Analytical far-field extrapolation by fixed multipoles:
  | Hartree multipole sum: apparent total charge =   0.308574E-02
  Summing up the Hartree potential.
  Time summed over all CPUs for potential: real work        0.427 s, elapsed        0.427 s
  | RMS charge density error from multipole expansion :   0.612945E-02
  | Average real-space part of the electrostatic potential :      0.09235877 eV

  Integrating Hamiltonian matrix: batch-based integration.
  Time summed over all CPUs for integration: real work        0.343 s, elapsed        0.343 s

  Updating Kohn-Sham eigenvalues, eigenvectors, occupation numbers, and Fermi level.
  Solving generalized eigenproblem

  Obtaining occupation numbers and chemical potential using ELSI.
  | Chemical potential (Fermi level):    -5.34014837eV
  What follows are estimated values for band gap, HOMO, LUMO, etc.
  | They are estimated on a discrete k-point grid and not necessarily exact.
  | For converged numbers, create a DOS and/or band structure plot on a denser k-grid.

  Highest occupied state (VBM) at     -5.50185418 eV (relative to internal zero)
  | Occupation number:      2.00000000
  | K-point:       1 at    0.000000    0.000000    0.000000 (in units of recip. lattice)

  Lowest unoccupied state (CBM) at    -5.30006462 eV (relative to internal zero)
  | Occupation number:      0.00000001
  | K-point:       1 at    0.000000    0.000000    0.000000 (in units of recip. lattice)

  ESTIMATED overall HOMO-LUMO gap:      0.20178956 eV between HOMO at k-point 1 and LUMO at k-point 1
  | This appears to be a direct band gap.
  The gap value is above 0.2 eV. Unless you are using a very sparse k-point grid,
  this system is most likely an insulator or a semiconductor.

  Total energy components:
  | Sum of eigenvalues            :        -327.47728382 Ha       -8911.11028496 eV
  | XC energy correction          :         -39.53112055 Ha       -1075.69652113 eV
  | XC potential correction       :          52.22796673 Ha        1421.19528438 eV
  | Free-atom electrostatic energy:        -263.87874939 Ha       -7180.50611089 eV
  | Hartree energy correction     :          -0.04573859 Ha          -1.24461049 eV
  | Entropy correction            :          -0.00000000 Ha          -0.00000000 eV
  | ---------------------------
  | Total energy                  :        -578.70492562 Ha      -15747.36224310 eV
  | Total energy, T -> 0          :        -578.70492562 Ha      -15747.36224310 eV  <-- do not rely on this value for anything but (periodic) metals
  | Electronic free energy        :        -578.70492562 Ha      -15747.36224310 eV

  Derived energy quantities:
  | Kinetic energy                :         579.03086777 Ha       15756.23158028 eV
  | Electrostatic energy          :       -1118.20467284 Ha      -30427.89730225 eV
  | Energy correction for multipole
  | error in Hartree potential    :           0.00684113 Ha           0.18615669 eV
  | Sum of eigenvalues per atom                           :       -4455.55514248 eV
  | Total energy (T->0) per atom                          :       -7873.68112155 eV  <-- do not rely on this value for anything but (periodic) metals
  | Electronic free energy per atom                       :       -7873.68112155 eV

  Self-consistency convergence accuracy:
  | Change of charge density      :  0.9886E-02
  | Change of sum of eigenvalues  : -0.3623E+01 eV
  | Change of total energy        :  0.5200E-02 eV

  End self-consistency iteration #     4       :  max(cpu_time)    wall_clock(cpu1)
  | Time for this iteration                    :        1.907 s           1.908 s
  | Charge density update                      :        0.620 s           0.621 s
  | Density mixing & preconditioning           :        0.043 s           0.042 s
  | Hartree multipole update                   :        0.001 s           0.001 s
  | Hartree multipole summation                :        0.431 s           0.431 s
  | Integration                                :        0.343 s           0.343 s
  | Solution of K.-S. eqns.                    :        0.469 s           0.469 s
  | Total energy evaluation                    :        0.000 s           0.000 s

  Partial memory accounting:
  | Current value for overall tracked memory usage on task 0  :          10.582 MB
  | Peak value for overall tracked memory usage on task 0     :          12.615 MB after allocating wave
  | Largest tracked array allocation on task 0 so far         :           9.999 MB  when allocating +KS_eigenvector_complex
  Note:  These values currently only include a subset of arrays which are explicitly tracked.
  The "true" memory usage will be greater.
------------------------------------------------------------

------------------------------------------------------------
          Begin self-consistency iteration #    5

  Date     :  20190514, Time     :  124048.443
------------------------------------------------------------
  Evaluating new KS density using the density matrix
  Evaluating density matrix
  Time summed over all CPUs for getting density from density matrix: real work        0.573 s, elapsed        0.573 s
  Integration grid: deviation in total charge (<rho> - N_e) =   8.299139E-12
  Pulay mixing of updated and previous charge densities.

  Evaluating partitioned Hartree potential by multipole expansion.
  | Analytical far-field extrapolation by fixed multipoles:
  | Hartree multipole sum: apparent total charge =   0.241008E-02
  Summing up the Hartree potential.
  Time summed over all CPUs for potential: real work        0.430 s, elapsed        0.430 s
  | RMS charge density error from multipole expansion :   0.613728E-02
  | Average real-space part of the electrostatic potential :      0.09231177 eV

  Integrating Hamiltonian matrix: batch-based integration.
  Time summed over all CPUs for integration: real work        0.344 s, elapsed        0.344 s

  Updating Kohn-Sham eigenvalues, eigenvectors, occupation numbers, and Fermi level.
  Solving generalized eigenproblem

  Obtaining occupation numbers and chemical potential using ELSI.
  | Chemical potential (Fermi level):    -5.34572328eV
  What follows are estimated values for band gap, HOMO, LUMO, etc.
  | They are estimated on a discrete k-point grid and not necessarily exact.
  | For converged numbers, create a DOS and/or band structure plot on a denser k-grid.

  Highest occupied state (VBM) at     -5.50518907 eV (relative to internal zero)
  | Occupation number:      2.00000000
  | K-point:       1 at    0.000000    0.000000    0.000000 (in units of recip. lattice)

  Lowest unoccupied state (CBM) at    -5.30565125 eV (relative to internal zero)
  | Occupation number:      0.00000001
  | K-point:       1 at    0.000000    0.000000    0.000000 (in units of recip. lattice)

  ESTIMATED overall HOMO-LUMO gap:      0.19953782 eV between HOMO at k-point 1 and LUMO at k-point 1
  | This appears to be a direct band gap.
  The gap value is rather small. This may be a metal or a small-gap semiconductor.
  Since we use a finite k-point grid, a DOS and/or band structure plot is required
  for an unambiguous assignment.

  Total energy components:
  | Sum of eigenvalues            :        -327.49656368 Ha       -8911.63491679 eV
  | XC energy correction          :         -39.52962393 Ha       -1075.65579583 eV
  | XC potential correction       :          52.22598253 Ha        1421.14129139 eV
  | Free-atom electrostatic energy:        -263.87874939 Ha       -7180.50611089 eV
  | Hartree energy correction     :          -0.02596242 Ha          -0.70647329 eV
  | Entropy correction            :          -0.00000000 Ha          -0.00000000 eV
  | ---------------------------
  | Total energy                  :        -578.70491689 Ha      -15747.36200541 eV
  | Total energy, T -> 0          :        -578.70491689 Ha      -15747.36200541 eV  <-- do not rely on this value for anything but (periodic) metals
  | Electronic free energy        :        -578.70491689 Ha      -15747.36200541 eV

  Derived energy quantities:
  | Kinetic energy                :         579.02061901 Ha       15755.95269742 eV
  | Electrostatic energy          :       -1118.19591197 Ha      -30427.65890699 eV
  | Energy correction for multipole
  | error in Hartree potential    :           0.00686891 Ha           0.18691266 eV
  | Sum of eigenvalues per atom                           :       -4455.81745839 eV
  | Total energy (T->0) per atom                          :       -7873.68100270 eV  <-- do not rely on this value for anything but (periodic) metals
  | Electronic free energy per atom                       :       -7873.68100270 eV

  Self-consistency convergence accuracy:
  | Change of charge density      :  0.3214E-02
  | Change of sum of eigenvalues  : -0.5246E+00 eV
  | Change of total energy        :  0.2377E-03 eV

  End self-consistency iteration #     5       :  max(cpu_time)    wall_clock(cpu1)
  | Time for this iteration                    :        1.915 s           1.915 s
  | Charge density update                      :        0.625 s           0.624 s
  | Density mixing & preconditioning           :        0.042 s           0.042 s
  | Hartree multipole update                   :        0.001 s           0.001 s
  | Hartree multipole summation                :        0.433 s           0.433 s
  | Integration                                :        0.344 s           0.344 s
  | Solution of K.-S. eqns.                    :        0.470 s           0.471 s
  | Total energy evaluation                    :        0.000 s           0.000 s

  Partial memory accounting:
  | Current value for overall tracked memory usage on task 0  :          10.583 MB
  | Peak value for overall tracked memory usage on task 0     :          12.615 MB after allocating wave
  | Largest tracked array allocation on task 0 so far         :           9.999 MB  when allocating +KS_eigenvector_complex
  Note:  These values currently only include a subset of arrays which are explicitly tracked.
  The "true" memory usage will be greater.
------------------------------------------------------------

------------------------------------------------------------
          Begin self-consistency iteration #    6

  Date     :  20190514, Time     :  124050.358
------------------------------------------------------------
  Evaluating new KS density using the density matrix
  Evaluating density matrix
  Time summed over all CPUs for getting density from density matrix: real work        0.576 s, elapsed        0.576 s
  Integration grid: deviation in total charge (<rho> - N_e) =   8.363088E-12
  Pulay mixing of updated and previous charge densities.

  Evaluating partitioned Hartree potential by multipole expansion.
  | Analytical far-field extrapolation by fixed multipoles:
  | Hartree multipole sum: apparent total charge =   0.237242E-02
  Summing up the Hartree potential.
  Time summed over all CPUs for potential: real work        0.428 s, elapsed        0.428 s
  | RMS charge density error from multipole expansion :   0.613805E-02
  | Average real-space part of the electrostatic potential :      0.09199019 eV

  Integrating Hamiltonian matrix: batch-based integration.
  Time summed over all CPUs for integration: real work        0.346 s, elapsed        0.346 s

  Updating Kohn-Sham eigenvalues, eigenvectors, occupation numbers, and Fermi level.
  Solving generalized eigenproblem

  Obtaining occupation numbers and chemical potential using ELSI.
  | Chemical potential (Fermi level):    -5.34655815eV
  What follows are estimated values for band gap, HOMO, LUMO, etc.
  | They are estimated on a discrete k-point grid and not necessarily exact.
  | For converged numbers, create a DOS and/or band structure plot on a denser k-grid.

  Highest occupied state (VBM) at     -5.50567357 eV (relative to internal zero)
  | Occupation number:      2.00000000
  | K-point:       1 at    0.000000    0.000000    0.000000 (in units of recip. lattice)

  Lowest unoccupied state (CBM) at    -5.30646449 eV (relative to internal zero)
  | Occupation number:      0.00000001
  | K-point:       1 at    0.000000    0.000000    0.000000 (in units of recip. lattice)

  ESTIMATED overall HOMO-LUMO gap:      0.19920908 eV between HOMO at k-point 1 and LUMO at k-point 1
  | This appears to be a direct band gap.
  The gap value is rather small. This may be a metal or a small-gap semiconductor.
  Since we use a finite k-point grid, a DOS and/or band structure plot is required
  for an unambiguous assignment.

  Total energy components:
  | Sum of eigenvalues            :        -327.49981697 Ha       -8911.72344332 eV
  | XC energy correction          :         -39.52930910 Ha       -1075.64722888 eV
  | XC potential correction       :          52.22556520 Ha        1421.12993534 eV
  | Free-atom electrostatic energy:        -263.87874939 Ha       -7180.50611089 eV
  | Hartree energy correction     :          -0.02260561 Ha          -0.61513002 eV
  | Entropy correction            :          -0.00000000 Ha          -0.00000000 eV
  | ---------------------------
  | Total energy                  :        -578.70491587 Ha      -15747.36197777 eV
  | Total energy, T -> 0          :        -578.70491587 Ha      -15747.36197777 eV  <-- do not rely on this value for anything but (periodic) metals
  | Electronic free energy        :        -578.70491587 Ha      -15747.36197777 eV

  Derived energy quantities:
  | Kinetic energy                :         579.01645471 Ha       15755.83938093 eV
  | Electrostatic energy          :       -1118.19206148 Ha      -30427.55412982 eV
  | Energy correction for multipole
  | error in Hartree potential    :           0.00686402 Ha           0.18677959 eV
  | Sum of eigenvalues per atom                           :       -4455.86172166 eV
  | Total energy (T->0) per atom                          :       -7873.68098889 eV  <-- do not rely on this value for anything but (periodic) metals
  | Electronic free energy per atom                       :       -7873.68098889 eV

  Self-consistency convergence accuracy:
  | Change of charge density      :  0.2484E-02
  | Change of sum of eigenvalues  : -0.8853E-01 eV
  | Change of total energy        :  0.2764E-04 eV

  End self-consistency iteration #     6       :  max(cpu_time)    wall_clock(cpu1)
  | Time for this iteration                    :        1.917 s           1.917 s
  | Charge density update                      :        0.626 s           0.626 s
  | Density mixing & preconditioning           :        0.044 s           0.044 s
  | Hartree multipole update                   :        0.001 s           0.000 s
  | Hartree multipole summation                :        0.432 s           0.432 s
  | Integration                                :        0.346 s           0.346 s
  | Solution of K.-S. eqns.                    :        0.468 s           0.468 s
  | Total energy evaluation                    :        0.000 s           0.001 s

  Partial memory accounting:
  | Current value for overall tracked memory usage on task 0  :          10.583 MB
  | Peak value for overall tracked memory usage on task 0     :          12.615 MB after allocating wave
  | Largest tracked array allocation on task 0 so far         :           9.999 MB  when allocating +KS_eigenvector_complex
  Note:  These values currently only include a subset of arrays which are explicitly tracked.
  The "true" memory usage will be greater.
------------------------------------------------------------

------------------------------------------------------------
          Begin self-consistency iteration #    7

  Date     :  20190514, Time     :  124052.275
------------------------------------------------------------
  Evaluating new KS density using the density matrix
  Evaluating density matrix
  Time summed over all CPUs for getting density from density matrix: real work        0.576 s, elapsed        0.576 s
  Integration grid: deviation in total charge (<rho> - N_e) =   8.192558E-12
  Pulay mixing of updated and previous charge densities.

  Evaluating partitioned Hartree potential by multipole expansion.
  | Analytical far-field extrapolation by fixed multipoles:
  | Hartree multipole sum: apparent total charge =   0.231837E-02
  Summing up the Hartree potential.
  Time summed over all CPUs for potential: real work        0.431 s, elapsed        0.431 s
  | RMS charge density error from multipole expansion :   0.613189E-02
  | Average real-space part of the electrostatic potential :      0.09109800 eV

  Integrating Hamiltonian matrix: batch-based integration.
  Time summed over all CPUs for integration: real work        0.344 s, elapsed        0.344 s

  Updating Kohn-Sham eigenvalues, eigenvectors, occupation numbers, and Fermi level.
  Solving generalized eigenproblem

  Obtaining occupation numbers and chemical potential using ELSI.
  | Chemical potential (Fermi level):    -5.34859591eV
  What follows are estimated values for band gap, HOMO, LUMO, etc.
  | They are estimated on a discrete k-point grid and not necessarily exact.
  | For converged numbers, create a DOS and/or band structure plot on a denser k-grid.

  Highest occupied state (VBM) at     -5.50715562 eV (relative to internal zero)
  | Occupation number:      2.00000000
  | K-point:       1 at    0.000000    0.000000    0.000000 (in units of recip. lattice)

  Lowest unoccupied state (CBM) at    -5.30851136 eV (relative to internal zero)
  | Occupation number:      0.00000001
  | K-point:       1 at    0.000000    0.000000    0.000000 (in units of recip. lattice)

  ESTIMATED overall HOMO-LUMO gap:      0.19864426 eV between HOMO at k-point 1 and LUMO at k-point 1
  | This appears to be a direct band gap.
  The gap value is rather small. This may be a metal or a small-gap semiconductor.
  Since we use a finite k-point grid, a DOS and/or band structure plot is required
  for an unambiguous assignment.

  Total energy components:
  | Sum of eigenvalues            :        -327.50600678 Ha       -8911.89187664 eV
  | XC energy correction          :         -39.52871769 Ha       -1075.63113581 eV
  | XC potential correction       :          52.22478208 Ha        1421.10862552 eV
  | Free-atom electrostatic energy:        -263.87874939 Ha       -7180.50611089 eV
  | Hartree energy correction     :          -0.01622202 Ha          -0.44142371 eV
  | Entropy correction            :          -0.00000000 Ha          -0.00000000 eV
  | ---------------------------
  | Total energy                  :        -578.70491380 Ha      -15747.36192153 eV
  | Total energy, T -> 0          :        -578.70491380 Ha      -15747.36192153 eV  <-- do not rely on this value for anything but (periodic) metals
  | Electronic free energy        :        -578.70491380 Ha      -15747.36192153 eV

  Derived energy quantities:
  | Kinetic energy                :         579.00950578 Ha       15755.65029104 eV
  | Electrostatic energy          :       -1118.18570190 Ha      -30427.38107676 eV
  | Energy correction for multipole
  | error in Hartree potential    :           0.00684690 Ha           0.18631375 eV
  | Sum of eigenvalues per atom                           :       -4455.94593832 eV
  | Total energy (T->0) per atom                          :       -7873.68096077 eV  <-- do not rely on this value for anything but (periodic) metals
  | Electronic free energy per atom                       :       -7873.68096077 eV

  Self-consistency convergence accuracy:
  | Change of charge density      :  0.2299E-02
  | Change of sum of eigenvalues  : -0.1684E+00 eV
  | Change of total energy        :  0.5624E-04 eV

  End self-consistency iteration #     7       :  max(cpu_time)    wall_clock(cpu1)
  | Time for this iteration                    :        1.916 s           1.916 s
  | Charge density update                      :        0.626 s           0.626 s
  | Density mixing & preconditioning           :        0.043 s           0.043 s
  | Hartree multipole update                   :        0.001 s           0.001 s
  | Hartree multipole summation                :        0.435 s           0.435 s
  | Integration                                :        0.344 s           0.344 s
  | Solution of K.-S. eqns.                    :        0.467 s           0.466 s
  | Total energy evaluation                    :        0.000 s           0.001 s

  Partial memory accounting:
  | Current value for overall tracked memory usage on task 0  :          10.583 MB
  | Peak value for overall tracked memory usage on task 0     :          12.615 MB after allocating wave
  | Largest tracked array allocation on task 0 so far         :           9.999 MB  when allocating +KS_eigenvector_complex
  Note:  These values currently only include a subset of arrays which are explicitly tracked.
  The "true" memory usage will be greater.
------------------------------------------------------------

------------------------------------------------------------
          Begin self-consistency iteration #    8

  Date     :  20190514, Time     :  124054.191
------------------------------------------------------------
  Evaluating new KS density using the density matrix
  Evaluating density matrix
  Time summed over all CPUs for getting density from density matrix: real work        0.575 s, elapsed        0.575 s
  Integration grid: deviation in total charge (<rho> - N_e) =   8.341772E-12
  Pulay mixing of updated and previous charge densities.

  Evaluating partitioned Hartree potential by multipole expansion.
  | Analytical far-field extrapolation by fixed multipoles:
  | Hartree multipole sum: apparent total charge =   0.234689E-02
  Summing up the Hartree potential.
  Time summed over all CPUs for potential: real work        0.430 s, elapsed        0.430 s
  | RMS charge density error from multipole expansion :   0.612593E-02
  | Average real-space part of the electrostatic potential :      0.08880629 eV

  Integrating Hamiltonian matrix: batch-based integration.
  Time summed over all CPUs for integration: real work        0.348 s, elapsed        0.348 s

  Updating Kohn-Sham eigenvalues, eigenvectors, occupation numbers, and Fermi level.
  Solving generalized eigenproblem

  Obtaining occupation numbers and chemical potential using ELSI.
  | Chemical potential (Fermi level):    -5.35252994eV
  What follows are estimated values for band gap, HOMO, LUMO, etc.
  | They are estimated on a discrete k-point grid and not necessarily exact.
  | For converged numbers, create a DOS and/or band structure plot on a denser k-grid.

  Highest occupied state (VBM) at     -5.51000676 eV (relative to internal zero)
  | Occupation number:      2.00000000
  | K-point:       1 at    0.000000    0.000000    0.000000 (in units of recip. lattice)

  Lowest unoccupied state (CBM) at    -5.31244103 eV (relative to internal zero)
  | Occupation number:      0.00000001
  | K-point:       1 at    0.000000    0.000000    0.000000 (in units of recip. lattice)

  ESTIMATED overall HOMO-LUMO gap:      0.19756573 eV between HOMO at k-point 1 and LUMO at k-point 1
  | This appears to be a direct band gap.
  The gap value is rather small. This may be a metal or a small-gap semiconductor.
  Since we use a finite k-point grid, a DOS and/or band structure plot is required
  for an unambiguous assignment.

  Total energy components:
  | Sum of eigenvalues            :        -327.51815897 Ha       -8912.22255437 eV
  | XC energy correction          :         -39.52752348 Ha       -1075.59863984 eV
  | XC potential correction       :          52.22320145 Ha        1421.06561459 eV
  | Free-atom electrostatic energy:        -263.87874939 Ha       -7180.50611089 eV
  | Hartree energy correction     :          -0.00367978 Ha          -0.10013201 eV
  | Entropy correction            :          -0.00000000 Ha          -0.00000000 eV
  | ---------------------------
  | Total energy                  :        -578.70491016 Ha      -15747.36182253 eV
  | Total energy, T -> 0          :        -578.70491016 Ha      -15747.36182253 eV  <-- do not rely on this value for anything but (periodic) metals
  | Electronic free energy        :        -578.70491016 Ha      -15747.36182253 eV

  Derived energy quantities:
  | Kinetic energy                :         578.99558787 Ha       15755.27156536 eV
  | Electrostatic energy          :       -1118.17297455 Ha      -30427.03474805 eV
  | Energy correction for multipole
  | error in Hartree potential    :           0.00682129 Ha           0.18561679 eV
  | Sum of eigenvalues per atom                           :       -4456.11127719 eV
  | Total energy (T->0) per atom                          :       -7873.68091126 eV  <-- do not rely on this value for anything but (periodic) metals
  | Electronic free energy per atom                       :       -7873.68091126 eV

  Self-consistency convergence accuracy:
  | Change of charge density      :  0.1956E-02
  | Change of sum of eigenvalues  : -0.3307E+00 eV
  | Change of total energy        :  0.9901E-04 eV

  End self-consistency iteration #     8       :  max(cpu_time)    wall_clock(cpu1)
  | Time for this iteration                    :        1.920 s           1.920 s
  | Charge density update                      :        0.625 s           0.625 s
  | Density mixing & preconditioning           :        0.043 s           0.043 s
  | Hartree multipole update                   :        0.001 s           0.001 s
  | Hartree multipole summation                :        0.433 s           0.433 s
  | Integration                                :        0.348 s           0.348 s
  | Solution of K.-S. eqns.                    :        0.470 s           0.470 s
  | Total energy evaluation                    :        0.000 s           0.000 s

  Partial memory accounting:
  | Current value for overall tracked memory usage on task 0  :          10.584 MB
  | Peak value for overall tracked memory usage on task 0     :          12.615 MB after allocating wave
  | Largest tracked array allocation on task 0 so far         :           9.999 MB  when allocating +KS_eigenvector_complex
  Note:  These values currently only include a subset of arrays which are explicitly tracked.
  The "true" memory usage will be greater.
------------------------------------------------------------

------------------------------------------------------------
          Begin self-consistency iteration #    9

  Date     :  20190514, Time     :  124056.111
------------------------------------------------------------
  Evaluating new KS density using the density matrix
  Evaluating density matrix
  Time summed over all CPUs for getting density from density matrix: real work        0.578 s, elapsed        0.578 s
  Integration grid: deviation in total charge (<rho> - N_e) =   8.324008E-12
  Pulay mixing of updated and previous charge densities.

  Evaluating partitioned Hartree potential by multipole expansion.
  | Analytical far-field extrapolation by fixed multipoles:
  | Hartree multipole sum: apparent total charge =   0.235348E-02
  Summing up the Hartree potential.
  Time summed over all CPUs for potential: real work        0.426 s, elapsed        0.426 s
  | RMS charge density error from multipole expansion :   0.611486E-02
  | Average real-space part of the electrostatic potential :      0.08544582 eV

  Integrating Hamiltonian matrix: batch-based integration.
  Time summed over all CPUs for integration: real work        0.344 s, elapsed        0.344 s

  Updating Kohn-Sham eigenvalues, eigenvectors, occupation numbers, and Fermi level.
  Solving generalized eigenproblem

  Obtaining occupation numbers and chemical potential using ELSI.
  | Chemical potential (Fermi level):    -5.35855936eV
  What follows are estimated values for band gap, HOMO, LUMO, etc.
  | They are estimated on a discrete k-point grid and not necessarily exact.
  | For converged numbers, create a DOS and/or band structure plot on a denser k-grid.

  Highest occupied state (VBM) at     -5.51441964 eV (relative to internal zero)
  | Occupation number:      2.00000000
  | K-point:       1 at    0.000000    0.000000    0.000000 (in units of recip. lattice)

  Lowest unoccupied state (CBM) at    -5.31847662 eV (relative to internal zero)
  | Occupation number:      0.00000001
  | K-point:       1 at    0.000000    0.000000    0.000000 (in units of recip. lattice)

  ESTIMATED overall HOMO-LUMO gap:      0.19594301 eV between HOMO at k-point 1 and LUMO at k-point 1
  | This appears to be a direct band gap.
  The gap value is rather small. This may be a metal or a small-gap semiconductor.
  Since we use a finite k-point grid, a DOS and/or band structure plot is required
  for an unambiguous assignment.

  Total energy components:
  | Sum of eigenvalues            :        -327.53661299 Ha       -8912.72471400 eV
  | XC energy correction          :         -39.52572009 Ha       -1075.54956700 eV
  | XC potential correction       :          52.22081437 Ha        1421.00065881 eV
  | Free-atom electrostatic energy:        -263.87874939 Ha       -7180.50611089 eV
  | Hartree energy correction     :           0.01536216 Ha           0.41802570 eV
  | Entropy correction            :          -0.00000000 Ha          -0.00000000 eV
  | ---------------------------
  | Total energy                  :        -578.70490593 Ha      -15747.36170739 eV
  | Total energy, T -> 0          :        -578.70490593 Ha      -15747.36170739 eV  <-- do not rely on this value for anything but (periodic) metals
  | Electronic free energy        :        -578.70490593 Ha      -15747.36170739 eV

  Derived energy quantities:
  | Kinetic energy                :         578.97456723 Ha       15754.69956472 eV
  | Electrostatic energy          :       -1118.15375308 Ha      -30426.51170510 eV
  | Energy correction for multipole
  | error in Hartree potential    :           0.00678054 Ha           0.18450796 eV
  | Sum of eigenvalues per atom                           :       -4456.36235700 eV
  | Total energy (T->0) per atom                          :       -7873.68085369 eV  <-- do not rely on this value for anything but (periodic) metals
  | Electronic free energy per atom                       :       -7873.68085369 eV

  Self-consistency convergence accuracy:
  | Change of charge density      :  0.1258E-02
  | Change of sum of eigenvalues  : -0.5022E+00 eV
  | Change of total energy        :  0.1151E-03 eV

  End self-consistency iteration #     9       :  max(cpu_time)    wall_clock(cpu1)
  | Time for this iteration                    :        1.911 s           1.911 s
  | Charge density update                      :        0.628 s           0.629 s
[...]
  | Hartree multipole summation                :        0.430 s           0.430 s
  | Integration                                :        0.344 s           0.344 s
  | Solution of K.-S. eqns.                    :        0.464 s           0.464 s
  | Total energy evaluation                    :        0.000 s           0.000 s

  Partial memory accounting:
  | Current value for overall tracked memory usage on task 0  :          10.584 MB
  | Peak value for overall tracked memory usage on task 0     :          12.615 MB after allocating wave
  | Largest tracked array allocation on task 0 so far         :           9.999 MB  when allocating +KS_eigenvector_complex
  Note:  These values currently only include a subset of arrays which are explicitly tracked.
  The "true" memory usage will be greater.
------------------------------------------------------------

------------------------------------------------------------
          Begin self-consistency iteration #   10

  Date     :  20190514, Time     :  124058.022
------------------------------------------------------------
  Evaluating new KS density using the density matrix
  Evaluating density matrix
  Time summed over all CPUs for getting density from density matrix: real work        0.574 s, elapsed        0.574 s
  Integration grid: deviation in total charge (<rho> - N_e) =   8.320455E-12
  Pulay mixing of updated and previous charge densities.

  Evaluating partitioned Hartree potential by multipole expansion.
  | Analytical far-field extrapolation by fixed multipoles:
  | Hartree multipole sum: apparent total charge =   0.235046E-02
  Summing up the Hartree potential.
  Time summed over all CPUs for potential: real work        0.425 s, elapsed        0.425 s
  | RMS charge density error from multipole expansion :   0.611523E-02
  | Average real-space part of the electrostatic potential :      0.08489416 eV

  Integrating Hamiltonian matrix: batch-based integration.
  Time summed over all CPUs for integration: real work        0.348 s, elapsed        0.348 s

  Updating Kohn-Sham eigenvalues, eigenvectors, occupation numbers, and Fermi level.
  Solving generalized eigenproblem

  Obtaining occupation numbers and chemical potential using ELSI.
  | Chemical potential (Fermi level):    -5.35954427eV
  What follows are estimated values for band gap, HOMO, LUMO, etc.
  | They are estimated on a discrete k-point grid and not necessarily exact.
  | For converged numbers, create a DOS and/or band structure plot on a denser k-grid.

  Highest occupied state (VBM) at     -5.51509276 eV (relative to internal zero)
  | Occupation number:      2.00000000
  | K-point:       1 at    0.000000    0.000000    0.000000 (in units of recip. lattice)

  Lowest unoccupied state (CBM) at    -5.31945964 eV (relative to internal zero)
  | Occupation number:      0.00000001
  | K-point:       1 at    0.000000    0.000000    0.000000 (in units of recip. lattice)

  ESTIMATED overall HOMO-LUMO gap:      0.19563312 eV between HOMO at k-point 1 and LUMO at k-point 1
  | This appears to be a direct band gap.
  The gap value is rather small. This may be a metal or a small-gap semiconductor.
  Since we use a finite k-point grid, a DOS and/or band structure plot is required
  for an unambiguous assignment.

  Total energy components:
  | Sum of eigenvalues            :        -327.53997394 Ha       -8912.81617011 eV
  | XC energy correction          :         -39.52539347 Ha       -1075.54067911 eV
  | XC potential correction       :          52.22038184 Ha        1420.98888892 eV
  | Free-atom electrostatic energy:        -263.87874939 Ha       -7180.50611089 eV
  | Hartree energy correction     :           0.01882962 Ha           0.51238014 eV
  | Entropy correction            :          -0.00000000 Ha          -0.00000000 eV
  | ---------------------------
  | Total energy                  :        -578.70490533 Ha      -15747.36169106 eV
  | Total energy, T -> 0          :        -578.70490533 Ha      -15747.36169106 eV  <-- do not rely on this value for anything but (periodic) metals
  | Electronic free energy        :        -578.70490533 Ha      -15747.36169106 eV

  Derived energy quantities:
  | Kinetic energy                :         578.97052535 Ha       15754.58957957 eV
  | Electrostatic energy          :       -1118.15003722 Ha      -30426.41059151 eV
  | Energy correction for multipole
  | error in Hartree potential    :           0.00677582 Ha           0.18437951 eV
  | Sum of eigenvalues per atom                           :       -4456.40808506 eV
  | Total energy (T->0) per atom                          :       -7873.68084553 eV  <-- do not rely on this value for anything but (periodic) metals
  | Electronic free energy per atom                       :       -7873.68084553 eV

  Self-consistency convergence accuracy:
  | Change of charge density      :  0.1979E-03
  | Change of sum of eigenvalues  : -0.9146E-01 eV
  | Change of total energy        :  0.1633E-04 eV

  End self-consistency iteration #    10       :  max(cpu_time)    wall_clock(cpu1)
  | Time for this iteration                    :        1.913 s           1.913 s
  | Charge density update                      :        0.624 s           0.624 s
  | Density mixing & preconditioning           :        0.042 s           0.042 s
  | Hartree multipole update                   :        0.001 s           0.001 s
  | Hartree multipole summation                :        0.428 s           0.428 s
  | Integration                                :        0.348 s           0.348 s
  | Solution of K.-S. eqns.                    :        0.469 s           0.469 s
  | Total energy evaluation                    :        0.000 s           0.001 s

  Partial memory accounting:
  | Current value for overall tracked memory usage on task 0  :          10.584 MB
  | Peak value for overall tracked memory usage on task 0     :          12.615 MB after allocating wave
  | Largest tracked array allocation on task 0 so far         :           9.999 MB  when allocating +KS_eigenvector_complex
  Note:  These values currently only include a subset of arrays which are explicitly tracked.
  The "true" memory usage will be greater.
------------------------------------------------------------

------------------------------------------------------------
          Begin self-consistency iteration #   11

  Date     :  20190514, Time     :  124059.935
------------------------------------------------------------
  Evaluating new KS density using the density matrix
  Evaluating density matrix
  Time summed over all CPUs for getting density from density matrix: real work        0.581 s, elapsed        0.581 s
  Integration grid: deviation in total charge (<rho> - N_e) =   8.299139E-12
  Pulay mixing of updated and previous charge densities.

  Evaluating partitioned Hartree potential by multipole expansion.
  | Analytical far-field extrapolation by fixed multipoles:
  | Hartree multipole sum: apparent total charge =   0.234601E-02
  Summing up the Hartree potential.
  Time summed over all CPUs for potential: real work        0.426 s, elapsed        0.426 s
  | RMS charge density error from multipole expansion :   0.611524E-02
  | Average real-space part of the electrostatic potential :      0.08490495 eV

  Integrating Hamiltonian matrix: batch-based integration.
  Time summed over all CPUs for integration: real work        0.347 s, elapsed        0.347 s

  Updating Kohn-Sham eigenvalues, eigenvectors, occupation numbers, and Fermi level.
  Solving generalized eigenproblem

  Obtaining occupation numbers and chemical potential using ELSI.
  | Chemical potential (Fermi level):    -5.35954661eV
  What follows are estimated values for band gap, HOMO, LUMO, etc.
  | They are estimated on a discrete k-point grid and not necessarily exact.
  | For converged numbers, create a DOS and/or band structure plot on a denser k-grid.

  Highest occupied state (VBM) at     -5.51509496 eV (relative to internal zero)
  | Occupation number:      2.00000000
  | K-point:       1 at    0.000000    0.000000    0.000000 (in units of recip. lattice)

  Lowest unoccupied state (CBM) at    -5.31946268 eV (relative to internal zero)
  | Occupation number:      0.00000001
  | K-point:       1 at    0.000000    0.000000    0.000000 (in units of recip. lattice)

  ESTIMATED overall HOMO-LUMO gap:      0.19563228 eV between HOMO at k-point 1 and LUMO at k-point 1
  | This appears to be a direct band gap.
  The gap value is rather small. This may be a metal or a small-gap semiconductor.
  Since we use a finite k-point grid, a DOS and/or band structure plot is required
  for an unambiguous assignment.

  Total energy components:
  | Sum of eigenvalues            :        -327.53998159 Ha       -8912.81637828 eV
  | XC energy correction          :         -39.52539441 Ha       -1075.54070469 eV
  | XC potential correction       :          52.22038306 Ha        1420.98892208 eV
  | Free-atom electrostatic energy:        -263.87874939 Ha       -7180.50611089 eV
  | Hartree energy correction     :           0.01883700 Ha           0.51258082 eV
  | Entropy correction            :          -0.00000000 Ha          -0.00000000 eV
  | ---------------------------
  | Total energy                  :        -578.70490533 Ha      -15747.36169096 eV
  | Total energy, T -> 0          :        -578.70490533 Ha      -15747.36169096 eV  <-- do not rely on this value for anything but (periodic) metals
  | Electronic free energy        :        -578.70490533 Ha      -15747.36169096 eV

  Derived energy quantities:
  | Kinetic energy                :         578.97052036 Ha       15754.58944365 eV
  | Electrostatic energy          :       -1118.15003128 Ha      -30426.41042992 eV
  | Energy correction for multipole
  | error in Hartree potential    :           0.00677576 Ha           0.18437782 eV
  | Sum of eigenvalues per atom                           :       -4456.40818914 eV
  | Total energy (T->0) per atom                          :       -7873.68084548 eV  <-- do not rely on this value for anything but (periodic) metals
  | Electronic free energy per atom                       :       -7873.68084548 eV

  Self-consistency convergence accuracy:
  | Change of charge density      :  0.7746E-06
  | Change of sum of eigenvalues  : -0.2082E-03 eV
  | Change of total energy        :  0.9640E-07 eV

  Preliminary charge convergence reached. Turning off preconditioner.

  Writing Kohn-Sham eigenvalues.
  K-point:       1 at    0.000000    0.000000    0.000000 (in units of recip. lattice)

  State    Occupation    Eigenvalue [Ha]    Eigenvalue [eV]
      1       2.00000         -65.506600        -1782.52529
      2       2.00000         -65.506600        -1782.52529
      3       2.00000          -5.102874         -138.85628
      4       2.00000          -5.102811         -138.85454
      5       2.00000          -3.516987          -95.70207
      6       2.00000          -3.516987          -95.70207
      7       2.00000          -3.516987          -95.70207
      8       2.00000          -3.516811          -95.69731
      9       2.00000          -3.516811          -95.69731
     10       2.00000          -3.516811          -95.69731
     11       2.00000          -0.576622          -15.69067
     12       2.00000          -0.202676           -5.51509
     13       2.00000          -0.202676           -5.51509
     14       2.00000          -0.202676           -5.51509
     15       0.00000          -0.195487           -5.31946
     16       0.00000          -0.115324           -3.13813
     17       0.00000          -0.115324           -3.13813
     18       0.00000          -0.115324           -3.13813
     19       0.00000           0.087482            2.38051
     20       0.00000           0.087482            2.38051

  What follows are estimated values for band gap, HOMO, LUMO, etc.
  | They are estimated on a discrete k-point grid and not necessarily exact.
  | For converged numbers, create a DOS and/or band structure plot on a denser k-grid.

  Highest occupied state (VBM) at     -5.51509496 eV (relative to internal zero)
  | Occupation number:      2.00000000
  | K-point:       1 at    0.000000    0.000000    0.000000 (in units of recip. lattice)

  Lowest unoccupied state (CBM) at    -5.31946268 eV (relative to internal zero)
  | Occupation number:      0.00000001
  | K-point:       1 at    0.000000    0.000000    0.000000 (in units of recip. lattice)

  ESTIMATED overall HOMO-LUMO gap:      0.19563228 eV between HOMO at k-point 1 and LUMO at k-point 1
  | This appears to be a direct band gap.
  The gap value is rather small. This may be a metal or a small-gap semiconductor.
  Since we use a finite k-point grid, a DOS and/or band structure plot is required
  for an unambiguous assignment.

  Self-consistency cycle converged.

  End self-consistency iteration #    11       :  max(cpu_time)    wall_clock(cpu1)
  | Time for this iteration                    :        1.922 s           1.922 s
  | Charge density update                      :        0.632 s           0.632 s
  | Density mixing                             :        0.043 s           0.043 s
  | Hartree multipole update                   :        0.001 s           0.001 s
  | Hartree multipole summation                :        0.429 s           0.429 s
  | Integration                                :        0.347 s           0.347 s
  | Solution of K.-S. eqns.                    :        0.469 s           0.469 s
  | Total energy evaluation                    :        0.000 s           0.001 s

  Partial memory accounting:
  | Current value for overall tracked memory usage on task 0  :          10.584 MB
  | Peak value for overall tracked memory usage on task 0     :          12.615 MB after allocating wave
  | Largest tracked array allocation on task 0 so far         :           9.999 MB  when allocating +KS_eigenvector_complex
  Note:  These values currently only include a subset of arrays which are explicitly tracked.
  The "true" memory usage will be greater.
------------------------------------------------------------

  Energy and forces in a compact form:
  | Total energy uncorrected      :         -0.157473616909618E+05 eV
  | Total energy corrected        :         -0.157473616909618E+05 eV  <-- do not rely on this value for anything but (periodic) metals
  | Electronic free energy        :         -0.157473616909618E+05 eV

  ------------------------------------ 
  Start decomposition of the XC Energy 
  ------------------------------------ 
  X and C from original XC functional choice 
  Hartree-Fock Energy :          0.000000000 Ha              0.000000000 eV
  X Energy            :        -37.392893186 Ha          -1017.512394058 eV
  C Energy            :         -2.132501220 Ha            -58.028310635 eV
  Total XC Energy     :        -39.525394406 Ha          -1075.540704692 eV
  ------------------------------------ 
  LDA X and C from self-consistent density 
  X Energy LDA        :        -37.392893186 Ha          -1017.512394058 eV
  C Energy LDA        :         -2.132501220 Ha            -58.028310635 eV
  ------------------------------------ 
  End decomposition of the XC Energy 
  ------------------------------------ 

------------------------------------------------------------

------------------------------------------------------------------------------
  Final output of selected total energy values:

  The following output summarizes some interesting total energy values
  at the end of a run (AFTER all relaxation, molecular dynamics, etc.).

  | Total energy of the DFT / Hartree-Fock s.c.f. calculation      :         -15747.361690962 eV
  | Final zero-broadening corrected energy (caution - metals only) :         -15747.361690962 eV
  | For reference only, the value of 1 Hartree used in FHI-aims is :             27.211384500 eV

  Before relying on these values, please be sure to understand exactly which
  total energy value is referred to by a given number. Different objects may
  all carry the same name 'total energy'. Definitions:

  Total energy of the DFT / Hartree-Fock s.c.f. calculation:
  | Note that this energy does not include ANY quantities calculated after the
  | s.c.f. cycle, in particular not ANY RPA, MP2, etc. many-body perturbation terms.

  Final zero-broadening corrected energy:
  | For metallic systems only, a broadening of the occupation numbers at the Fermi
  | level can be extrapolated back to zero broadening by an electron-gas inspired
  | formula. For all systems that are not real metals, this value can be
  | meaningless and should be avoided.

------------------------------------------------------------------------------
  Methods described in the following list of references were used in this FHI-aims run.
  If you publish the results, please make sure to cite these reference if they apply.
  FHI-aims is an academic code, and for our developers (often, Ph.D. students
  and postdocs), scientific credit in the community is essential.
  Thank you for helping us!

  For any use of FHI-aims, please cite:

    Volker Blum, Ralf Gehrke, Felix Hanke, Paula Havu, Ville Havu,
    Xinguo Ren, Karsten Reuter, and Matthias Scheffler
    'Ab initio molecular simulations with numeric atom-centered orbitals'
    Computer Physics Communications 180, 2175-2196 (2009)
    http://dx.doi.org/10.1016/j.cpc.2009.06.022


  For the real-space grid partitioning and parallelization used in this calculation, please cite:

    Ville Havu, Volker Blum, Paula Havu, and Matthias Scheffler,
    'Efficient O(N) integration for all-electron electronic structure calculation'
    'using numerically tabulated basis functions'
    Journal of Computational Physics 228, 8367-8379 (2009).
    http://dx.doi.org/10.1016/j.jcp.2009.08.008

  Of course, there are many other important community references, e.g., those cited in the
  above references. Our list is limited to references that describe implementations in the
  FHI-aims code. The reason is purely practical (length of this list) - please credit others as well.

------------------------------------------------------------
          Leaving FHI-aims.
          Date     :  20190514, Time     :  124101.865

          Computational steps:
          | Number of self-consistency cycles          :           11
          | Number of SCF (re)initializations          :            1

          Detailed time accounting                     :  max(cpu_time)    wall_clock(cpu1)
          | Total time                                 :       22.847 s          22.847 s
          | Preparation time                           :        0.091 s           0.091 s
          | Boundary condition initalization           :        0.049 s           0.049 s
          | Grid partitioning                          :        0.023 s           0.023 s
          | Preloading free-atom quantities on grid    :        0.001 s           0.001 s
          | Free-atom superposition energy             :        0.025 s           0.025 s
          | Total time for integrations                :        4.380 s           4.383 s
          | Total time for solution of K.-S. equations :        6.131 s           6.129 s
          | Total time for density update              :        6.880 s           6.880 s
          | Total time for mixing & preconditioning    :        0.475 s           0.476 s
          | Total time for Hartree multipole update    :        0.008 s           0.008 s
          | Total time for Hartree multipole sum       :        4.666 s           4.665 s
          | Total time for total energy evaluation     :        0.003 s           0.005 s
          | Total time for scaled ZORA corrections     :        0.000 s           0.000 s

 This is a stub MPI_ALLREDUCE call.
 You should not be here. Check your
 setting on the use_mpi variable, or
 link against true MPI-libraries.
