------------------------------------------------------------
          Invoking FHI-aims ...
          Version 171221_1
          Compiled on 2019/05/06 at 14:26:40 on host ffph0xx.

          When using FHI-aims, please cite the following reference:

          Volker Blum, Ralf Gehrke, Felix Hanke, Paula Havu,
          Ville Havu, Xinguo Ren, Karsten Reuter, and Matthias Scheffler,
          'Ab Initio Molecular Simulations with Numeric Atom-Centered Orbitals',
          Computer Physics Communications 180, 2175-2196 (2009)

          For any questions about FHI-aims, please visit the aimsclub website
          with its forums and wiki. Contributions to both the forums and the
          wiki are warmly encouraged - they are for you, and everyone is welcome there.

------------------------------------------------------------



  Date     :  20190513, Time     :  134707.611
  Time zero on CPU 1             :   0.732000000000000E-03  s.
  Internal wall clock time zero  :           326987227.611  s.

  FHI-aims created a unique identifier for this run for later identification
  aims_uuid : F8B759F5-E67F-44D0-AF6F-6D025B427B4B


  Performing system and environment tests:
  *** Environment variable OMP_NUM_THREADS is not set
  *** For performance reasons you might want to set it to 1
  | Stacksize not measured: no C compiler

  Obtaining array dimensions for all initial allocations:
  
  -----------------------------------------------------------------------
  Parsing control.in (first pass over file, find array dimensions only).
  The contents of control.in will be repeated verbatim below
  unless switched off by setting 'verbatim_writeout .false.' .
  in the first line of control.in .
  -----------------------------------------------------------------------
  
  #--- method ---
  xc pw-lda
  spin none
  relativistic atomic_zora scalar
  #---
  
  #--- k-grid settings ---
  k_grid 16 16 16
  #---
  
  
  
  
  
  
  
  
  
  
  
  #-------------------------------------------------------------------------------
  #--- Species defaults for Si
  #-------------------------------------------------------------------------------
  
  ################################################################################
  #
  #  FHI-aims code project
  #  VB, Fritz-Haber Institut, 2009
  #
  #  Suggested "light" defaults for Si atom (to be pasted into control.in file)
  #  Be sure to double-check any results obtained with these settings for post-processing,
  #  e.g., with the "tight" defaults and larger basis sets.
  #
  ################################################################################
    species        Si
  #     global species definitions
      nucleus             14
      mass                28.0855
  #
      l_hartree           4
  #
      cut_pot             3.5          1.5  1.0
      basis_dep_cutoff    1e-4
  #
      radial_base         42 5.0
      radial_multiplier   1
      angular_grids       specified
        division   0.5866   50
        division   0.9616  110
        division   1.2249  194
        division   1.3795  302
  #      division   1.4810  434
  #      division   1.5529  590
  #      division   1.6284  770
  #      division   1.7077  974
  #      division   2.4068 1202
  #      outer_grid   974
        outer_grid 302
  ################################################################################
  #
  #  Definition of "minimal" basis
  #
  ################################################################################
  #     valence basis states
      valence      3  s   2.
      valence      3  p   2.
  #     ion occupancy
      ion_occ      3  s   1.
      ion_occ      3  p   1.
  ################################################################################
  #
  #  Suggested additional basis functions. For production calculations,
  #  uncomment them one after another (the most important basis functions are
  #  listed first).
  #
  #  Constructed for dimers: 1.75 A, 2.0 A, 2.25 A, 2.75 A, 3.75 A
  #
  ################################################################################
  #  "First tier" - improvements: -571.96 meV to -37.03 meV
       hydro 3 d 4.2
       hydro 2 p 1.4
  #     hydro 4 f 6.2
       ionic 3 s auto
  #  "Second tier" - improvements: -16.76 meV to -3.03 meV
  #     hydro 3 d 9
  #     hydro 5 g 9.4
  #     hydro 4 p 4
  #     hydro 1 s 0.65
  #  "Third tier" - improvements: -3.89 meV to -0.60 meV
  #     ionic 3 d auto
  #     hydro 3 s 2.6
  #     hydro 4 f 8.4
  #     hydro 3 d 3.4
  #     hydro 3 p 7.8
  #  "Fourth tier" - improvements: -0.33 meV to -0.11 meV
  #     hydro 2 p 1.6
  #     hydro 5 g 10.8
  #     hydro 5 f 11.2
  #     hydro 3 d 1
  #     hydro 4 s 4.5
  #  Further basis functions that fell out of the optimization - noise
  #  level... < -0.08 meV
  #     hydro 4 d 6.6
  #     hydro 5 g 16.4
  #     hydro 4 d 9
  
  -----------------------------------------------------------------------
  Completed first pass over input file control.in .
  -----------------------------------------------------------------------
  
  
  -----------------------------------------------------------------------
  Parsing geometry.in (first pass over file, find array dimensions only).
  The contents of geometry.in will be repeated verbatim below
  unless switched off by setting 'verbatim_writeout .false.' .
  in the first line of geometry.in .
  -----------------------------------------------------------------------
  
  lattice_vector   0.000000   2.650000   2.650000
  lattice_vector   2.650000   0.000000   2.650000
  lattice_vector   2.650000   2.650000   0.000000
  atom_frac   0.000000   0.000000   0.000000 Si
  atom_frac   0.250000   0.250000   0.250000 Si
  
  -----------------------------------------------------------------------
  Completed first pass over input file geometry.in .
  -----------------------------------------------------------------------
  

  Basic array size parameters:
  | Number of species                 :        1
  | Number of atoms                   :        2
  | Number of lattice vectors         :        3
  | Max. basis fn. angular momentum   :        2
  | Max. atomic/ionic basis occupied n:        3
  | Max. number of basis fn. types    :        3
  | Max. radial fns per species/type  :        5
  | Max. logarithmic grid size        :     1346
  | Max. radial integration grid size :       42
  | Max. angular integration grid size:      302
  | Max. angular grid division number :        8
  | Radial grid for Hartree potential :     1346
  | Number of spin channels           :        1

------------------------------------------------------------
          Reading file control.in.
------------------------------------------------------------
  XC: Using Perdew-Wang parametrisation of Ceperley-Alder LDA.
  Spin treatment: No spin polarisation.
  Scalar relativistic treatment of kinetic energy: on-site free-atom approximation to ZORA.
  Found k-point grid:        16        16        16

  Reading configuration options for species Si                  .
  | Found nuclear charge :  14.0000
  | Found atomic mass :    28.085500000000000      amu
  | Found l_max for Hartree potential  :   4
  | Found cutoff potl. onset [A], width [A], scale factor :    3.50000    1.50000    1.00000
  | Threshold for basis-dependent cutoff potential is   0.100000E-03
  | Found data for basic radial integration grid :    42 points, outermost radius =    5.000 A
  | Found multiplier for basic radial grid :   1
  | Found angular grid specification: user-specified.
  | Specified grid contains     5 separate shells.
  | Check grid settings after all constraints further below.
  | Found free-atom valence shell :  3 s   2.000
  | Found free-atom valence shell :  3 p   2.000
  | Found free-ion valence shell :  3 s   1.000
  | Found free-ion valence shell :  3 p   1.000
  | Found hydrogenic basis function :  3 d   4.200
  | Found hydrogenic basis function :  2 p   1.400
  | Found ionic basis function :  3 s , default cutoff radius.
  Species Si                  : Missing cutoff potential type.
  Defaulting to exp(1/x)/(1-x)^2 type cutoff potential.
  Species Si: No 'logarithmic' tag. Using default grid for free atom:
  | Default logarithmic grid data [bohr] : 0.1000E-03 0.1000E+03 0.1012E+01
  | Will include ionic basis functions of  2.0-fold positive Si                   ion.
  Species Si: On-site basis accuracy parameter (for Gram-Schmidt orthonormalisation) not specified.
  Using default value basis_acc =  0.1000000E-03.
  Species Si                  : Using default innermost maximum threshold i_radial=  2 for radial functions.
  Species Si                  : Default cutoff onset for free atom density etc. : 0.35000000E+01 AA.
  Species Si                  : Basic radial grid will be enhanced according to radial_multiplier =   1, to contain    42 grid points.

  Finished reading input file 'control.in'. Consistency checks are next.

  MPI_IN_PLACE appears to work with this MPI implementation.
  | Keeping use_mpi_in_place .true. (see manual).
  Target number of points in a grid batch is not set. Defaulting to  100
  Method for grid partitioning is not set. Defaulting to 'maxmin' partitioning.
  Batch size limit is not set. Defaulting to    200
  By default, will store active basis functions for each batch.
  If in need of memory, prune_basis_once .false. can be used to disable this option.
  communication_type for Hartree potential was not specified.
  Defaulting to calc_hartree .
 * Attention: 
 * You may want to set distributed_spline_storage to .true. in order to save memory.
 * This doesn't harm performance and is perfectly ok unless:
 * - you get error messages in postprocessing (about missing atoms in get_rho_multipole_spl)
 * - you need full spline storage in hirshfeld_analysis
  Defaulting to Pulay charge density mixer.
  Pulay mixer: Number of relevant iterations not set.
  Defaulting to    8 iterations.
  Pulay mixer: Number of initial linear mixing iterations not set.
  Defaulting to    0 iterations.
  Work space size for distributed Hartree potential not set.
  Defaulting to   0.200000E+03 MB.
  Mixing parameter for charge density mixing has not been set.
  Using default: charge_mix_param =     0.0500.
  The mixing parameter will be adjusted in iteration number     2 of the first full s.c.f. cycle only.
  Algorithm-dependent basis array size parameters:
  | n_max_pulay                         :        8
 * Notice: The s.c.f. convergence criterion sc_accuracy_rho was not provided.
 * We used to stop in this case, and ask the user to provide reasonable
 * scf convergence criteria. However, this led some users to employ criteria
 * that led to extremely long run times, e.g., for simple relaxation.
 * We now preset a default value for sc_accuracy_rho if it is not set.
 * You may still wish to check if this setting is too tight or too loose for your needs.
 * Based on n_atoms, FHI-aims chose sc_accuracy_rho =  0.100000E-05 .
  Maximum number of self-consistency iterations not provided.
  Presetting  1000 iterations.
  Presetting      1001 iterations before the initial mixing cycle
  is restarted anyway using the sc_init_iter criterion / keyword.
  Presetting a factor      1.000 between actual scf density residual
  and density convergence criterion sc_accuracy_rho below which sc_init_iter
  takes no effect.
 * No s.c.f. convergence criteria (sc_accuracy_*) were provided in control.in.
 * The run will proceed with a reasonable default guess, but please check whether.
 * the s.c.f. cycles seem to take too much or too little time.
  Calculation of forces was not defined in control.in. No forces will be calculated.
  Geometry relaxation not requested: no relaxation will be performed.
  No accuracy limit for integral partition fn. given. Defaulting to  0.1000E-14.
  No threshold value for u(r) in integrations given. Defaulting to  0.1000E-05.
  No occupation type (smearing scheme) given. Defaulting to Gaussian broadening, width =  0.1000E-01 eV.
  The width will be adjusted in iteration number     2 of the first full s.c.f. cycle only.
  S.C.F. convergence parameters will be adjusted in iteration number     2 of the first full s.c.f. cycle only.
  No accuracy for occupation numbers given. Defaulting to  0.1000E-12.
  No threshold value for occupation numbers given. Defaulting to  0.0000E+00.
  No accuracy for fermi level given. Defaulting to  0.1000E-19.
  Maximum # of iterations to find E_F not set. Defaulting to  200.
  Preferred method for the eigenvalue solver ('KS_method') not specified in 'control.in'.
  Defaulting to serial version, 'lapack_fast'.
  Will not use alltoall communication since running on < 1024 CPUs.
  Threshold for basis singularities not set.
  Default threshold for basis singularities:  0.1000E-04
  partition_type (choice of integration weights) for integrals was not specified.
  | Using a version of the partition function of Stratmann and coworkers ('stratmann_smoother').
  | At each grid point, the set of atoms used to build the partition table is smoothly restricted to
  | only those atoms whose free-atom density would be non-zero at that grid point.
  Partitioning for Hartree potential was not defined. Using partition_type for integrals.
  | Adjusted default value of keyword multip_moments_threshold to:       0.10000000E-11
  | This value may affect high angular momentum components of the Hartree potential in periodic systems.
  Angular momentum expansion for Kerker preconditioner not set explicitly.
  | Using default value of   0
  No explicit requirement for turning off preconditioner.
  | By default, it will be turned off when the charge convergence reaches
  | sc_accuracy_rho  =   0.100000E-05
  No special mixing parameter while Kerker preconditioner is on.
  Using default: charge_mix_param =     0.0500.
  No q(lm)/r^(l+1) cutoff set for long-range Hartree potential.
  | Using default value of  0.100000E-09 .
  | Verify using the multipole_threshold keyword.
  Defaulting to new monopole extrapolation.
  Density update method: automatic selection selected.
  Using density matrix based charge density update.
  Using density matrix based charge density update.
  Using packed matrix style: index .
  Defaulting to use time-reversal symmetry for k-point grid.
------------------------------------------------------------


------------------------------------------------------------
          Reading geometry description geometry.in.
------------------------------------------------------------
  Input structure read successfully.
  The structure contains        2 atoms,  and a total of         28.000 electrons.

  Input geometry:
  | Unit cell:
  |        0.00000000        2.65000000        2.65000000
  |        2.65000000        0.00000000        2.65000000
  |        2.65000000        2.65000000        0.00000000
  | Atomic structure:
  |       Atom                x [A]            y [A]            z [A]
  |    1: Species Si            0.00000000        0.00000000        0.00000000
  |    2: Species Si            1.32500000        1.32500000        1.32500000

  Lattice parameters for 3D lattice (in Angstroms) :     3.747666    3.747666    3.747666
  Angle(s) between unit vectors (in degrees)      :    60.000000   60.000000   60.000000

  |

  | The smallest distance between any two atoms is         2.29496732 AA.
  |
  | The first atom of this pair is atom number                      1 .
  | The second atom of this pair is atom number                     2 .
  | Wigner-Seitz cell of the first atom image           0     0     0 .
  | (The Wigner-Seitz cell of the second atom is 0 0 0  by definition.)

  Quantities derived from the lattice vectors:
  | Reciprocal lattice vector 1: -1.185507  1.185507  1.185507
  | Reciprocal lattice vector 2:  1.185507 -1.185507  1.185507
  | Reciprocal lattice vector 3:  1.185507  1.185507 -1.185507
  | Unit cell volume                               :   0.372192E+02  A^3

  Range separation radius for Ewald summation (hartree_convergence_parameter):      3.78530813 bohr.

  Fractional coordinates:
                         L1                L2                L3
       atom_frac         0.00000000        0.00000000        0.00000000  Si
       atom_frac         0.25000000        0.25000000        0.25000000  Si

  Number of empty states per atom not set in control.in - providing a guess from actual geometry.
  | Total number of empty states used during s.c.f. cycle:        6
  If you use a very high smearing, use empty_states (per atom!) in control.in to increase this value.

  Structure-dependent array size parameters: 
  | Maximum number of distinct radial functions  :        8
  | Maximum number of basis functions            :       36
  | Number of Kohn-Sham states (occupied + empty):       20
------------------------------------------------------------

------------------------------------------------------------
          Preparing all fixed parts of the calculation.
------------------------------------------------------------
  Determining machine precision:
     2.2250738585072014E-308
  Setting up grids for atomic and cluster calculations.

  Creating wave function, potential, and density for free atoms.

  Species: Si

  List of occupied orbitals and eigenvalues:
    n    l              occ      energy [Ha]    energy [eV]
    1    0           2.0000       -65.491668     -1782.1190
    2    0           2.0000        -5.087967      -138.4506
    3    0           2.0000        -0.391471       -10.6525
    2    1           6.0000        -3.502246       -95.3010
    3    1           2.0000        -0.143943        -3.9169

  Creating fixed part of basis set: Ionic, confined, hydrogenic.

  Si                   ion:

  List of free ionic orbitals and eigenvalues:
    n    l      energy [Ha]    energy [eV]
    1    0       -66.364436     -1805.8682
    2    0        -5.935799      -161.5213
    3    0        -1.078166       -29.3384
    2    1        -4.351123      -118.4001
    3    1        -0.781733       -21.2720


  List of ionic basis orbitals and eigenvalues:
    n    l      energy [Ha]    energy [eV]    outer radius [A]
    3    0        -1.078146       -29.3378       4.214062


  Si                   hydrogenic:

  List of hydrogenic basis orbitals: 
    n    l      effective z      eigenvalue [eV]  inner max. [A]     outer max. [A]     outer radius [A]   
    3    2         4.200000       -26.6624           1.139231           1.139231           4.534782
    2    1         1.400000        -6.4613           1.472672           1.472672           4.590560


  Adding cutoff potential to free-atom effective potential.
  Creating atomic-like basis functions for current effective potential.

  Species Si                  :

  List of atomic basis orbitals and eigenvalues:
    n    l      energy [Ha]    energy [eV]    outer radius [A]
    1    0       -65.491668     -1782.1190       0.789468
    2    0        -5.087967      -138.4506       2.815114
    3    0        -0.391471       -10.6525       4.534782
    2    1        -3.502246       -95.3010       3.259919
    3    1        -0.143943        -3.9169       4.590560

  Assembling full basis from fixed parts.
  | Species Si :   atomic orbital   1 s accepted.
  | Species Si :   atomic orbital   2 s accepted.
  | Species Si :    ionic orbital   3 s accepted.
  | Species Si :   atomic orbital   3 s accepted.
  | Species Si :   atomic orbital   2 p accepted.
  | Species Si :   atomic orbital   3 p accepted.
  | Species Si :    hydro orbital   2 p accepted.
  | Species Si :    hydro orbital   3 d accepted.

  Basis size parameters after reduction:
  | Total number of radial functions:        8
  | Total number of basis functions :       36

  Per-task memory consumption for arrays in subroutine allocate_ext:
  |           2.757868MB.
  Testing on-site integration grid accuracy.
  |  Species  Function  <phi|h_atom|phi> (log., in eV)  <phi|h_atom|phi> (rad., in eV)
           1        1              -1782.1189727076              -1782.1182429251
           1        2               -138.4506350693               -138.4506310079
           1        3                -10.3030408815                -10.3029120678
           1        4                  5.0238999146                  4.9457540310 ***
           1        5                -95.3009689499                -95.3009689315
           1        6                 -3.9266496564                 -3.9420918374
           1        7                  6.3453628447                  6.1632372158 ***
           1        8                  6.2883050744                  6.2861881409
 * Note: Onsite integrals marked "***" above are less accurate than
 * onsite_accuracy_threshold =    0.03000 eV. Usually, this is harmless.
 * When in doubt, tighten the "radial" and/or "radial_multiplier" flags to check.

  Preparing densities etc. for the partition functions (integrals / Hartree potential).

  Preparations completed.
  max(cpu_time)          :      0.115 s.
  Wall clock time (cpu1) :      0.115 s.
------------------------------------------------------------

------------------------------------------------------------
          Begin self-consistency loop: Initialization.

          Date     :  20190513, Time     :  134707.727
------------------------------------------------------------

  Initializing index lists of integration centers etc. from given atomic structure:
  Mapping all atomic coordinates to central unit cell.

  Initializing the k-points
          Using symmetry for reducing the k-points
  | k-points reduced from:     4096 to     2052
  | Number of k-points                             :      2052
  The eigenvectors in the calculations are COMPLEX.
  | K-points in task   0:      2052
  | Number of basis functions in the Hamiltonian integrals :      1472
  | Number of basis functions in a single unit cell        :        36
  | Number of centers in hartree potential         :       732
  | Number of centers in hartree multipole         :       324
  | Number of centers in electron density summation:       228
  | Number of centers in basis integrals           :       228
  | Number of centers in integrals                 :       101
  | Number of centers in hamiltonian               :       228
  | Consuming       4552 KiB for k_phase.
  | Number of super-cells (origin) [n_cells]                     :        2197
  | Number of super-cells (after PM_index) [n_cells]             :         142
  | Number of super-cells in hamiltonian [n_cells_in_hamiltonian]:         142
  | Size of matrix packed + index [n_hamiltonian_matrix_size] :       45735
  Partitioning the integration grid into batches with maxmin method.
  | Maximal weight for a single point:     1.000
  | Minimal weight for a single point:     0.683
  | Number of batches:      128
  | Maximal batch size:      90
  | Minimal batch size:      85
  | Average batch size:      87.562
  | Standard deviation of batch sizes:       1.504
  Initializing partition tables, free-atom densities, potentials, etc. across the integration grid (initialize_grid_storage).
  | initialize_grid_storage: Actual outermost partition radius vs. multipole_radius_free
  | (-- VB: in principle, multipole_radius_free should be larger, hence this output)
  | Species        1: Confinement radius =              4.999999999999999 AA, multipole_radius_free =              5.000694715736543 AA.
  | Species        1: outer_partition_radius set to              5.000694715736543 AA .
  | Original list of interatomic distances with         228 x        228 entries is created.
  | Net number of integration points:    11208
  | of which are non-zero points    :     9628
  | Numerical average free-atom electrostatic potential    :    -14.13935356 eV
  Renormalizing the initial density to the exact electron count on the 3D integration grid.
  | Initial density: Formal number of electrons (from input files) :      28.0000000000
  | Integrated number of electrons on 3D grid     :      28.0057615993
  | Charge integration error                      :       0.0057615993
  | Normalization factor for density and gradient :       0.9997942709
  Obtaining max. number of non-zero basis functions in each batch (get_n_compute_maxes).
  | Maximal number of non-zero basis functions:      515 in task     0
  Allocating       23.639 MB for KS_eigenvector_complex
  Integrating Hamiltonian matrix: batch-based integration.
  Time summed over all CPUs for integration: real work        0.656 s, elapsed        0.656 s
  Integrating overlap matrix.
  Time summed over all CPUs for integration: real work        0.496 s, elapsed        0.496 s
  Decreasing sparse matrix size:
   Tolerance:   9.9999998245167004E-014
   Hamiltonian matrix
  | Array has    39826 nonzero elements out of    45735 elements
  | Sparsity factor is 0.129
   Overlap matrix
  | Array has    36980 nonzero elements out of    45735 elements
  | Sparsity factor is 0.191
  New size of hamiltonian matrix:       40083

  Updating Kohn-Sham eigenvalues, eigenvectors, occupation numbers, and Fermi level.
  Solving generalized eigenproblem
  Transforming overlap matrix and checking for singularities.
  Overlap matrix is nonsingular at first k-point:
  | Lowest eigenvalue:  0.329719E-02

  Obtaining occupation numbers and chemical potential using ELSI.
  | Chemical potential (Fermi level):    -6.12300986eV
  Writing Kohn-Sham eigenvalues.
  K-point:       1 at    0.000000    0.000000    0.000000 (in units of recip. lattice)

  State    Occupation    Eigenvalue [Ha]    Eigenvalue [eV]
      1       2.00000         -65.518014        -1782.83586
      2       2.00000         -65.518014        -1782.83586
      3       2.00000          -5.120335         -139.33139
      4       2.00000          -5.119906         -139.31973
      5       2.00000          -3.534630          -96.18217
      6       2.00000          -3.534630          -96.18217
      7       2.00000          -3.534630          -96.18217
      8       2.00000          -3.533774          -96.15889
      9       2.00000          -3.533774          -96.15889
     10       2.00000          -3.533774          -96.15889
     11       2.00000          -0.691645          -18.82063
     12       2.00000          -0.239507           -6.51731
     13       2.00000          -0.239507           -6.51731
     14       2.00000          -0.239507           -6.51731
     15       0.00000          -0.133228           -3.62531
     16       0.00000          -0.133228           -3.62531
     17       0.00000          -0.133228           -3.62531
     18       0.00000          -0.083928           -2.28380
     19       0.00000           0.060797            1.65436
     20       0.00000           0.060797            1.65436

  What follows are estimated values for band gap, HOMO, LUMO, etc.
  | They are estimated on a discrete k-point grid and not necessarily exact.
  | For converged numbers, create a DOS and/or band structure plot on a denser k-grid.

  Highest occupied state (VBM) at     -6.51730867 eV (relative to internal zero)
  | Occupation number:      2.00000000
  | K-point:       1 at    0.000000    0.000000    0.000000 (in units of recip. lattice)

  Lowest unoccupied state (CBM) at    -5.73574730 eV (relative to internal zero)
  | Occupation number:      0.00000000
  | K-point:    1288 at    0.437500    0.000000    0.437500 (in units of recip. lattice)

  ESTIMATED overall HOMO-LUMO gap:      0.78156137 eV between HOMO at k-point 1 and LUMO at k-point 1288
  | This appears to be an indirect band gap.
  | Smallest direct gap :      2.89199802 eV for k_point 1 at    0.437500    0.000000    0.437500 (in units of recip. lattice)
  The gap value is above 0.2 eV. Unless you are using a very sparse k-point grid,
  this system is most likely an insulator or a semiconductor.
  Calculating total energy contributions from superposition of free atom densities.

  Total energy components:
  | Sum of eigenvalues            :        -328.39512630 Ha       -8936.08604969 eV
  | XC energy correction          :         -39.70109986 Ha       -1080.32189332 eV
  | XC potential correction       :          52.45126410 Ha        1427.27151502 eV
  | Free-atom electrostatic energy:        -263.09762940 Ha       -7159.25075475 eV
  | Hartree energy correction     :          -0.00000000 Ha          -0.00000000 eV
  | Entropy correction            :          -0.00000000 Ha          -0.00000000 eV
  | ---------------------------
  | Total energy                  :        -578.74259146 Ha      -15748.38718275 eV
  | Total energy, T -> 0          :        -578.74259146 Ha      -15748.38718275 eV  <-- do not rely on this value for anything but (periodic) metals
  | Electronic free energy        :        -578.74259146 Ha      -15748.38718275 eV

  Derived energy quantities:
  | Kinetic energy                :         579.81780724 Ha       15777.64529275 eV
  | Electrostatic energy          :       -1118.85929884 Ha      -30445.71058217 eV
  | Energy correction for multipole
  | error in Hartree potential    :           0.00000000 Ha           0.00000000 eV
  | Sum of eigenvalues per atom                           :       -4468.04302485 eV
  | Total energy (T->0) per atom                          :       -7874.19359137 eV  <-- do not rely on this value for anything but (periodic) metals
  | Electronic free energy per atom                       :       -7874.19359137 eV
  Initialize hartree_potential_storage
  Max. number of atoms included in rho_multipole:            2

  End scf initialization - timings             :  max(cpu_time)    wall_clock(cpu1)
  | Time for scf. initialization               :        3.885 s           3.886 s
  | Boundary condition initialization          :        0.055 s           0.055 s
  | Integration                                :        1.152 s           1.152 s
  | Solution of K.-S. eqns.                    :        2.430 s           2.430 s
  | Grid partitioning                          :        0.036 s           0.036 s
  | Preloading free-atom quantities on grid    :        0.001 s           0.000 s
  | Free-atom superposition energy             :        0.031 s           0.031 s
  | Total energy evaluation                    :        0.000 s           0.001 s

  Partial memory accounting:
  | Current value for overall tracked memory usage on task 0  :          24.441 MB
  | Peak value for overall tracked memory usage on task 0     :          27.788 MB after allocating wave
  | Largest tracked array allocation on task 0 so far         :          23.639 MB  when allocating +KS_eigenvector_complex
  Note:  These values currently only include a subset of arrays which are explicitly tracked.
  The "true" memory usage will be greater.
------------------------------------------------------------

------------------------------------------------------------
          Begin self-consistency iteration #    1

  Date     :  20190513, Time     :  134711.613
------------------------------------------------------------
  Evaluating new KS density using the density matrix
  Evaluating density matrix
  Time summed over all CPUs for getting density from density matrix: real work        1.082 s, elapsed        1.082 s
  Integration grid: deviation in total charge (<rho> - N_e) =  -2.060574E-13
  Pulay mixing of updated and previous charge densities.

  Evaluating partitioned Hartree potential by multipole expansion.
  | Analytical far-field extrapolation by fixed multipoles:
  | Hartree multipole sum: apparent total charge =   0.596663E-02
  Summing up the Hartree potential.
  | Estimated reciprocal-space cutoff momentum G_max:         2.46938261 bohr^-1 .
  | Reciprocal lattice points for long-range Hartree potential:      58
  Time summed over all CPUs for potential: real work        0.362 s, elapsed        0.362 s
  | RMS charge density error from multipole expansion :   0.609817E-03
  | Average real-space part of the electrostatic potential :     -0.00458952 eV

  Integrating Hamiltonian matrix: batch-based integration.
  Time summed over all CPUs for integration: real work        0.666 s, elapsed        0.666 s

  Updating Kohn-Sham eigenvalues, eigenvectors, occupation numbers, and Fermi level.
  Solving generalized eigenproblem

  Obtaining occupation numbers and chemical potential using ELSI.
  | Chemical potential (Fermi level):    -6.10592828eV
  Writing Kohn-Sham eigenvalues.
  K-point:       1 at    0.000000    0.000000    0.000000 (in units of recip. lattice)

  State    Occupation    Eigenvalue [Ha]    Eigenvalue [eV]
      1       2.00000         -65.521500        -1782.93074
      2       2.00000         -65.521500        -1782.93074
      3       2.00000          -5.120881         -139.34626
      4       2.00000          -5.120453         -139.33461
      5       2.00000          -3.535274          -96.19971
      6       2.00000          -3.535274          -96.19971
      7       2.00000          -3.535274          -96.19971
      8       2.00000          -3.534421          -96.17649
      9       2.00000          -3.534421          -96.17649
     10       2.00000          -3.534421          -96.17649
     11       2.00000          -0.691068          -18.80492
     12       2.00000          -0.238664           -6.49438
     13       2.00000          -0.238664           -6.49438
     14       2.00000          -0.238664           -6.49438
     15       0.00000          -0.132815           -3.61408
     16       0.00000          -0.132815           -3.61408
     17       0.00000          -0.132815           -3.61408
     18       0.00000          -0.083209           -2.26422
     19       0.00000           0.061298            1.66799
     20       0.00000           0.061298            1.66799

  What follows are estimated values for band gap, HOMO, LUMO, etc.
  | They are estimated on a discrete k-point grid and not necessarily exact.
  | For converged numbers, create a DOS and/or band structure plot on a denser k-grid.

  Highest occupied state (VBM) at     -6.49437823 eV (relative to internal zero)
  | Occupation number:      2.00000000
  | K-point:       1 at    0.000000    0.000000    0.000000 (in units of recip. lattice)

  Lowest unoccupied state (CBM) at    -5.72903779 eV (relative to internal zero)
  | Occupation number:      0.00000000
  | K-point:    1367 at    0.437500    0.437500    0.000000 (in units of recip. lattice)

  ESTIMATED overall HOMO-LUMO gap:      0.76534043 eV between HOMO at k-point 1 and LUMO at k-point 1367
  | This appears to be an indirect band gap.
  | Smallest direct gap :      2.88029901 eV for k_point 1 at    0.437500    0.437500    0.000000 (in units of recip. lattice)
  The gap value is above 0.2 eV. Unless you are using a very sparse k-point grid,
  this system is most likely an insulator or a semiconductor.

  Total energy components:
  | Sum of eigenvalues            :        -328.41392141 Ha       -8936.59749051 eV
  | XC energy correction          :         -39.70449890 Ha       -1080.41438592 eV
  | XC potential correction       :          52.45575042 Ha        1427.39359395 eV
  | Free-atom electrostatic energy:        -263.09762940 Ha       -7159.25075475 eV
  | Hartree energy correction     :           0.01838280 Ha           0.50022136 eV
  | Entropy correction            :          -0.00000000 Ha          -0.00000000 eV
  | ---------------------------
  | Total energy                  :        -578.74191649 Ha      -15748.36881587 eV
  | Total energy, T -> 0          :        -578.74191649 Ha      -15748.36881587 eV  <-- do not rely on this value for anything but (periodic) metals
  | Electronic free energy        :        -578.74191649 Ha      -15748.36881587 eV

  Derived energy quantities:
  | Kinetic energy                :         579.66383781 Ha       15773.45557150 eV
  | Electrostatic energy          :       -1118.70125540 Ha      -30441.41000145 eV
  | Energy correction for multipole
  | error in Hartree potential    :           0.00081800 Ha           0.02225896 eV
  | Sum of eigenvalues per atom                           :       -4468.29874525 eV
  | Total energy (T->0) per atom                          :       -7874.18440793 eV  <-- do not rely on this value for anything but (periodic) metals
  | Electronic free energy per atom                       :       -7874.18440793 eV

  Self-consistency convergence accuracy:
  | Change of charge density      :  0.1124E+00
  | Change of sum of eigenvalues  : -0.5114E+00 eV
  | Change of total energy        :  0.1837E-01 eV

  End self-consistency iteration #     1       :  max(cpu_time)    wall_clock(cpu1)
  | Time for this iteration                    :        3.581 s           3.581 s
  | Charge density update                      :        1.248 s           1.248 s
  | Density mixing & preconditioning           :        0.049 s           0.049 s
  | Hartree multipole update                   :        0.001 s           0.001 s
  | Hartree multipole summation                :        0.365 s           0.365 s
  | Integration                                :        0.665 s           0.666 s
  | Solution of K.-S. eqns.                    :        1.251 s           1.251 s
  | Total energy evaluation                    :        0.001 s           0.001 s

  Partial memory accounting:
  | Current value for overall tracked memory usage on task 0  :          24.441 MB
  | Peak value for overall tracked memory usage on task 0     :          27.788 MB after allocating wave
  | Largest tracked array allocation on task 0 so far         :          23.639 MB  when allocating +KS_eigenvector_complex
  Note:  These values currently only include a subset of arrays which are explicitly tracked.
  The "true" memory usage will be greater.
------------------------------------------------------------

------------------------------------------------------------
          Begin self-consistency iteration #    2

  Date     :  20190513, Time     :  134715.194
------------------------------------------------------------
  Evaluating new KS density using the density matrix
  Evaluating density matrix
  Time summed over all CPUs for getting density from density matrix: real work        1.218 s, elapsed        1.218 s
  Integration grid: deviation in total charge (<rho> - N_e) =  -2.842171E-14
  Pulay mixing of updated and previous charge densities.

  Evaluating partitioned Hartree potential by multipole expansion.
  | Analytical far-field extrapolation by fixed multipoles:
  | Hartree multipole sum: apparent total charge =   0.969902E-02
  Summing up the Hartree potential.
  Time summed over all CPUs for potential: real work        0.444 s, elapsed        0.444 s
  | RMS charge density error from multipole expansion :   0.119315E-01
  | Average real-space part of the electrostatic potential :      0.39144555 eV

  Integrating Hamiltonian matrix: batch-based integration.
  Time summed over all CPUs for integration: real work        0.674 s, elapsed        0.674 s

  Updating Kohn-Sham eigenvalues, eigenvectors, occupation numbers, and Fermi level.
  Solving generalized eigenproblem

  Obtaining occupation numbers and chemical potential using ELSI.
  | Chemical potential (Fermi level):    -5.75229130eV
  What follows are estimated values for band gap, HOMO, LUMO, etc.
  | They are estimated on a discrete k-point grid and not necessarily exact.
  | For converged numbers, create a DOS and/or band structure plot on a denser k-grid.

  Highest occupied state (VBM) at     -5.87864236 eV (relative to internal zero)
  | Occupation number:      2.00000000
  | K-point:       1 at    0.000000    0.000000    0.000000 (in units of recip. lattice)

  Lowest unoccupied state (CBM) at    -5.56422611 eV (relative to internal zero)
  | Occupation number:      0.00000000
  | K-point:     105 at    0.000000    0.562500    0.562500 (in units of recip. lattice)

  ESTIMATED overall HOMO-LUMO gap:      0.31441625 eV between HOMO at k-point 1 and LUMO at k-point 105
  | This appears to be an indirect band gap.
  | Smallest direct gap :      2.57227822 eV for k_point 1 at    0.000000    0.562500    0.562500 (in units of recip. lattice)
  The gap value is above 0.2 eV. Unless you are using a very sparse k-point grid,
  this system is most likely an insulator or a semiconductor.

  Checking to see if s.c.f. parameters should be adjusted.
  The system likely has a gap. Increased the default Pulay mixing parameter (charge_mix_param). Value:   0.200000 .
  Kept the default occupation width. Value:   0.010000 eV.

  Total energy components:
  | Sum of eigenvalues            :        -327.43556176 Ha       -8909.97497013 eV
  | XC energy correction          :         -39.78003993 Ha       -1082.46996186 eV
  | XC potential correction       :          52.55541823 Ha        1430.10569315 eV
  | Free-atom electrostatic energy:        -263.09762940 Ha       -7159.25075475 eV
  | Hartree energy correction     :          -0.97749918 Ha         -26.59910610 eV
  | Entropy correction            :          -0.00000000 Ha          -0.00000000 eV
  | ---------------------------
  | Total energy                  :        -578.73531204 Ha      -15748.18909969 eV
  | Total energy, T -> 0          :        -578.73531204 Ha      -15748.18909969 eV  <-- do not rely on this value for anything but (periodic) metals
  | Electronic free energy        :        -578.73531204 Ha      -15748.18909969 eV

  Derived energy quantities:
  | Kinetic energy                :         580.06988772 Ha       15784.50475165 eV
  | Electrostatic energy          :       -1119.02515984 Ha      -30450.22388948 eV
  | Energy correction for multipole
  | error in Hartree potential    :           0.01597489 Ha           0.43469892 eV
  | Sum of eigenvalues per atom                           :       -4454.98748506 eV
  | Total energy (T->0) per atom                          :       -7874.09454985 eV  <-- do not rely on this value for anything but (periodic) metals
  | Electronic free energy per atom                       :       -7874.09454985 eV

  Self-consistency convergence accuracy:
  | Change of charge density      :  0.1068E+00
  | Change of sum of eigenvalues  :  0.2662E+02 eV
  | Change of total energy        :  0.1797E+00 eV

  End self-consistency iteration #     2       :  max(cpu_time)    wall_clock(cpu1)
  | Time for this iteration                    :        3.802 s           3.803 s
  | Charge density update                      :        1.381 s           1.382 s
  | Density mixing & preconditioning           :        0.046 s           0.046 s
  | Hartree multipole update                   :        0.001 s           0.001 s
  | Hartree multipole summation                :        0.447 s           0.447 s
  | Integration                                :        0.674 s           0.674 s
  | Solution of K.-S. eqns.                    :        1.253 s           1.253 s
  | Total energy evaluation                    :        0.000 s           0.000 s

  Partial memory accounting:
  | Current value for overall tracked memory usage on task 0  :          24.442 MB
  | Peak value for overall tracked memory usage on task 0     :          27.788 MB after allocating wave
  | Largest tracked array allocation on task 0 so far         :          23.639 MB  when allocating +KS_eigenvector_complex
  Note:  These values currently only include a subset of arrays which are explicitly tracked.
  The "true" memory usage will be greater.
------------------------------------------------------------

------------------------------------------------------------
          Begin self-consistency iteration #    3

  Date     :  20190513, Time     :  134718.997
------------------------------------------------------------
  Evaluating new KS density using the density matrix
  Evaluating density matrix
  Time summed over all CPUs for getting density from density matrix: real work        1.107 s, elapsed        1.107 s
  Integration grid: deviation in total charge (<rho> - N_e) =   9.592327E-14
  Pulay mixing of updated and previous charge densities.

  Evaluating partitioned Hartree potential by multipole expansion.
  | Analytical far-field extrapolation by fixed multipoles:
  | Hartree multipole sum: apparent total charge =   0.919083E-02
  Summing up the Hartree potential.
  Time summed over all CPUs for potential: real work        0.477 s, elapsed        0.478 s
  | RMS charge density error from multipole expansion :   0.117375E-01
  | Average real-space part of the electrostatic potential :      0.37753050 eV

  Integrating Hamiltonian matrix: batch-based integration.
  Time summed over all CPUs for integration: real work        0.939 s, elapsed        0.939 s

  Updating Kohn-Sham eigenvalues, eigenvectors, occupation numbers, and Fermi level.
  Solving generalized eigenproblem

  Obtaining occupation numbers and chemical potential using ELSI.
  | Chemical potential (Fermi level):    -5.77538990eV
  What follows are estimated values for band gap, HOMO, LUMO, etc.
  | They are estimated on a discrete k-point grid and not necessarily exact.
  | For converged numbers, create a DOS and/or band structure plot on a denser k-grid.

  Highest occupied state (VBM) at     -5.90273325 eV (relative to internal zero)
  | Occupation number:      2.00000000
  | K-point:       1 at    0.000000    0.000000    0.000000 (in units of recip. lattice)

  Lowest unoccupied state (CBM) at    -5.57046629 eV (relative to internal zero)
  | Occupation number:      0.00000000
  | K-point:     105 at    0.000000    0.562500    0.562500 (in units of recip. lattice)

  ESTIMATED overall HOMO-LUMO gap:      0.33226696 eV between HOMO at k-point 1 and LUMO at k-point 105
  | This appears to be an indirect band gap.
  | Smallest direct gap :      2.58345546 eV for k_point 1 at    0.000000    0.562500    0.562500 (in units of recip. lattice)
  The gap value is above 0.2 eV. Unless you are using a very sparse k-point grid,
  this system is most likely an insulator or a semiconductor.

  Total energy components:
  | Sum of eigenvalues            :        -327.48272866 Ha       -8911.25844657 eV
  | XC energy correction          :         -39.77686611 Ha       -1082.38359803 eV
  | XC potential correction       :          52.55123008 Ha        1429.99172774 eV
  | Free-atom electrostatic energy:        -263.09762940 Ha       -7159.25075475 eV
  | Hartree energy correction     :          -0.92917243 Ha         -25.28406833 eV
  | Entropy correction            :          -0.00000000 Ha          -0.00000000 eV
  | ---------------------------
  | Total energy                  :        -578.73516652 Ha      -15748.18513994 eV
  | Total energy, T -> 0          :        -578.73516652 Ha      -15748.18513994 eV  <-- do not rely on this value for anything but (periodic) metals
  | Electronic free energy        :        -578.73516652 Ha      -15748.18513994 eV

  Derived energy quantities:
  | Kinetic energy                :         580.04888768 Ha       15783.93331157 eV
  | Electrostatic energy          :       -1119.00718809 Ha      -30449.73485348 eV
  | Energy correction for multipole
  | error in Hartree potential    :           0.01574275 Ha           0.42838198 eV
  | Sum of eigenvalues per atom                           :       -4455.62922328 eV
  | Total energy (T->0) per atom                          :       -7874.09256997 eV  <-- do not rely on this value for anything but (periodic) metals
  | Electronic free energy per atom                       :       -7874.09256997 eV

  Self-consistency convergence accuracy:
  | Change of charge density      :  0.1816E-01
  | Change of sum of eigenvalues  : -0.1283E+01 eV
  | Change of total energy        :  0.3960E-02 eV

  End self-consistency iteration #     3       :  max(cpu_time)    wall_clock(cpu1)
  | Time for this iteration                    :        4.046 s           4.051 s
  | Charge density update                      :        1.276 s           1.276 s
  | Density mixing & preconditioning           :        0.045 s           0.046 s
  | Hartree multipole update                   :        0.001 s           0.000 s
  | Hartree multipole summation                :        0.481 s           0.482 s
  | Integration                                :        0.939 s           0.939 s
  | Solution of K.-S. eqns.                    :        1.302 s           1.306 s
  | Total energy evaluation                    :        0.001 s           0.001 s

  Partial memory accounting:
  | Current value for overall tracked memory usage on task 0  :          24.442 MB
  | Peak value for overall tracked memory usage on task 0     :          27.788 MB after allocating wave
  | Largest tracked array allocation on task 0 so far         :          23.639 MB  when allocating +KS_eigenvector_complex
  Note:  These values currently only include a subset of arrays which are explicitly tracked.
  The "true" memory usage will be greater.
------------------------------------------------------------

------------------------------------------------------------
          Begin self-consistency iteration #    4

  Date     :  20190513, Time     :  134723.048
------------------------------------------------------------
  Evaluating new KS density using the density matrix
  Evaluating density matrix
  Time summed over all CPUs for getting density from density matrix: real work        1.161 s, elapsed        1.161 s
  Integration grid: deviation in total charge (<rho> - N_e) =   3.197442E-14
  Pulay mixing of updated and previous charge densities.

  Evaluating partitioned Hartree potential by multipole expansion.
  | Analytical far-field extrapolation by fixed multipoles:
  | Hartree multipole sum: apparent total charge =   0.674551E-02
  Summing up the Hartree potential.
  Time summed over all CPUs for potential: real work        0.465 s, elapsed        0.465 s
  | RMS charge density error from multipole expansion :   0.124308E-01
  | Average real-space part of the electrostatic potential :      0.36148787 eV

  Integrating Hamiltonian matrix: batch-based integration.
  Time summed over all CPUs for integration: real work        0.728 s, elapsed        0.728 s

  Updating Kohn-Sham eigenvalues, eigenvectors, occupation numbers, and Fermi level.
  Solving generalized eigenproblem

  Obtaining occupation numbers and chemical potential using ELSI.
  | Chemical potential (Fermi level):    -5.81437376eV
  What follows are estimated values for band gap, HOMO, LUMO, etc.
  | They are estimated on a discrete k-point grid and not necessarily exact.
  | For converged numbers, create a DOS and/or band structure plot on a denser k-grid.

  Highest occupied state (VBM) at     -5.93801066 eV (relative to internal zero)
  | Occupation number:      2.00000000
  | K-point:       1 at    0.000000    0.000000    0.000000 (in units of recip. lattice)

  Lowest unoccupied state (CBM) at    -5.57510887 eV (relative to internal zero)
  | Occupation number:      0.00000000
  | K-point:     105 at    0.000000    0.562500    0.562500 (in units of recip. lattice)

  ESTIMATED overall HOMO-LUMO gap:      0.36290178 eV between HOMO at k-point 1 and LUMO at k-point 105
  | This appears to be an indirect band gap.
  | Smallest direct gap :      2.59654389 eV for k_point 1 at    0.000000    0.562500    0.562500 (in units of recip. lattice)
  The gap value is above 0.2 eV. Unless you are using a very sparse k-point grid,
  this system is most likely an insulator or a semiconductor.

  Total energy components:
  | Sum of eigenvalues            :        -327.59788682 Ha       -8914.39205956 eV
  | XC energy correction          :         -39.77225944 Ha       -1082.25824397 eV
  | XC potential correction       :          52.54513907 Ha        1429.82598273 eV
  | Free-atom electrostatic energy:        -263.09762940 Ha       -7159.25075475 eV
  | Hartree energy correction     :          -0.81223052 Ha         -22.10191688 eV
  | Entropy correction            :          -0.00000000 Ha          -0.00000000 eV
  | ---------------------------
  | Total energy                  :        -578.73486711 Ha      -15748.17699244 eV
  | Total energy, T -> 0          :        -578.73486711 Ha      -15748.17699244 eV  <-- do not rely on this value for anything but (periodic) metals
  | Electronic free energy        :        -578.73486711 Ha      -15748.17699244 eV

  Derived energy quantities:
  | Kinetic energy                :         579.98789576 Ha       15782.27363676 eV
  | Electrostatic energy          :       -1118.95050343 Ha      -30448.19238523 eV
  | Energy correction for multipole
  | error in Hartree potential    :           0.01681209 Ha           0.45748027 eV
  | Sum of eigenvalues per atom                           :       -4457.19602978 eV
  | Total energy (T->0) per atom                          :       -7874.08849622 eV  <-- do not rely on this value for anything but (periodic) metals
  | Electronic free energy per atom                       :       -7874.08849622 eV

  Self-consistency convergence accuracy:
  | Change of charge density      :  0.1538E-01
  | Change of sum of eigenvalues  : -0.3134E+01 eV
  | Change of total energy        :  0.8147E-02 eV

  End self-consistency iteration #     4       :  max(cpu_time)    wall_clock(cpu1)
  | Time for this iteration                    :        3.846 s           3.846 s
  | Charge density update                      :        1.342 s           1.342 s
  | Density mixing & preconditioning           :        0.046 s           0.046 s
  | Hartree multipole update                   :        0.001 s           0.001 s
  | Hartree multipole summation                :        0.469 s           0.469 s
  | Integration                                :        0.728 s           0.728 s
  | Solution of K.-S. eqns.                    :        1.259 s           1.259 s
  | Total energy evaluation                    :        0.000 s           0.000 s

  Partial memory accounting:
  | Current value for overall tracked memory usage on task 0  :          24.443 MB
  | Peak value for overall tracked memory usage on task 0     :          27.788 MB after allocating wave
  | Largest tracked array allocation on task 0 so far         :          23.639 MB  when allocating +KS_eigenvector_complex
  Note:  These values currently only include a subset of arrays which are explicitly tracked.
  The "true" memory usage will be greater.
------------------------------------------------------------

------------------------------------------------------------
          Begin self-consistency iteration #    5

  Date     :  20190513, Time     :  134726.894
------------------------------------------------------------
  Evaluating new KS density using the density matrix
  Evaluating density matrix
  Time summed over all CPUs for getting density from density matrix: real work        1.149 s, elapsed        1.149 s
  Integration grid: deviation in total charge (<rho> - N_e) =   7.815970E-14
  Pulay mixing of updated and previous charge densities.

  Evaluating partitioned Hartree potential by multipole expansion.
  | Analytical far-field extrapolation by fixed multipoles:
  | Hartree multipole sum: apparent total charge =   0.567837E-02
  Summing up the Hartree potential.
  Time summed over all CPUs for potential: real work        0.458 s, elapsed        0.458 s
  | RMS charge density error from multipole expansion :   0.123722E-01
  | Average real-space part of the electrostatic potential :      0.35643976 eV

  Integrating Hamiltonian matrix: batch-based integration.
  Time summed over all CPUs for integration: real work        0.725 s, elapsed        0.725 s

  Updating Kohn-Sham eigenvalues, eigenvectors, occupation numbers, and Fermi level.
  Solving generalized eigenproblem

  Obtaining occupation numbers and chemical potential using ELSI.
  | Chemical potential (Fermi level):    -5.82613650eV
  What follows are estimated values for band gap, HOMO, LUMO, etc.
  | They are estimated on a discrete k-point grid and not necessarily exact.
  | For converged numbers, create a DOS and/or band structure plot on a denser k-grid.

  Highest occupied state (VBM) at     -5.94806898 eV (relative to internal zero)
  | Occupation number:      2.00000000
  | K-point:       1 at    0.000000    0.000000    0.000000 (in units of recip. lattice)

  Lowest unoccupied state (CBM) at    -5.57841986 eV (relative to internal zero)
  | Occupation number:      0.00000000
  | K-point:     105 at    0.000000    0.562500    0.562500 (in units of recip. lattice)

  ESTIMATED overall HOMO-LUMO gap:      0.36964911 eV between HOMO at k-point 1 and LUMO at k-point 105
  | This appears to be an indirect band gap.
  | Smallest direct gap :      2.60056133 eV for k_point 1 at    0.000000    0.562500    0.562500 (in units of recip. lattice)
  The gap value is above 0.2 eV. Unless you are using a very sparse k-point grid,
  this system is most likely an insulator or a semiconductor.

  Total energy components:
  | Sum of eigenvalues            :        -327.63906400 Ha       -8915.51254780 eV
  | XC energy correction          :         -39.76898798 Ha       -1082.16922306 eV
  | XC potential correction       :          52.54080310 Ha        1429.70799506 eV
  | Free-atom electrostatic energy:        -263.09762940 Ha       -7159.25075475 eV
  | Hartree energy correction     :          -0.76994513 Ha         -20.95127296 eV
  | Entropy correction            :          -0.00000000 Ha          -0.00000000 eV
  | ---------------------------
  | Total energy                  :        -578.73482342 Ha      -15748.17580352 eV
  | Total energy, T -> 0          :        -578.73482342 Ha      -15748.17580352 eV  <-- do not rely on this value for anything but (periodic) metals
  | Electronic free energy        :        -578.73482342 Ha      -15748.17580352 eV

  Derived energy quantities:
  | Kinetic energy                :         579.95692563 Ha       15781.43089683 eV
  | Electrostatic energy          :       -1118.92276107 Ha      -30447.43747729 eV
  | Energy correction for multipole
  | error in Hartree potential    :           0.01668764 Ha           0.45409370 eV
  | Sum of eigenvalues per atom                           :       -4457.75627390 eV
  | Total energy (T->0) per atom                          :       -7874.08790176 eV  <-- do not rely on this value for anything but (periodic) metals
  | Electronic free energy per atom                       :       -7874.08790176 eV

  Self-consistency convergence accuracy:
  | Change of charge density      :  0.9506E-02
  | Change of sum of eigenvalues  : -0.1120E+01 eV
  | Change of total energy        :  0.1189E-02 eV

  End self-consistency iteration #     5       :  max(cpu_time)    wall_clock(cpu1)
  | Time for this iteration                    :        3.870 s           3.870 s
  | Charge density update                      :        1.316 s           1.316 s
  | Density mixing & preconditioning           :        0.047 s           0.047 s
  | Hartree multipole update                   :        0.001 s           0.001 s
  | Hartree multipole summation                :        0.461 s           0.461 s
  | Integration                                :        0.725 s           0.725 s
  | Solution of K.-S. eqns.                    :        1.319 s           1.319 s
  | Total energy evaluation                    :        0.000 s           0.001 s

  Partial memory accounting:
  | Current value for overall tracked memory usage on task 0  :          24.443 MB
  | Peak value for overall tracked memory usage on task 0     :          27.788 MB after allocating wave
  | Largest tracked array allocation on task 0 so far         :          23.639 MB  when allocating +KS_eigenvector_complex
  Note:  These values currently only include a subset of arrays which are explicitly tracked.
  The "true" memory usage will be greater.
------------------------------------------------------------

------------------------------------------------------------
          Begin self-consistency iteration #    6

  Date     :  20190513, Time     :  134730.764
------------------------------------------------------------
  Evaluating new KS density using the density matrix
  Evaluating density matrix
  Time summed over all CPUs for getting density from density matrix: real work        1.138 s, elapsed        1.138 s
  Integration grid: deviation in total charge (<rho> - N_e) =   1.207923E-13
  Pulay mixing of updated and previous charge densities.

  Evaluating partitioned Hartree potential by multipole expansion.
  | Analytical far-field extrapolation by fixed multipoles:
  | Hartree multipole sum: apparent total charge =   0.562111E-02
  Summing up the Hartree potential.
  Time summed over all CPUs for potential: real work        0.448 s, elapsed        0.448 s
  | RMS charge density error from multipole expansion :   0.124046E-01
  | Average real-space part of the electrostatic potential :      0.35634511 eV

  Integrating Hamiltonian matrix: batch-based integration.
  Time summed over all CPUs for integration: real work        0.683 s, elapsed        0.683 s

  Updating Kohn-Sham eigenvalues, eigenvectors, occupation numbers, and Fermi level.
  Solving generalized eigenproblem

  Obtaining occupation numbers and chemical potential using ELSI.
  | Chemical potential (Fermi level):    -5.82647007eV
  What follows are estimated values for band gap, HOMO, LUMO, etc.
  | They are estimated on a discrete k-point grid and not necessarily exact.
  | For converged numbers, create a DOS and/or band structure plot on a denser k-grid.

  Highest occupied state (VBM) at     -5.94789037 eV (relative to internal zero)
  | Occupation number:      2.00000000
  | K-point:       1 at    0.000000    0.000000    0.000000 (in units of recip. lattice)

  Lowest unoccupied state (CBM) at    -5.57832605 eV (relative to internal zero)
  | Occupation number:      0.00000000
  | K-point:     105 at    0.000000    0.562500    0.562500 (in units of recip. lattice)

  ESTIMATED overall HOMO-LUMO gap:      0.36956432 eV between HOMO at k-point 1 and LUMO at k-point 105
  | This appears to be an indirect band gap.
  | Smallest direct gap :      2.60031428 eV for k_point 1 at    0.000000    0.562500    0.562500 (in units of recip. lattice)
  The gap value is above 0.2 eV. Unless you are using a very sparse k-point grid,
  this system is most likely an insulator or a semiconductor.

  Total energy components:
  | Sum of eigenvalues            :        -327.64445814 Ha       -8915.65932965 eV
  | XC energy correction          :         -39.76847289 Ha       -1082.15520690 eV
  | XC potential correction       :          52.54011902 Ha        1429.68938020 eV
  | Free-atom electrostatic energy:        -263.09762940 Ha       -7159.25075475 eV
  | Hartree energy correction     :          -0.76437707 Ha         -20.79975844 eV
  | Entropy correction            :          -0.00000000 Ha          -0.00000000 eV
  | ---------------------------
  | Total energy                  :        -578.73481849 Ha      -15748.17566953 eV
  | Total energy, T -> 0          :        -578.73481849 Ha      -15748.17566953 eV  <-- do not rely on this value for anything but (periodic) metals
  | Electronic free energy        :        -578.73481849 Ha      -15748.17566953 eV

  Derived energy quantities:
  | Kinetic energy                :         579.94872819 Ha       15781.20783320 eV
  | Electrostatic energy          :       -1118.91507379 Ha      -30447.22829583 eV
  | Energy correction for multipole
  | error in Hartree potential    :           0.01672055 Ha           0.45498928 eV
  | Sum of eigenvalues per atom                           :       -4457.82966482 eV
  | Total energy (T->0) per atom                          :       -7874.08783477 eV  <-- do not rely on this value for anything but (periodic) metals
  | Electronic free energy per atom                       :       -7874.08783477 eV

  Self-consistency convergence accuracy:
  | Change of charge density      :  0.7600E-02
  | Change of sum of eigenvalues  : -0.1468E+00 eV
  | Change of total energy        :  0.1340E-03 eV

  End self-consistency iteration #     6       :  max(cpu_time)    wall_clock(cpu1)
  | Time for this iteration                    :        3.752 s           3.752 s
  | Charge density update                      :        1.323 s           1.323 s
  | Density mixing & preconditioning           :        0.044 s           0.044 s
  | Hartree multipole update                   :        0.001 s           0.000 s
  | Hartree multipole summation                :        0.452 s           0.452 s
  | Integration                                :        0.682 s           0.683 s
  | Solution of K.-S. eqns.                    :        1.249 s           1.249 s
  | Total energy evaluation                    :        0.001 s           0.001 s

  Partial memory accounting:
  | Current value for overall tracked memory usage on task 0  :          24.443 MB
  | Peak value for overall tracked memory usage on task 0     :          27.788 MB after allocating wave
  | Largest tracked array allocation on task 0 so far         :          23.639 MB  when allocating +KS_eigenvector_complex
  Note:  These values currently only include a subset of arrays which are explicitly tracked.
  The "true" memory usage will be greater.
------------------------------------------------------------

------------------------------------------------------------
          Begin self-consistency iteration #    7

  Date     :  20190513, Time     :  134734.516
------------------------------------------------------------
  Evaluating new KS density using the density matrix
  Evaluating density matrix
  Time summed over all CPUs for getting density from density matrix: real work        1.112 s, elapsed        1.113 s
  Integration grid: deviation in total charge (<rho> - N_e) =   2.131628E-14
  Pulay mixing of updated and previous charge densities.

  Evaluating partitioned Hartree potential by multipole expansion.
  | Analytical far-field extrapolation by fixed multipoles:
  | Hartree multipole sum: apparent total charge =   0.561872E-02
  Summing up the Hartree potential.
  Time summed over all CPUs for potential: real work        0.445 s, elapsed        0.445 s
  | RMS charge density error from multipole expansion :   0.123582E-01
  | Average real-space part of the electrostatic potential :      0.35095527 eV

  Integrating Hamiltonian matrix: batch-based integration.
  Time summed over all CPUs for integration: real work        0.681 s, elapsed        0.681 s

  Updating Kohn-Sham eigenvalues, eigenvectors, occupation numbers, and Fermi level.
  Solving generalized eigenproblem

  Obtaining occupation numbers and chemical potential using ELSI.
  | Chemical potential (Fermi level):    -5.83387248eV
  What follows are estimated values for band gap, HOMO, LUMO, etc.
  | They are estimated on a discrete k-point grid and not necessarily exact.
  | For converged numbers, create a DOS and/or band structure plot on a denser k-grid.

  Highest occupied state (VBM) at     -5.95446215 eV (relative to internal zero)
  | Occupation number:      2.00000000
  | K-point:       1 at    0.000000    0.000000    0.000000 (in units of recip. lattice)

  Lowest unoccupied state (CBM) at    -5.58023916 eV (relative to internal zero)
  | Occupation number:      0.00000000
  | K-point:     105 at    0.000000    0.562500    0.562500 (in units of recip. lattice)

  ESTIMATED overall HOMO-LUMO gap:      0.37422299 eV between HOMO at k-point 1 and LUMO at k-point 105
  | This appears to be an indirect band gap.
  | Smallest direct gap :      2.60322095 eV for k_point 1 at    0.000000    0.562500    0.562500 (in units of recip. lattice)
  The gap value is above 0.2 eV. Unless you are using a very sparse k-point grid,
  this system is most likely an insulator or a semiconductor.

  Total energy components:
  | Sum of eigenvalues            :        -327.67162763 Ha       -8916.39864908 eV
  | XC energy correction          :         -39.76572826 Ha       -1082.08052152 eV
  | XC potential correction       :          52.53648408 Ha        1429.59046857 eV
  | Free-atom electrostatic energy:        -263.09762940 Ha       -7159.25075475 eV
  | Hartree energy correction     :          -0.73629617 Ha         -20.03563816 eV
  | Entropy correction            :          -0.00000000 Ha          -0.00000000 eV
  | ---------------------------
  | Total energy                  :        -578.73479738 Ha      -15748.17509494 eV
  | Total energy, T -> 0          :        -578.73479738 Ha      -15748.17509494 eV  <-- do not rely on this value for anything but (periodic) metals
  | Electronic free energy        :        -578.73479738 Ha      -15748.17509494 eV

  Derived energy quantities:
  | Kinetic energy                :         579.91600935 Ha       15780.31750823 eV
  | Electrostatic energy          :       -1118.88507847 Ha      -30446.41208165 eV
  | Energy correction for multipole
  | error in Hartree potential    :           0.01661993 Ha           0.45225133 eV
  | Sum of eigenvalues per atom                           :       -4458.19932454 eV
  | Total energy (T->0) per atom                          :       -7874.08754747 eV  <-- do not rely on this value for anything but (periodic) metals
  | Electronic free energy per atom                       :       -7874.08754747 eV

  Self-consistency convergence accuracy:
  | Change of charge density      :  0.7301E-02
  | Change of sum of eigenvalues  : -0.7393E+00 eV
  | Change of total energy        :  0.5746E-03 eV

  End self-consistency iteration #     7       :  max(cpu_time)    wall_clock(cpu1)
  | Time for this iteration                    :        3.713 s           3.712 s
  | Charge density update                      :        1.276 s           1.276 s
  | Density mixing & preconditioning           :        0.047 s           0.046 s
  | Hartree multipole update                   :        0.001 s           0.001 s
  | Hartree multipole summation                :        0.448 s           0.449 s
  | Integration                                :        0.681 s           0.681 s
  | Solution of K.-S. eqns.                    :        1.259 s           1.259 s
  | Total energy evaluation                    :        0.000 s           0.000 s

  Partial memory accounting:
  | Current value for overall tracked memory usage on task 0  :          24.443 MB
  | Peak value for overall tracked memory usage on task 0     :          27.788 MB after allocating wave
  | Largest tracked array allocation on task 0 so far         :          23.639 MB  when allocating +KS_eigenvector_complex
  Note:  These values currently only include a subset of arrays which are explicitly tracked.
  The "true" memory usage will be greater.
------------------------------------------------------------

------------------------------------------------------------
          Begin self-consistency iteration #    8

  Date     :  20190513, Time     :  134738.229
------------------------------------------------------------
  Evaluating new KS density using the density matrix
  Evaluating density matrix
  Time summed over all CPUs for getting density from density matrix: real work        1.088 s, elapsed        1.088 s
  Integration grid: deviation in total charge (<rho> - N_e) =  -4.973799E-14
  Pulay mixing of updated and previous charge densities.

  Evaluating partitioned Hartree potential by multipole expansion.
  | Analytical far-field extrapolation by fixed multipoles:
  | Hartree multipole sum: apparent total charge =   0.582406E-02
  Summing up the Hartree potential.
  Time summed over all CPUs for potential: real work        0.443 s, elapsed        0.443 s
  | RMS charge density error from multipole expansion :   0.123091E-01
  | Average real-space part of the electrostatic potential :      0.34268096 eV

  Integrating Hamiltonian matrix: batch-based integration.
  Time summed over all CPUs for integration: real work        0.704 s, elapsed        0.704 s

  Updating Kohn-Sham eigenvalues, eigenvectors, occupation numbers, and Fermi level.
  Solving generalized eigenproblem

  Obtaining occupation numbers and chemical potential using ELSI.
  | Chemical potential (Fermi level):    -5.84400711eV
  What follows are estimated values for band gap, HOMO, LUMO, etc.
  | They are estimated on a discrete k-point grid and not necessarily exact.
  | For converged numbers, create a DOS and/or band structure plot on a denser k-grid.

  Highest occupied state (VBM) at     -5.96331384 eV (relative to internal zero)
  | Occupation number:      2.00000000
  | K-point:       1 at    0.000000    0.000000    0.000000 (in units of recip. lattice)

  Lowest unoccupied state (CBM) at    -5.58268710 eV (relative to internal zero)
  | Occupation number:      0.00000000
  | K-point:     105 at    0.000000    0.562500    0.562500 (in units of recip. lattice)

  ESTIMATED overall HOMO-LUMO gap:      0.38062674 eV between HOMO at k-point 1 and LUMO at k-point 105
  | This appears to be an indirect band gap.
  | Smallest direct gap :      2.60712107 eV for k_point 1 at    0.000000    0.562500    0.562500 (in units of recip. lattice)
  The gap value is above 0.2 eV. Unless you are using a very sparse k-point grid,
  this system is most likely an insulator or a semiconductor.

  Total energy components:
  | Sum of eigenvalues            :        -327.71076787 Ha       -8917.46370917 eV
  | XC energy correction          :         -39.76170880 Ha       -1081.97114666 eV
  | XC potential correction       :          52.53116133 Ha        1429.44562907 eV
  | Free-atom electrostatic energy:        -263.09762940 Ha       -7159.25075475 eV
  | Hartree energy correction     :          -0.69582785 Ha         -18.93443916 eV
  | Entropy correction            :          -0.00000000 Ha          -0.00000000 eV
  | ---------------------------
  | Total energy                  :        -578.73477260 Ha      -15748.17442067 eV
  | Total energy, T -> 0          :        -578.73477260 Ha      -15748.17442067 eV  <-- do not rely on this value for anything but (periodic) metals
  | Electronic free energy        :        -578.73477260 Ha      -15748.17442067 eV

  Derived energy quantities:
  | Kinetic energy                :         579.86735354 Ha       15778.99351606 eV
  | Electrostatic energy          :       -1118.84041733 Ha      -30445.19679008 eV
  | Energy correction for multipole
  | error in Hartree potential    :           0.01649959 Ha           0.44897670 eV
  | Sum of eigenvalues per atom                           :       -4458.73185458 eV
  | Total energy (T->0) per atom                          :       -7874.08721034 eV  <-- do not rely on this value for anything but (periodic) metals
  | Electronic free energy per atom                       :       -7874.08721034 eV

  Self-consistency convergence accuracy:
  | Change of charge density      :  0.5614E-02
  | Change of sum of eigenvalues  : -0.1065E+01 eV
  | Change of total energy        :  0.6743E-03 eV

  End self-consistency iteration #     8       :  max(cpu_time)    wall_clock(cpu1)
  | Time for this iteration                    :        3.712 s           3.711 s
  | Charge density update                      :        1.252 s           1.251 s
  | Density mixing & preconditioning           :        0.046 s           0.046 s
  | Hartree multipole update                   :        0.001 s           0.001 s
  | Hartree multipole summation                :        0.446 s           0.446 s
  | Integration                                :        0.704 s           0.704 s
  | Solution of K.-S. eqns.                    :        1.262 s           1.262 s
  | Total energy evaluation                    :        0.000 s           0.000 s

  Partial memory accounting:
  | Current value for overall tracked memory usage on task 0  :          24.444 MB
  | Peak value for overall tracked memory usage on task 0     :          27.788 MB after allocating wave
  | Largest tracked array allocation on task 0 so far         :          23.639 MB  when allocating +KS_eigenvector_complex
  Note:  These values currently only include a subset of arrays which are explicitly tracked.
  The "true" memory usage will be greater.
------------------------------------------------------------

------------------------------------------------------------
          Begin self-consistency iteration #    9

  Date     :  20190513, Time     :  134741.940
------------------------------------------------------------
  Evaluating new KS density using the density matrix
  Evaluating density matrix
  Time summed over all CPUs for getting density from density matrix: real work        1.128 s, elapsed        1.128 s
  Integration grid: deviation in total charge (<rho> - N_e) =   3.197442E-14
  Pulay mixing of updated and previous charge densities.

  Evaluating partitioned Hartree potential by multipole expansion.
  | Analytical far-field extrapolation by fixed multipoles:
  | Hartree multipole sum: apparent total charge =   0.584969E-02
  Summing up the Hartree potential.
  Time summed over all CPUs for potential: real work        0.437 s, elapsed        0.437 s
  | RMS charge density error from multipole expansion :   0.122905E-01
  | Average real-space part of the electrostatic potential :      0.34031564 eV

  Integrating Hamiltonian matrix: batch-based integration.
  Time summed over all CPUs for integration: real work        0.680 s, elapsed        0.680 s

  Updating Kohn-Sham eigenvalues, eigenvectors, occupation numbers, and Fermi level.
  Solving generalized eigenproblem

  Obtaining occupation numbers and chemical potential using ELSI.
  | Chemical potential (Fermi level):    -5.84708793eV
  What follows are estimated values for band gap, HOMO, LUMO, etc.
  | They are estimated on a discrete k-point grid and not necessarily exact.
  | For converged numbers, create a DOS and/or band structure plot on a denser k-grid.

  Highest occupied state (VBM) at     -5.96604598 eV (relative to internal zero)
  | Occupation number:      2.00000000
  | K-point:       1 at    0.000000    0.000000    0.000000 (in units of recip. lattice)

  Lowest unoccupied state (CBM) at    -5.58346645 eV (relative to internal zero)
  | Occupation number:      0.00000000
  | K-point:     105 at    0.000000    0.562500    0.562500 (in units of recip. lattice)

  ESTIMATED overall HOMO-LUMO gap:      0.38257953 eV between HOMO at k-point 1 and LUMO at k-point 105
  | This appears to be an indirect band gap.
  | Smallest direct gap :      2.60833325 eV for k_point 1 at    0.000000    0.562500    0.562500 (in units of recip. lattice)
  The gap value is above 0.2 eV. Unless you are using a very sparse k-point grid,
  this system is most likely an insulator or a semiconductor.

  Total energy components:
  | Sum of eigenvalues            :        -327.72221055 Ha       -8917.77508054 eV
  | XC energy correction          :         -39.76054312 Ha       -1081.93942687 eV
  | XC potential correction       :          52.52961759 Ha        1429.40362180 eV
  | Free-atom electrostatic energy:        -263.09762940 Ha       -7159.25075475 eV
  | Hartree energy correction     :          -0.68400136 Ha         -18.61262412 eV
  | Entropy correction            :          -0.00000000 Ha          -0.00000000 eV
  | ---------------------------
  | Total energy                  :        -578.73476686 Ha      -15748.17426448 eV
  | Total energy, T -> 0          :        -578.73476686 Ha      -15748.17426448 eV  <-- do not rely on this value for anything but (periodic) metals
  | Electronic free energy        :        -578.73476686 Ha      -15748.17426448 eV

  Derived energy quantities:
[...]
  | Total energy evaluation                    :        0.001 s           0.001 s

  Partial memory accounting:
  | Current value for overall tracked memory usage on task 0  :          24.444 MB
  | Peak value for overall tracked memory usage on task 0     :          27.788 MB after allocating wave
  | Largest tracked array allocation on task 0 so far         :          23.639 MB  when allocating +KS_eigenvector_complex
  Note:  These values currently only include a subset of arrays which are explicitly tracked.
  The "true" memory usage will be greater.
------------------------------------------------------------

------------------------------------------------------------
          Begin self-consistency iteration #   12

  Date     :  20190513, Time     :  134753.085
------------------------------------------------------------
  Evaluating new KS density using the density matrix
  Evaluating density matrix
  Time summed over all CPUs for getting density from density matrix: real work        1.119 s, elapsed        1.119 s
  Integration grid: deviation in total charge (<rho> - N_e) =   2.131628E-14
  Pulay mixing of updated and previous charge densities.

  Evaluating partitioned Hartree potential by multipole expansion.
  | Analytical far-field extrapolation by fixed multipoles:
  | Hartree multipole sum: apparent total charge =   0.582938E-02
  Summing up the Hartree potential.
  Time summed over all CPUs for potential: real work        0.439 s, elapsed        0.439 s
  | RMS charge density error from multipole expansion :   0.122409E-01
  | Average real-space part of the electrostatic potential :      0.33297194 eV

  Integrating Hamiltonian matrix: batch-based integration.
  Time summed over all CPUs for integration: real work        0.691 s, elapsed        0.691 s

  Updating Kohn-Sham eigenvalues, eigenvectors, occupation numbers, and Fermi level.
  Solving generalized eigenproblem

  Obtaining occupation numbers and chemical potential using ELSI.
  | Chemical potential (Fermi level):    -5.63875124eV
  What follows are estimated values for band gap, HOMO, LUMO, etc.
  | They are estimated on a discrete k-point grid and not necessarily exact.
  | For converged numbers, create a DOS and/or band structure plot on a denser k-grid.

  Highest occupied state (VBM) at     -5.97477161 eV (relative to internal zero)
  | Occupation number:      2.00000000
  | K-point:       1 at    0.000000    0.000000    0.000000 (in units of recip. lattice)

  Lowest unoccupied state (CBM) at    -5.58596766 eV (relative to internal zero)
  | Occupation number:      0.00000000
  | K-point:     105 at    0.000000    0.562500    0.562500 (in units of recip. lattice)

  ESTIMATED overall HOMO-LUMO gap:      0.38880395 eV between HOMO at k-point 1 and LUMO at k-point 105
  | This appears to be an indirect band gap.
  | Smallest direct gap :      2.61213550 eV for k_point 1 at    0.000000    0.562500    0.562500 (in units of recip. lattice)
  The gap value is above 0.2 eV. Unless you are using a very sparse k-point grid,
  this system is most likely an insulator or a semiconductor.

  Total energy components:
  | Sum of eigenvalues            :        -327.76044509 Ha       -8918.81549510 eV
  | XC energy correction          :         -39.75670148 Ha       -1081.83489030 eV
  | XC potential correction       :          52.52452883 Ha        1429.26514959 eV
  | Free-atom electrostatic energy:        -263.09762940 Ha       -7159.25075475 eV
  | Hartree energy correction     :          -0.64450454 Ha         -17.53786079 eV
  | Entropy correction            :          -0.00000000 Ha          -0.00000000 eV
  | ---------------------------
  | Total energy                  :        -578.73475168 Ha      -15748.17385135 eV
  | Total energy, T -> 0          :        -578.73475168 Ha      -15748.17385135 eV  <-- do not rely on this value for anything but (periodic) metals
  | Electronic free energy        :        -578.73475168 Ha      -15748.17385135 eV

  Derived energy quantities:
  | Kinetic energy                :         579.80594016 Ha       15777.32237311 eV
  | Electrostatic energy          :       -1118.78399036 Ha      -30443.66133416 eV
  | Energy correction for multipole
  | error in Hartree potential    :           0.01633733 Ha           0.44456137 eV
  | Sum of eigenvalues per atom                           :       -4459.40774755 eV
  | Total energy (T->0) per atom                          :       -7874.08692567 eV  <-- do not rely on this value for anything but (periodic) metals
  | Electronic free energy per atom                       :       -7874.08692567 eV

  Self-consistency convergence accuracy:
  | Change of charge density      :  0.1009E-05
  | Change of sum of eigenvalues  : -0.2981E-03 eV
  | Change of total energy        : -0.7938E-07 eV

  End self-consistency iteration #    12       :  max(cpu_time)    wall_clock(cpu1)
  | Time for this iteration                    :        3.758 s           3.758 s
  | Charge density update                      :        1.287 s           1.287 s
  | Density mixing & preconditioning           :        0.048 s           0.047 s
  | Hartree multipole update                   :        0.001 s           0.001 s
  | Hartree multipole summation                :        0.443 s           0.443 s
  | Integration                                :        0.691 s           0.691 s
  | Solution of K.-S. eqns.                    :        1.288 s           1.288 s
  | Total energy evaluation                    :        0.001 s           0.001 s

  Partial memory accounting:
  | Current value for overall tracked memory usage on task 0  :          24.444 MB
  | Peak value for overall tracked memory usage on task 0     :          27.788 MB after allocating wave
  | Largest tracked array allocation on task 0 so far         :          23.639 MB  when allocating +KS_eigenvector_complex
  Note:  These values currently only include a subset of arrays which are explicitly tracked.
  The "true" memory usage will be greater.
------------------------------------------------------------

------------------------------------------------------------
          Begin self-consistency iteration #   13

  Date     :  20190513, Time     :  134756.843
------------------------------------------------------------
  Evaluating new KS density using the density matrix
  Evaluating density matrix
  Time summed over all CPUs for getting density from density matrix: real work        1.121 s, elapsed        1.121 s
  Integration grid: deviation in total charge (<rho> - N_e) =  -6.394885E-14
  Pulay mixing of updated and previous charge densities.

  Evaluating partitioned Hartree potential by multipole expansion.
  | Analytical far-field extrapolation by fixed multipoles:
  | Hartree multipole sum: apparent total charge =   0.582940E-02
  Summing up the Hartree potential.
  Time summed over all CPUs for potential: real work        0.462 s, elapsed        0.462 s
  | RMS charge density error from multipole expansion :   0.122409E-01
  | Average real-space part of the electrostatic potential :      0.33297195 eV

  Integrating Hamiltonian matrix: batch-based integration.
  Time summed over all CPUs for integration: real work        0.669 s, elapsed        0.669 s

  Updating Kohn-Sham eigenvalues, eigenvectors, occupation numbers, and Fermi level.
  Solving generalized eigenproblem

  Obtaining occupation numbers and chemical potential using ELSI.
  | Chemical potential (Fermi level):    -5.63875112eV
  What follows are estimated values for band gap, HOMO, LUMO, etc.
  | They are estimated on a discrete k-point grid and not necessarily exact.
  | For converged numbers, create a DOS and/or band structure plot on a denser k-grid.

  Highest occupied state (VBM) at     -5.97477151 eV (relative to internal zero)
  | Occupation number:      2.00000000
  | K-point:       1 at    0.000000    0.000000    0.000000 (in units of recip. lattice)

  Lowest unoccupied state (CBM) at    -5.58596761 eV (relative to internal zero)
  | Occupation number:      0.00000000
  | K-point:     105 at    0.000000    0.562500    0.562500 (in units of recip. lattice)

  ESTIMATED overall HOMO-LUMO gap:      0.38880390 eV between HOMO at k-point 1 and LUMO at k-point 105
  | This appears to be an indirect band gap.
  | Smallest direct gap :      2.61213545 eV for k_point 1 at    0.000000    0.562500    0.562500 (in units of recip. lattice)
  The gap value is above 0.2 eV. Unless you are using a very sparse k-point grid,
  this system is most likely an insulator or a semiconductor.

  Total energy components:
  | Sum of eigenvalues            :        -327.76044453 Ha       -8918.81548009 eV
  | XC energy correction          :         -39.75670154 Ha       -1081.83489197 eV
  | XC potential correction       :          52.52452891 Ha        1429.26515181 eV
  | Free-atom electrostatic energy:        -263.09762940 Ha       -7159.25075475 eV
  | Hartree energy correction     :          -0.64450511 Ha         -17.53787635 eV
  | Entropy correction            :          -0.00000000 Ha          -0.00000000 eV
  | ---------------------------
  | Total energy                  :        -578.73475168 Ha      -15748.17385135 eV
  | Total energy, T -> 0          :        -578.73475168 Ha      -15748.17385135 eV  <-- do not rely on this value for anything but (periodic) metals
  | Electronic free energy        :        -578.73475168 Ha      -15748.17385135 eV

  Derived energy quantities:
  | Kinetic energy                :         579.80594086 Ha       15777.32239219 eV
  | Electrostatic energy          :       -1118.78399100 Ha      -30443.66135157 eV
  | Energy correction for multipole
  | error in Hartree potential    :           0.01633734 Ha           0.44456152 eV
  | Sum of eigenvalues per atom                           :       -4459.40774004 eV
  | Total energy (T->0) per atom                          :       -7874.08692567 eV  <-- do not rely on this value for anything but (periodic) metals
  | Electronic free energy per atom                       :       -7874.08692567 eV

  Self-consistency convergence accuracy:
  | Change of charge density      :  0.2731E-07
  | Change of sum of eigenvalues  :  0.1502E-04 eV
  | Change of total energy        : -0.8043E-10 eV

  Preliminary charge convergence reached. Turning off preconditioner.

  Writing Kohn-Sham eigenvalues.
  K-point:       1 at    0.000000    0.000000    0.000000 (in units of recip. lattice)

  State    Occupation    Eigenvalue [Ha]    Eigenvalue [eV]
      1       2.00000         -65.486101        -1781.96748
      2       2.00000         -65.486101        -1781.96748
      3       2.00000          -5.096896         -138.69359
      4       2.00000          -5.096470         -138.68199
      5       2.00000          -3.510152          -95.51610
      6       2.00000          -3.510152          -95.51610
      7       2.00000          -3.510152          -95.51610
      8       2.00000          -3.509303          -95.49301
      9       2.00000          -3.509303          -95.49301
     10       2.00000          -3.509303          -95.49301
     11       2.00000          -0.678151          -18.45344
     12       2.00000          -0.219569           -5.97477
     13       2.00000          -0.219569           -5.97477
     14       2.00000          -0.219569           -5.97477
     15       0.00000          -0.123575           -3.36264
     16       0.00000          -0.123575           -3.36264
     17       0.00000          -0.123575           -3.36264
     18       0.00000          -0.064186           -1.74658
     19       0.00000           0.070740            1.92493
     20       0.00000           0.070740            1.92493

  What follows are estimated values for band gap, HOMO, LUMO, etc.
  | They are estimated on a discrete k-point grid and not necessarily exact.
  | For converged numbers, create a DOS and/or band structure plot on a denser k-grid.

  Highest occupied state (VBM) at     -5.97477151 eV (relative to internal zero)
  | Occupation number:      2.00000000
  | K-point:       1 at    0.000000    0.000000    0.000000 (in units of recip. lattice)

  Lowest unoccupied state (CBM) at    -5.58596761 eV (relative to internal zero)
  | Occupation number:      0.00000000
  | K-point:     105 at    0.000000    0.562500    0.562500 (in units of recip. lattice)

  ESTIMATED overall HOMO-LUMO gap:      0.38880390 eV between HOMO at k-point 1 and LUMO at k-point 105
  | This appears to be an indirect band gap.
  | Smallest direct gap :      2.61213545 eV for k_point 1 at    0.000000    0.562500    0.562500 (in units of recip. lattice)
  The gap value is above 0.2 eV. Unless you are using a very sparse k-point grid,
  this system is most likely an insulator or a semiconductor.

  Self-consistency cycle converged.

  End self-consistency iteration #    13       :  max(cpu_time)    wall_clock(cpu1)
  | Time for this iteration                    :        3.732 s           3.732 s
  | Charge density update                      :        1.291 s           1.291 s
  | Density mixing                             :        0.057 s           0.056 s
  | Hartree multipole update                   :        0.001 s           0.001 s
  | Hartree multipole summation                :        0.467 s           0.467 s
  | Integration                                :        0.669 s           0.669 s
  | Solution of K.-S. eqns.                    :        1.247 s           1.247 s
  | Total energy evaluation                    :        0.000 s           0.001 s

  Partial memory accounting:
  | Current value for overall tracked memory usage on task 0  :          24.444 MB
  | Peak value for overall tracked memory usage on task 0     :          27.788 MB after allocating wave
  | Largest tracked array allocation on task 0 so far         :          23.639 MB  when allocating +KS_eigenvector_complex
  Note:  These values currently only include a subset of arrays which are explicitly tracked.
  The "true" memory usage will be greater.
------------------------------------------------------------

  Energy and forces in a compact form:
  | Total energy uncorrected      :         -0.157481738513474E+05 eV
  | Total energy corrected        :         -0.157481738513474E+05 eV  <-- do not rely on this value for anything but (periodic) metals
  | Electronic free energy        :         -0.157481738513474E+05 eV

  ------------------------------------ 
  Start decomposition of the XC Energy 
  ------------------------------------ 
  X and C from original XC functional choice 
  Hartree-Fock Energy :          0.000000000 Ha              0.000000000 eV
  X Energy            :        -37.607931004 Ha          -1023.363870805 eV
  C Energy            :         -2.148770532 Ha            -58.471021161 eV
  Total XC Energy     :        -39.756701537 Ha          -1081.834891966 eV
  ------------------------------------ 
  LDA X and C from self-consistent density 
  X Energy LDA        :        -37.607931004 Ha          -1023.363870805 eV
  C Energy LDA        :         -2.148770532 Ha            -58.471021161 eV
  ------------------------------------ 
  End decomposition of the XC Energy 
  ------------------------------------ 

------------------------------------------------------------

------------------------------------------------------------------------------
  Final output of selected total energy values:

  The following output summarizes some interesting total energy values
  at the end of a run (AFTER all relaxation, molecular dynamics, etc.).

  | Total energy of the DFT / Hartree-Fock s.c.f. calculation      :         -15748.173851347 eV
  | Final zero-broadening corrected energy (caution - metals only) :         -15748.173851347 eV
  | For reference only, the value of 1 Hartree used in FHI-aims is :             27.211384500 eV

  Before relying on these values, please be sure to understand exactly which
  total energy value is referred to by a given number. Different objects may
  all carry the same name 'total energy'. Definitions:

  Total energy of the DFT / Hartree-Fock s.c.f. calculation:
  | Note that this energy does not include ANY quantities calculated after the
  | s.c.f. cycle, in particular not ANY RPA, MP2, etc. many-body perturbation terms.

  Final zero-broadening corrected energy:
  | For metallic systems only, a broadening of the occupation numbers at the Fermi
  | level can be extrapolated back to zero broadening by an electron-gas inspired
  | formula. For all systems that are not real metals, this value can be
  | meaningless and should be avoided.

------------------------------------------------------------------------------
  Methods described in the following list of references were used in this FHI-aims run.
  If you publish the results, please make sure to cite these reference if they apply.
  FHI-aims is an academic code, and for our developers (often, Ph.D. students
  and postdocs), scientific credit in the community is essential.
  Thank you for helping us!

  For any use of FHI-aims, please cite:

    Volker Blum, Ralf Gehrke, Felix Hanke, Paula Havu, Ville Havu,
    Xinguo Ren, Karsten Reuter, and Matthias Scheffler
    'Ab initio molecular simulations with numeric atom-centered orbitals'
    Computer Physics Communications 180, 2175-2196 (2009)
    http://dx.doi.org/10.1016/j.cpc.2009.06.022


  For the real-space grid partitioning and parallelization used in this calculation, please cite:

    Ville Havu, Volker Blum, Paula Havu, and Matthias Scheffler,
    'Efficient O(N) integration for all-electron electronic structure calculation'
    'using numerically tabulated basis functions'
    Journal of Computational Physics 228, 8367-8379 (2009).
    http://dx.doi.org/10.1016/j.jcp.2009.08.008

  Of course, there are many other important community references, e.g., those cited in the
  above references. Our list is limited to references that describe implementations in the
  FHI-aims code. The reason is purely practical (length of this list) - please credit others as well.

------------------------------------------------------------
          Leaving FHI-aims.
          Date     :  20190513, Time     :  134800.583

          Computational steps:
          | Number of self-consistency cycles          :           13
          | Number of SCF (re)initializations          :            1

          Detailed time accounting                     :  max(cpu_time)    wall_clock(cpu1)
          | Total time                                 :       52.965 s          52.972 s
          | Preparation time                           :        0.115 s           0.115 s
          | Boundary condition initalization           :        0.055 s           0.055 s
          | Grid partitioning                          :        0.036 s           0.036 s
          | Preloading free-atom quantities on grid    :        0.001 s           0.000 s
          | Free-atom superposition energy             :        0.031 s           0.031 s
          | Total time for integrations                :       10.335 s          10.336 s
          | Total time for solution of K.-S. equations :       18.917 s          18.920 s
          | Total time for density update              :       16.840 s          16.842 s
          | Total time for mixing & preconditioning    :        0.615 s           0.613 s
          | Total time for Hartree multipole update    :        0.010 s           0.010 s
          | Total time for Hartree multipole sum       :        5.809 s           5.811 s
          | Total time for total energy evaluation     :        0.007 s           0.009 s
          | Total time for scaled ZORA corrections     :        0.000 s           0.000 s

 This is a stub MPI_ALLREDUCE call.
 You should not be here. Check your
 setting on the use_mpi variable, or
 link against true MPI-libraries.
