------------------------------------------------------------
          Invoking FHI-aims ...
          Version 171221_1
          Compiled on 2019/05/06 at 14:26:40 on host ffph0xx.

          When using FHI-aims, please cite the following reference:

          Volker Blum, Ralf Gehrke, Felix Hanke, Paula Havu,
          Ville Havu, Xinguo Ren, Karsten Reuter, and Matthias Scheffler,
          'Ab Initio Molecular Simulations with Numeric Atom-Centered Orbitals',
          Computer Physics Communications 180, 2175-2196 (2009)

          For any questions about FHI-aims, please visit the aimsclub website
          with its forums and wiki. Contributions to both the forums and the
          wiki are warmly encouraged - they are for you, and everyone is welcome there.

------------------------------------------------------------



  Date     :  20190509, Time     :  114705.910
  Time zero on CPU 1             :   0.653000000000000E-03  s.
  Internal wall clock time zero  :           326634425.910  s.

  FHI-aims created a unique identifier for this run for later identification
  aims_uuid : A794EE1B-972E-4920-A9AB-F4592B6AE816


  Performing system and environment tests:
  *** Environment variable OMP_NUM_THREADS is not set
  *** For performance reasons you might want to set it to 1
  | Stacksize not measured: no C compiler

  Obtaining array dimensions for all initial allocations:
  
  -----------------------------------------------------------------------
  Parsing control.in (first pass over file, find array dimensions only).
  The contents of control.in will be repeated verbatim below
  unless switched off by setting 'verbatim_writeout .false.' .
  in the first line of control.in .
  -----------------------------------------------------------------------
  
  # Sample input file for the relaxation
  # of the H3O+ molecule
  #######################################
    xc  pw-lda
    charge 1.0
    spin none
  
  #######Iteration limit####################
    sc_iter_limit 100
  
  #######Relaxation######################
    #######relax_geometry trm 1E-3
  
  #######Species#########################
  ################################################################################
  #
  #  FHI-aims code project
  #  VB, Fritz-Haber Institut, 2009
  #
  #  Suggested "light" defaults for H atom (to be pasted into control.in file)
  #  Be sure to double-check any results obtained with these settings for post-processing,
  #  e.g., with the "tight" defaults and larger basis sets.
  #
  ################################################################################
    species        H
  #     global species definitions
      nucleus             1
      mass                1.00794
  #
      l_hartree           4
  #
      cut_pot             3.5  1.5  1.0
      basis_dep_cutoff    1e-4
  #
      radial_base         24 5.0
      radial_multiplier   1
      angular_grids       specified
        division   0.2421   50
        division   0.3822  110
        division   0.4799  194
        division   0.5341  302
  #      division   0.5626  434
  #      division   0.5922  590
  #      division   0.6542  770
  #      division   0.6868 1202
  #      outer_grid  770
        outer_grid  302
  ################################################################################
  #
  #  Definition of "minimal" basis
  #
  ################################################################################
  #     valence basis states
      valence      1  s   1.
  #     ion occupancy
      ion_occ      1  s   0.5
  ################################################################################
  #
  #  Suggested additional basis functions. For production calculations,
  #  uncomment them one after another (the most important basis functions are
  #  listed first).
  #
  #  Basis constructed for dimers: 0.5 A, 0.7 A, 1.0 A, 1.5 A, 2.5 A
  #
  ################################################################################
  #  "First tier" - improvements: -1014.90 meV to -62.69 meV
       hydro 2 s 2.1
       hydro 2 p 3.5
  #  "Second tier" - improvements: -12.89 meV to -1.83 meV
  #     hydro 1 s 0.85
  #     hydro 2 p 3.7
  #     hydro 2 s 1.2
  #     hydro 3 d 7
  #  "Third tier" - improvements: -0.25 meV to -0.12 meV
  #     hydro 4 f 11.2
  #     hydro 3 p 4.8
  #     hydro 4 d 9
  #     hydro 3 s 3.2
  ################################################################################
  #
  #  FHI-aims code project
  #  VB, Fritz-Haber Institut, 2009
  #
  #  Suggested "light" defaults for O atom (to be pasted into control.in file)
  #  Be sure to double-check any results obtained with these settings for post-processing,
  #  e.g., with the "tight" defaults and larger basis sets.
  #
  ################################################################################
    species        O
  #     global species definitions
      nucleus             8
      mass                15.9994
  #
      l_hartree           4
  #
      cut_pot             3.5  1.5  1.0
      basis_dep_cutoff    1e-4
  #
      radial_base         36 5.0
      radial_multiplier   1
       angular_grids specified
        division   0.2659   50
        division   0.4451  110
        division   0.6052  194
        division   0.7543  302
  #      division   0.8014  434
  #      division   0.8507  590
  #      division   0.8762  770
  #      division   0.9023  974
  #      division   1.2339 1202
  #      outer_grid 974
        outer_grid 302
  ################################################################################
  #
  #  Definition of "minimal" basis
  #
  ################################################################################
  #     valence basis states
      valence      2  s   2.
      valence      2  p   4.
  #     ion occupancy
      ion_occ      2  s   1.
      ion_occ      2  p   3.
  ################################################################################
  #
  #  Suggested additional basis functions. For production calculations,
  #  uncomment them one after another (the most important basis functions are
  #  listed first).
  #
  #  Constructed for dimers: 1.0 A, 1.208 A, 1.5 A, 2.0 A, 3.0 A
  #
  ################################################################################
  #  "First tier" - improvements: -699.05 meV to -159.38 meV
       hydro 2 p 1.8
       hydro 3 d 7.6
       hydro 3 s 6.4
  #  "Second tier" - improvements: -49.91 meV to -5.39 meV
  #     hydro 4 f 11.6
  #     hydro 3 p 6.2
  #     hydro 3 d 5.6
  #     hydro 5 g 17.6
  #     hydro 1 s 0.75
  #  "Third tier" - improvements: -2.83 meV to -0.50 meV
  #     ionic 2 p auto
  #     hydro 4 f 10.8
  #     hydro 4 d 4.7
  #     hydro 2 s 6.8
  #  "Fourth tier" - improvements: -0.40 meV to -0.12 meV
  #     hydro 3 p 5
  #     hydro 3 s 3.3
  #     hydro 5 g 15.6
  #     hydro 4 f 17.6
  #     hydro 4 d 14
  # Further basis functions - -0.08 meV and below
  #     hydro 3 s 2.1
  #     hydro 4 d 11.6
  #     hydro 3 p 16
  #     hydro 2 s 17.2
  /afs/ictp.it/public/shared/smr2475/fhi-aims/species_defaults/light/01_H_default
  compute_forces .true.
  final_forces_cleaned .true.
  output dipole
  
  -----------------------------------------------------------------------
  Completed first pass over input file control.in .
  -----------------------------------------------------------------------
  
  
  -----------------------------------------------------------------------
  Parsing geometry.in (first pass over file, find array dimensions only).
  The contents of geometry.in will be repeated verbatim below
  unless switched off by setting 'verbatim_writeout .false.' .
  in the first line of geometry.in .
  -----------------------------------------------------------------------
  
  #
  # temporary structure-file for finite-difference calculation of forces
  # displacement  -0.0020 of \# atom     1 direction     0
  #
  atom    0.00000000    0.00001836    0.19077151   O
  atom    0.82225584   -0.47587261    0.47423563   H
  atom   -0.82425584   -0.47587261    0.47423563   H
  atom   -0.00000000    0.95172688    0.47446636   H
  
  -----------------------------------------------------------------------
  Completed first pass over input file geometry.in .
  -----------------------------------------------------------------------
  

  Basic array size parameters:
  | Number of species                 :        2
  | Number of atoms                   :        4
  | Max. basis fn. angular momentum   :        2
  | Max. atomic/ionic basis occupied n:        2
  | Max. number of basis fn. types    :        2
  | Max. radial fns per species/type  :        3
  | Max. logarithmic grid size        :     1301
  | Max. radial integration grid size :       36
  | Max. angular integration grid size:      302
  | Max. angular grid division number :        8
  | Radial grid for Hartree potential :     1301
  | Number of spin channels           :        1

------------------------------------------------------------
          Reading file control.in.
------------------------------------------------------------
  XC: Using Perdew-Wang parametrisation of Ceperley-Alder LDA.
  Charged system requested: Charge =   0.100000E+01.
  Spin treatment: No spin polarisation.
  Maximum number of s.-c. iterations  :   100

  Reading configuration options for species H                   .
  | Found nuclear charge :   1.0000
  | Found atomic mass :    1.0079400000000001      amu
  | Found l_max for Hartree potential  :   4
  | Found cutoff potl. onset [A], width [A], scale factor :    3.50000    1.50000    1.00000
  | Threshold for basis-dependent cutoff potential is   0.100000E-03
  | Found data for basic radial integration grid :    24 points, outermost radius =    5.000 A
  | Found multiplier for basic radial grid :   1
  | Found angular grid specification: user-specified.
  | Specified grid contains     5 separate shells.
  | Check grid settings after all constraints further below.
  | Found free-atom valence shell :  1 s   1.000
  | No ionic wave fns used. Skipping ion_occ.
  | Found hydrogenic basis function :  2 s   2.100
  | Found hydrogenic basis function :  2 p   3.500
  Species H                   : Missing cutoff potential type.
  Defaulting to exp(1/x)/(1-x)^2 type cutoff potential.
  Species H : No 'logarithmic' tag. Using default grid for free atom:
  | Default logarithmic grid data [bohr] : 0.1000E-03 0.1000E+03 0.1012E+01
  Species H : On-site basis accuracy parameter (for Gram-Schmidt orthonormalisation) not specified.
  Using default value basis_acc =  0.1000000E-03.
  Species H                   : Using default innermost maximum threshold i_radial=  2 for radial functions.
  Species H                   : Default cutoff onset for free atom density etc. : 0.35000000E+01 AA.
  Species H                   : Basic radial grid will be enhanced according to radial_multiplier =   1, to contain    24 grid points.

  Reading configuration options for species O                   .
  | Found nuclear charge :   8.0000
  | Found atomic mass :    15.999400000000000      amu
  | Found l_max for Hartree potential  :   4
  | Found cutoff potl. onset [A], width [A], scale factor :    3.50000    1.50000    1.00000
  | Threshold for basis-dependent cutoff potential is   0.100000E-03
  | Found data for basic radial integration grid :    36 points, outermost radius =    5.000 A
  | Found multiplier for basic radial grid :   1
  | Found angular grid specification: user-specified.
  | Specified grid contains     5 separate shells.
  | Check grid settings after all constraints further below.
  | Found free-atom valence shell :  2 s   2.000
  | Found free-atom valence shell :  2 p   4.000
  | No ionic wave fns used. Skipping ion_occ.
  | No ionic wave fns used. Skipping ion_occ.
  | Found hydrogenic basis function :  2 p   1.800
  | Found hydrogenic basis function :  3 d   7.600
  | Found hydrogenic basis function :  3 s   6.400
  Species O                   : Missing cutoff potential type.
  Defaulting to exp(1/x)/(1-x)^2 type cutoff potential.
  Species O : No 'logarithmic' tag. Using default grid for free atom:
  | Default logarithmic grid data [bohr] : 0.1000E-03 0.1000E+03 0.1012E+01
  Species O : On-site basis accuracy parameter (for Gram-Schmidt orthonormalisation) not specified.
  Using default value basis_acc =  0.1000000E-03.
  Species O                   : Using default innermost maximum threshold i_radial=  2 for radial functions.
  Species O                   : Default cutoff onset for free atom density etc. : 0.35000000E+01 AA.
  Species O                   : Basic radial grid will be enhanced according to radial_multiplier =   1, to contain    36 grid points.
  Forces will be computed.
  Cleaning forces before final output.
  Dipole moment will be written out.

  Finished reading input file 'control.in'. Consistency checks are next.

  MPI_IN_PLACE appears to work with this MPI implementation.
  | Keeping use_mpi_in_place .true. (see manual).
  Target number of points in a grid batch is not set. Defaulting to  100
  Method for grid partitioning is not set. Defaulting to 'maxmin' partitioning.
  Batch size limit is not set. Defaulting to    200
  By default, will store active basis functions for each batch.
  If in need of memory, prune_basis_once .false. can be used to disable this option.
  communication_type for Hartree potential was not specified.
  Defaulting to calc_hartree .
 * Attention: 
 * You may want to set distributed_spline_storage to .true. in order to save memory.
 * This doesn't harm performance and is perfectly ok unless:
 * - you get error messages in postprocessing (about missing atoms in get_rho_multipole_spl)
 * - you need full spline storage in hirshfeld_analysis
  Defaulting to Pulay charge density mixer.
  Pulay mixer: Number of relevant iterations not set.
  Defaulting to    8 iterations.
  Pulay mixer: Number of initial linear mixing iterations not set.
  Defaulting to    0 iterations.
  Work space size for distributed Hartree potential not set.
  Defaulting to   0.200000E+03 MB.
  Mixing parameter for charge density mixing has not been set.
  Using default: charge_mix_param =     0.0500.
  The mixing parameter will be adjusted in iteration number     2 of the first full s.c.f. cycle only.
  Algorithm-dependent basis array size parameters:
  | n_max_pulay                         :        8
 * Notice: The s.c.f. convergence criterion sc_accuracy_rho was not provided.
 * We used to stop in this case, and ask the user to provide reasonable
 * scf convergence criteria. However, this led some users to employ criteria
 * that led to extremely long run times, e.g., for simple relaxation.
 * We now preset a default value for sc_accuracy_rho if it is not set.
 * You may still wish to check if this setting is too tight or too loose for your needs.
 * Based on n_atoms, FHI-aims chose sc_accuracy_rho =  0.100000E-05 .
  Presetting      1001 iterations before the initial mixing cycle
  is restarted anyway using the sc_init_iter criterion / keyword.
  Presetting a factor      1.000 between actual scf density residual
  and density convergence criterion sc_accuracy_rho below which sc_init_iter
  takes no effect.
 * No s.c.f. convergence criteria (sc_accuracy_*) were provided in control.in.
 * The run will proceed with a reasonable default guess, but please check whether.
 * the s.c.f. cycles seem to take too much or too little time.
  Geometry relaxation not requested: no relaxation will be performed.
  Force calculation: scf convergence accuracy of forces not set.
  Defaulting to 'sc_accuracy_forces not_checked'.
  Handling of forces: Unphysical translation and rotation will be removed from forces.
  No accuracy limit for integral partition fn. given. Defaulting to  0.1000E-14.
  No threshold value for u(r) in integrations given. Defaulting to  0.1000E-05.
  No occupation type (smearing scheme) given. Defaulting to Gaussian broadening, width =  0.1000E-01 eV.
  The width will be adjusted in iteration number     2 of the first full s.c.f. cycle only.
  S.C.F. convergence parameters will be adjusted in iteration number     2 of the first full s.c.f. cycle only.
  No accuracy for occupation numbers given. Defaulting to  0.1000E-12.
  No threshold value for occupation numbers given. Defaulting to  0.0000E+00.
  No accuracy for fermi level given. Defaulting to  0.1000E-19.
  Maximum # of iterations to find E_F not set. Defaulting to  200.
  Preferred method for the eigenvalue solver ('KS_method') not specified in 'control.in'.
  Defaulting to serial version, 'lapack_fast'.
  Will not use alltoall communication since running on < 1024 CPUs.
  Threshold for basis singularities not set.
  Default threshold for basis singularities:  0.1000E-04
  partition_type (choice of integration weights) for integrals was not specified.
  | Using a version of the partition function of Stratmann and coworkers ('stratmann_smoother').
  | At each grid point, the set of atoms used to build the partition table is smoothly restricted to
  | only those atoms whose free-atom density would be non-zero at that grid point.
  Partitioning for Hartree potential was not defined. Using partition_type for integrals.
  | Adjusted default value of keyword multip_moments_threshold to:       0.10000000E-11
  | This value may affect high angular momentum components of the Hartree potential in periodic systems.
  No q(lm)/r^(l+1) cutoff set for long-range Hartree potential.
  | Using default value of  0.100000E-09 .
  | Verify using the multipole_threshold keyword.
  Defaulting to new monopole extrapolation.
  Density update method: automatic selection selected.
------------------------------------------------------------


------------------------------------------------------------
          Reading geometry description geometry.in.
------------------------------------------------------------
 * Warning: Initial charge and total charge of the system are inconsistent.
 * Selected charge in control.in:     1.0000* Sum of initial charges in geometry.in:     0.0000
 * Warning! You did not set the 'relativistic' flag in input file 'control.in'.
 * Since you are not attempting to treat any elements beyond Ca(Z=20), FHI-aims
 * will default to 'relativistic none'.
 * You must ensure that this is really what you want!!
 * For example, DO NOT compute total-energy differences between results from
 * different settings of the 'relativistic' flag.
  Input structure read successfully.
  The structure contains        4 atoms,  and a total of         10.000 electrons.

  Input geometry:
  | No unit cell requested.
  | Atomic structure:
  |       Atom                x [A]            y [A]            z [A]
  |    1: Species O             0.00000000        0.00001836        0.19077151
  |    2: Species H             0.82225584       -0.47587261        0.47423563
  |    3: Species H            -0.82425584       -0.47587261        0.47423563
  |    4: Species H            -0.00000000        0.95172688        0.47446636
  |

  | The smallest distance between any two atoms is         0.99142765 AA.
  |
  | The first atom of this pair is atom number                      1 .
  | The second atom of this pair is atom number                     2 .

  Number of empty states per atom not set in control.in - providing a guess from actual geometry.
  | Total number of empty states used during s.c.f. cycle:        8
  If you use a very high smearing, use empty_states (per atom!) in control.in to increase this value.

  Structure-dependent array size parameters: 
  | Maximum number of distinct radial functions  :        9
  | Maximum number of basis functions            :       29
  | Number of Kohn-Sham states (occupied + empty):       13
------------------------------------------------------------

------------------------------------------------------------
          Preparing all fixed parts of the calculation.
------------------------------------------------------------
  Determining machine precision:
     2.2250738585072014E-308
  Setting up grids for atomic and cluster calculations.

  Creating wave function, potential, and density for free atoms.

  Species: H

  List of occupied orbitals and eigenvalues:
    n    l              occ      energy [Ha]    energy [eV]
    1    0           1.0000        -0.232375        -6.3233


  Species: O

  List of occupied orbitals and eigenvalues:
    n    l              occ      energy [Ha]    energy [eV]
    1    0           2.0000       -18.757744      -510.4242
    2    0           2.0000        -0.870917       -23.6989
    2    1           4.0000        -0.337950        -9.1961

  Creating fixed part of basis set: Ionic, confined, hydrogenic.

  H                    hydrogenic:

  List of hydrogenic basis orbitals: 
    n    l      effective z      eigenvalue [eV]  inner max. [A]     outer max. [A]     outer radius [A]   
    2    0         2.100000       -14.9728           0.193243           1.317208           4.583499
    2    1         3.500000       -41.6669           0.602369           0.602369           3.723403


  O                    hydrogenic:

  List of hydrogenic basis orbitals: 
    n    l      effective z      eigenvalue [eV]  inner max. [A]     outer max. [A]     outer radius [A]   
    2    1         1.800000       -10.9749           1.164242           1.164242           4.578029
    3    2         7.600000       -87.3180           0.624125           0.624125           3.251020
    3    0         6.400000       -61.9207           0.061167           1.081902           4.001998


  Adding cutoff potential to free-atom effective potential.
  Creating atomic-like basis functions for current effective potential.

  Species H                   :

  List of atomic basis orbitals and eigenvalues:
    n    l      energy [Ha]    energy [eV]    outer radius [A]
    1    0        -0.232375        -6.3233       4.527807


  Species O                   :

  List of atomic basis orbitals and eigenvalues:
    n    l      energy [Ha]    energy [eV]    outer radius [A]
    1    0       -18.757744      -510.4242       1.433179
    2    0        -0.870917       -23.6989       4.413171
    2    1        -0.337950        -9.1961       4.522403

  Assembling full basis from fixed parts.
  | Species H :   atomic orbital   1 s accepted.
  | Species H :    hydro orbital   2 s accepted.
  | Species H :    hydro orbital   2 p accepted.
  | Species O :   atomic orbital   1 s accepted.
  | Species O :    hydro orbital   3 s accepted.
  | Species O :   atomic orbital   2 s accepted.
  | Species O :   atomic orbital   2 p accepted.
  | Species O :    hydro orbital   2 p accepted.
  | Species O :    hydro orbital   3 d accepted.

  Basis size parameters after reduction:
  | Total number of radial functions:        9
  | Total number of basis functions :       29

  Per-task memory consumption for arrays in subroutine allocate_ext:
  |           2.249476MB.
  Testing on-site integration grid accuracy.
  |  Species  Function  <phi|h_atom|phi> (log., in eV)  <phi|h_atom|phi> (rad., in eV)
           1        1                 -6.3245358373                 -6.3232436907
           1        2                 14.1326137532                 14.1384481100
           1        3                 25.3627025200                 25.3628451197
           2        4               -510.4241781769               -510.4240769412
           2        5                 14.9072942218                 14.9072945276
           2        6                -21.2004736467                -21.2005650544
           2        7                 -9.1962086499                 -9.1963509828
           2        8                  8.1896755011                  8.1702200086
           2        9                 45.7920584945                 45.7920228528

  Preparing densities etc. for the partition functions (integrals / Hartree potential).

  Preparations completed.
  max(cpu_time)          :      0.049 s.
  Wall clock time (cpu1) :      0.050 s.
------------------------------------------------------------

------------------------------------------------------------
          Begin self-consistency loop: Initialization.

          Date     :  20190509, Time     :  114705.961
------------------------------------------------------------

  Initializing index lists of integration centers etc. from given atomic structure:
  | Number of centers in hartree potential         :         4
  | Number of centers in hartree multipole         :         4
  | Number of centers in electron density summation:         4
  | Number of centers in basis integrals           :         4
  | Number of centers in integrals                 :         4
  | Number of centers in hamiltonian               :         4
  Partitioning the integration grid into batches with maxmin method.
  | Maximal weight for a single point:     1.000
  | Minimal weight for a single point:     0.000
  | Number of batches:      256
  | Maximal batch size:      83
  | Minimal batch size:      78
  | Average batch size:      80.719
  | Standard deviation of batch sizes:       1.484
  Initializing partition tables, free-atom densities, potentials, etc. across the integration grid (initialize_grid_storage).
  | initialize_grid_storage: Actual outermost partition radius vs. multipole_radius_free
  | (-- VB: in principle, multipole_radius_free should be larger, hence this output)
  | Species        1: Confinement radius =              4.999999999999999 AA, multipole_radius_free =              5.054417573612229 AA.
  | Species        1: outer_partition_radius set to              5.054417573612229 AA .
  | Species        2: Confinement radius =              4.999999999999999 AA, multipole_radius_free =              5.048384829883283 AA.
  | Species        2: outer_partition_radius set to              5.048384829883283 AA .
  | Original list of interatomic distances with           4 x          4 entries is created.
  | Net number of integration points:    20664
  | of which are non-zero points    :    18384
  Renormalizing the initial density to the exact electron count on the 3D integration grid.
  | Initial density: Formal number of electrons (from input files) :      11.0000000000
  | Integrated number of electrons on 3D grid     :      10.9999407756
  | Charge integration error                      :      -0.0000592244
  | Normalization factor for density and gradient :       1.0000053841
  Obtaining max. number of non-zero basis functions in each batch (get_n_compute_maxes).
  | Maximal number of non-zero basis functions:       29 in task     0
  Selecting the method for density update.
  Loop over occupied states selected for charge density update.
  Allocating        0.003 MB for KS_eigenvector
  Integrating Hamiltonian matrix: batch-based integration.
  Time summed over all CPUs for integration: real work        0.029 s, elapsed        0.029 s
  Integrating overlap matrix.
  Time summed over all CPUs for integration: real work        0.015 s, elapsed        0.015 s

  Updating Kohn-Sham eigenvalues, eigenvectors, occupation numbers, and Fermi level.
  Solving generalized eigenproblem
  Updating Kohn-Sham eigenvalues and eigenfunctions.
  Transforming overlap matrix and checking for singularities.
  Overlap matrix is nonsingular:
  | Lowest eigenvalue:  0.147812E-01
  Solving real generalised eigenvalue problem by standard LAPACK (fast)

  Obtaining occupation numbers and chemical potential using ELSI.
  | Chemical potential (Fermi level):    -6.76874186eV
  Writing Kohn-Sham eigenvalues.

  State    Occupation    Eigenvalue [Ha]    Eigenvalue [eV]
      1       2.00000         -18.911858         -514.61785
      2       2.00000          -1.151400          -31.33119
      3       2.00000          -0.671623          -18.27579
      4       2.00000          -0.671138          -18.26260
      5       2.00000          -0.507767          -13.81704
      6       0.00000          -0.090340           -2.45829
      7       0.00000           0.002363            0.06430
      8       0.00000           0.002831            0.07703
      9       0.00000           0.199635            5.43235
     10       0.00000           0.264428            7.19544
     11       0.00000           0.264791            7.20532
     12       0.00000           0.467121           12.71100
     13       0.00000           0.669111           18.20744

  Highest occupied state (VBM) at    -13.81703544 eV
  | Occupation number:      2.00000000

  Lowest unoccupied state (CBM) at    -2.45828771 eV
  | Occupation number:      0.00000000

  Overall HOMO-LUMO gap:     11.35874773 eV.
  Calculating total energy contributions from superposition of free atom densities.

  Total energy components:
  | Sum of eigenvalues            :         -43.82757225 Ha       -1192.60892026 eV
  | XC energy correction          :          -8.86385662 Ha        -241.19781051 eV
  | XC potential correction       :          11.67163698 Ha         317.60140172 eV
  | Free-atom electrostatic energy:         -35.29348674 Ha        -960.38463811 eV
  | Hartree energy correction     :          -0.00000000 Ha          -0.00000000 eV
  | Entropy correction            :          -0.00000000 Ha          -0.00000000 eV
  | ---------------------------
  | Total energy                  :         -76.31327863 Ha       -2076.58996715 eV
  | Total energy, T -> 0          :         -76.31327863 Ha       -2076.58996715 eV  <-- do not rely on this value for anything but (periodic) metals
  | Electronic free energy        :         -76.31327863 Ha       -2076.58996715 eV

  Derived energy quantities:
  | Kinetic energy                :          75.66440780 Ha        2058.93329371 eV
  | Electrostatic energy          :        -143.11382981 Ha       -3894.32545035 eV
  | Energy correction for multipole
  | error in Hartree potential    :           0.00000000 Ha           0.00000000 eV
  | Sum of eigenvalues per atom                           :        -298.15223006 eV
  | Total energy (T->0) per atom                          :        -519.14749179 eV  <-- do not rely on this value for anything but (periodic) metals
  | Electronic free energy per atom                       :        -519.14749179 eV
  Initialize hartree_potential_storage
  Max. number of atoms included in rho_multipole:            4

  End scf initialization - timings             :  max(cpu_time)    wall_clock(cpu1)
  | Time for scf. initialization               :        0.086 s           0.085 s
  | Boundary condition initialization          :        0.000 s           0.000 s
  | Integration                                :        0.045 s           0.044 s
  | Solution of K.-S. eqns.                    :        0.001 s           0.001 s
  | Grid partitioning                          :        0.015 s           0.014 s
  | Preloading free-atom quantities on grid    :        0.001 s           0.001 s
  | Free-atom superposition energy             :        0.012 s           0.012 s
  | Total energy evaluation                    :        0.000 s           0.000 s

  Partial memory accounting:
  | Current value for overall tracked memory usage on task 0  :           0.017 MB
  | Peak value for overall tracked memory usage on task 0     :           0.075 MB after allocating wave
  | Largest tracked array allocation on task 0 so far         :           0.019 MB  when allocating H_times_psi
  Note:  These values currently only include a subset of arrays which are explicitly tracked.
  The "true" memory usage will be greater.
------------------------------------------------------------

------------------------------------------------------------
          Begin self-consistency iteration #    1

  Date     :  20190509, Time     :  114706.046
------------------------------------------------------------
  Evaluating new KS density.
  Integration grid: deviation in total charge (<rho> - N_e) =  -1.065814E-14
  Pulay mixing of updated and previous charge densities.

  Evaluating partitioned Hartree potential by multipole expansion.
  | Analytical far-field extrapolation by fixed multipoles:
  | Hartree multipole sum: apparent total charge =   0.499209E-01
  Summing up the Hartree potential.
  Time summed over all CPUs for potential: real work        0.017 s, elapsed        0.017 s
  | RMS charge density error from multipole expansion :   0.486788E-03

  Integrating Hamiltonian matrix: batch-based integration.
  Time summed over all CPUs for integration: real work        0.028 s, elapsed        0.028 s

  Updating Kohn-Sham eigenvalues, eigenvectors, occupation numbers, and Fermi level.
  Solving generalized eigenproblem
  Updating Kohn-Sham eigenvalues and eigenfunctions.
  Solving real generalised eigenvalue problem by standard LAPACK (fast)

  Obtaining occupation numbers and chemical potential using ELSI.
  | Chemical potential (Fermi level):    -6.98644835eV
  Writing Kohn-Sham eigenvalues.

  State    Occupation    Eigenvalue [Ha]    Eigenvalue [eV]
      1       2.00000         -18.902288         -514.35742
      2       2.00000          -1.155539          -31.44381
      3       2.00000          -0.677046          -18.42336
      4       2.00000          -0.676569          -18.41039
      5       2.00000          -0.510401          -13.88872
      6       0.00000          -0.100641           -2.73859
      7       0.00000          -0.007274           -0.19792
      8       0.00000          -0.006796           -0.18494
      9       0.00000           0.192510            5.23845
     10       0.00000           0.254560            6.92693
     11       0.00000           0.254926            6.93690
     12       0.00000           0.456487           12.42165
     13       0.00000           0.660247           17.96622

  Highest occupied state (VBM) at    -13.88872301 eV
  | Occupation number:      2.00000000

  Lowest unoccupied state (CBM) at    -2.73859029 eV
  | Occupation number:      0.00000000

  Overall HOMO-LUMO gap:     11.15013272 eV.

  Total energy components:
  | Sum of eigenvalues            :         -43.84368729 Ha       -1193.04743280 eV
  | XC energy correction          :          -8.86701820 Ha        -241.28384171 eV
  | XC potential correction       :          11.67602340 Ha         317.72076212 eV
  | Free-atom electrostatic energy:         -35.29348674 Ha        -960.38463811 eV
  | Hartree energy correction     :           0.03269814 Ha           0.88976173 eV
  | Entropy correction            :          -0.00000000 Ha          -0.00000000 eV
  | ---------------------------
  | Total energy                  :         -76.29547070 Ha       -2076.10538877 eV
  | Total energy, T -> 0          :         -76.29547070 Ha       -2076.10538877 eV  <-- do not rely on this value for anything but (periodic) metals
  | Electronic free energy        :         -76.29547070 Ha       -2076.10538877 eV

  Derived energy quantities:
  | Kinetic energy                :          75.75365202 Ha        2061.36175252 eV
  | Electrostatic energy          :        -143.18210452 Ha       -3896.18329958 eV
  | Energy correction for multipole
  | error in Hartree potential    :           0.00050793 Ha           0.01382151 eV
  | Sum of eigenvalues per atom                           :        -298.26185820 eV
  | Total energy (T->0) per atom                          :        -519.02634719 eV  <-- do not rely on this value for anything but (periodic) metals
  | Electronic free energy per atom                       :        -519.02634719 eV

  Self-consistency convergence accuracy:
  | Change of charge density      :  0.2574E+00
  | Change of sum of eigenvalues  : -0.4385E+00 eV
  | Change of total energy        :  0.4846E+00 eV

  End self-consistency iteration #     1       :  max(cpu_time)    wall_clock(cpu1)
  | Time for this iteration                    :        0.060 s           0.060 s
  | Charge density update                      :        0.013 s           0.013 s
  | Density mixing                             :        0.000 s           0.000 s
  | Hartree multipole update                   :        0.002 s           0.002 s
  | Hartree multipole summation                :        0.017 s           0.017 s
  | Integration                                :        0.028 s           0.028 s
  | Solution of K.-S. eqns.                    :        0.000 s           0.000 s
  | Total energy evaluation                    :        0.000 s           0.000 s

  Partial memory accounting:
  | Current value for overall tracked memory usage on task 0  :           0.017 MB
  | Peak value for overall tracked memory usage on task 0     :           0.082 MB after allocating wave
  | Largest tracked array allocation on task 0 so far         :           0.019 MB  when allocating H_times_psi
  Note:  These values currently only include a subset of arrays which are explicitly tracked.
  The "true" memory usage will be greater.
------------------------------------------------------------

------------------------------------------------------------
          Begin self-consistency iteration #    2

  Date     :  20190509, Time     :  114706.106
------------------------------------------------------------
  Evaluating new KS density.
  Integration grid: deviation in total charge (<rho> - N_e) =   1.421085E-14
  Pulay mixing of updated and previous charge densities.

  Evaluating partitioned Hartree potential by multipole expansion.
  | Analytical far-field extrapolation by fixed multipoles:
  | Hartree multipole sum: apparent total charge =   0.436628E+00
  Summing up the Hartree potential.
  Time summed over all CPUs for potential: real work        0.017 s, elapsed        0.017 s
  | RMS charge density error from multipole expansion :   0.419771E-02

  Integrating Hamiltonian matrix: batch-based integration.
  Time summed over all CPUs for integration: real work        0.031 s, elapsed        0.031 s

  Updating Kohn-Sham eigenvalues, eigenvectors, occupation numbers, and Fermi level.
  Solving generalized eigenproblem
  Updating Kohn-Sham eigenvalues and eigenfunctions.
  Solving real generalised eigenvalue problem by standard LAPACK (fast)

  Obtaining occupation numbers and chemical potential using ELSI.
  | Chemical potential (Fermi level):    -8.70656797eV
  Highest occupied state (VBM) at    -14.67614750 eV
  | Occupation number:      2.00000000

  Lowest unoccupied state (CBM) at    -4.87733520 eV
  | Occupation number:      0.00000000

  Overall HOMO-LUMO gap:      9.79881230 eV.

  Checking to see if s.c.f. parameters should be adjusted.
  The system likely has a gap. Increased the default Pulay mixing parameter (charge_mix_param). Value:   0.200000 .
  Kept the default occupation width. Value:   0.010000 eV.

  Total energy components:
  | Sum of eigenvalues            :         -44.06757582 Ha       -1199.13974969 eV
  | XC energy correction          :          -8.89043424 Ha        -241.92102446 eV
  | XC potential correction       :          11.70850659 Ha         318.60467472 eV
  | Free-atom electrostatic energy:         -35.29348674 Ha        -960.38463811 eV
  | Hartree energy correction     :           0.33460388 Ha           9.10503493 eV
  | Entropy correction            :          -0.00000000 Ha          -0.00000000 eV
  | ---------------------------
  | Total energy                  :         -76.20838633 Ha       -2073.73570260 eV
  | Total energy, T -> 0          :         -76.20838633 Ha       -2073.73570260 eV  <-- do not rely on this value for anything but (periodic) metals
  | Electronic free energy        :         -76.20838633 Ha       -2073.73570260 eV

  Derived energy quantities:
  | Kinetic energy                :          76.28734767 Ha        2075.88434980 eV
  | Electrostatic energy          :        -143.60529976 Ha       -3907.69902795 eV
  | Energy correction for multipole
  | error in Hartree potential    :           0.00419215 Ha           0.11407415 eV
  | Sum of eigenvalues per atom                           :        -299.78493742 eV
  | Total energy (T->0) per atom                          :        -518.43392565 eV  <-- do not rely on this value for anything but (periodic) metals
  | Electronic free energy per atom                       :        -518.43392565 eV

  Self-consistency convergence accuracy:
  | Change of charge density      :  0.2326E+00
  | Change of sum of eigenvalues  : -0.6092E+01 eV
  | Change of total energy        :  0.2370E+01 eV

  End self-consistency iteration #     2       :  max(cpu_time)    wall_clock(cpu1)
  | Time for this iteration                    :        0.062 s           0.062 s
  | Charge density update                      :        0.012 s           0.012 s
  | Density mixing                             :        0.000 s           0.000 s
  | Hartree multipole update                   :        0.002 s           0.002 s
  | Hartree multipole summation                :        0.018 s           0.017 s
  | Integration                                :        0.031 s           0.031 s
  | Solution of K.-S. eqns.                    :        0.000 s           0.000 s
  | Total energy evaluation                    :        0.000 s           0.000 s

  Partial memory accounting:
  | Current value for overall tracked memory usage on task 0  :           0.018 MB
  | Peak value for overall tracked memory usage on task 0     :           0.083 MB after allocating wave
  | Largest tracked array allocation on task 0 so far         :           0.019 MB  when allocating H_times_psi
  Note:  These values currently only include a subset of arrays which are explicitly tracked.
  The "true" memory usage will be greater.
------------------------------------------------------------

------------------------------------------------------------
          Begin self-consistency iteration #    3

  Date     :  20190509, Time     :  114706.168
------------------------------------------------------------
  Evaluating new KS density.
  Integration grid: deviation in total charge (<rho> - N_e) =   1.776357E-15
  Pulay mixing of updated and previous charge densities.

  Evaluating partitioned Hartree potential by multipole expansion.
  | Analytical far-field extrapolation by fixed multipoles:
  | Hartree multipole sum: apparent total charge =   0.853447E+00
  Summing up the Hartree potential.
  Time summed over all CPUs for potential: real work        0.017 s, elapsed        0.017 s
  | RMS charge density error from multipole expansion :   0.783649E-02

  Integrating Hamiltonian matrix: batch-based integration.
  Time summed over all CPUs for integration: real work        0.028 s, elapsed        0.028 s

  Updating Kohn-Sham eigenvalues, eigenvectors, occupation numbers, and Fermi level.
  Solving generalized eigenproblem
  Updating Kohn-Sham eigenvalues and eigenfunctions.
  Solving real generalised eigenvalue problem by standard LAPACK (fast)

  Obtaining occupation numbers and chemical potential using ELSI.
  | Chemical potential (Fermi level):   -11.61496408eV
  Highest occupied state (VBM) at    -18.16188786 eV
  | Occupation number:      2.00000000

  Lowest unoccupied state (CBM) at    -7.58954237 eV
  | Occupation number:      0.00000000

  Overall HOMO-LUMO gap:     10.57234549 eV.

  Total energy components:
  | Sum of eigenvalues            :         -45.45312483 Ha       -1236.84245640 eV
  | XC energy correction          :          -8.79596591 Ha        -239.35041045 eV
  | XC potential correction       :          11.58514894 Ha         315.24794218 eV
  | Free-atom electrostatic energy:         -35.29348674 Ha        -960.38463811 eV
  | Hartree energy correction     :           1.78121121 Ha          48.46922303 eV
  | Entropy correction            :          -0.00000000 Ha          -0.00000000 eV
  | ---------------------------
  | Total energy                  :         -76.17621734 Ha       -2072.86033975 eV
  | Total energy, T -> 0          :         -76.17621734 Ha       -2072.86033975 eV  <-- do not rely on this value for anything but (periodic) metals
  | Electronic free energy        :         -76.17621734 Ha       -2072.86033975 eV

  Derived energy quantities:
  | Kinetic energy                :          75.82143487 Ha        2063.20621753 eV
  | Electrostatic energy          :        -143.20168630 Ha       -3896.71614683 eV
  | Energy correction for multipole
  | error in Hartree potential    :           0.00575423 Ha           0.15658069 eV
  | Sum of eigenvalues per atom                           :        -309.21061410 eV
  | Total energy (T->0) per atom                          :        -518.21508494 eV  <-- do not rely on this value for anything but (periodic) metals
  | Electronic free energy per atom                       :        -518.21508494 eV

  Self-consistency convergence accuracy:
  | Change of charge density      :  0.1082E+00
  | Change of sum of eigenvalues  : -0.3770E+02 eV
  | Change of total energy        :  0.8754E+00 eV

  End self-consistency iteration #     3       :  max(cpu_time)    wall_clock(cpu1)
  | Time for this iteration                    :        0.059 s           0.059 s
  | Charge density update                      :        0.012 s           0.012 s
  | Density mixing                             :        0.000 s           0.000 s
  | Hartree multipole update                   :        0.001 s           0.002 s
  | Hartree multipole summation                :        0.017 s           0.017 s
  | Integration                                :        0.029 s           0.028 s
  | Solution of K.-S. eqns.                    :        0.000 s           0.000 s
  | Total energy evaluation                    :        0.000 s           0.000 s

  Partial memory accounting:
  | Current value for overall tracked memory usage on task 0  :           0.018 MB
  | Peak value for overall tracked memory usage on task 0     :           0.083 MB after allocating wave
  | Largest tracked array allocation on task 0 so far         :           0.019 MB  when allocating H_times_psi
  Note:  These values currently only include a subset of arrays which are explicitly tracked.
  The "true" memory usage will be greater.
------------------------------------------------------------

------------------------------------------------------------
          Begin self-consistency iteration #    4

  Date     :  20190509, Time     :  114706.228
------------------------------------------------------------
  Evaluating new KS density.
  Integration grid: deviation in total charge (<rho> - N_e) =  -1.598721E-14
  Pulay mixing of updated and previous charge densities.

  Evaluating partitioned Hartree potential by multipole expansion.
  | Analytical far-field extrapolation by fixed multipoles:
  | Hartree multipole sum: apparent total charge =   0.100713E+01
  Summing up the Hartree potential.
  Time summed over all CPUs for potential: real work        0.016 s, elapsed        0.016 s
  | RMS charge density error from multipole expansion :   0.926436E-02

  Integrating Hamiltonian matrix: batch-based integration.
  Time summed over all CPUs for integration: real work        0.028 s, elapsed        0.028 s

  Updating Kohn-Sham eigenvalues, eigenvectors, occupation numbers, and Fermi level.
  Solving generalized eigenproblem
  Updating Kohn-Sham eigenvalues and eigenfunctions.
  Solving real generalised eigenvalue problem by standard LAPACK (fast)

  Obtaining occupation numbers and chemical potential using ELSI.
  | Chemical potential (Fermi level):   -12.33316973eV
  Highest occupied state (VBM) at    -18.93194895 eV
  | Occupation number:      2.00000000

  Lowest unoccupied state (CBM) at    -8.35377248 eV
  | Occupation number:      0.00000000

  Overall HOMO-LUMO gap:     10.57817648 eV.

  Total energy components:
  | Sum of eigenvalues            :         -45.74076621 Ha       -1244.66957678 eV
  | XC energy correction          :          -8.79209469 Ha        -239.24506912 eV
  | XC potential correction       :          11.58050710 Ha         315.12163129 eV
  | Free-atom electrostatic energy:         -35.29348674 Ha        -960.38463811 eV
  | Hartree energy correction     :           2.07195893 Ha          56.38087118 eV
  | Entropy correction            :          -0.00000000 Ha          -0.00000000 eV
  | ---------------------------
  | Total energy                  :         -76.17388162 Ha       -2072.79678153 eV
  | Total energy, T -> 0          :         -76.17388162 Ha       -2072.79678153 eV  <-- do not rely on this value for anything but (periodic) metals
  | Electronic free energy        :         -76.17388162 Ha       -2072.79678153 eV

  Derived energy quantities:
  | Kinetic energy                :          75.80329888 Ha        2062.71271212 eV
  | Electrostatic energy          :        -143.18508581 Ha       -3896.26442453 eV
  | Energy correction for multipole
  | error in Hartree potential    :           0.00667075 Ha           0.18152038 eV
  | Sum of eigenvalues per atom                           :        -311.16739419 eV
  | Total energy (T->0) per atom                          :        -518.19919538 eV  <-- do not rely on this value for anything but (periodic) metals
  | Electronic free energy per atom                       :        -518.19919538 eV

  Self-consistency convergence accuracy:
  | Change of charge density      :  0.4486E-01
  | Change of sum of eigenvalues  : -0.7827E+01 eV
  | Change of total energy        :  0.6356E-01 eV

  End self-consistency iteration #     4       :  max(cpu_time)    wall_clock(cpu1)
  | Time for this iteration                    :        0.058 s           0.058 s
  | Charge density update                      :        0.011 s           0.011 s
  | Density mixing                             :        0.000 s           0.000 s
  | Hartree multipole update                   :        0.001 s           0.002 s
  | Hartree multipole summation                :        0.016 s           0.016 s
  | Integration                                :        0.028 s           0.028 s
  | Solution of K.-S. eqns.                    :        0.000 s           0.001 s
  | Total energy evaluation                    :        0.000 s           0.000 s

  Partial memory accounting:
  | Current value for overall tracked memory usage on task 0  :           0.019 MB
  | Peak value for overall tracked memory usage on task 0     :           0.083 MB after allocating wave
  | Largest tracked array allocation on task 0 so far         :           0.019 MB  when allocating H_times_psi
  Note:  These values currently only include a subset of arrays which are explicitly tracked.
  The "true" memory usage will be greater.
------------------------------------------------------------

------------------------------------------------------------
          Begin self-consistency iteration #    5

  Date     :  20190509, Time     :  114706.286
------------------------------------------------------------
  Evaluating new KS density.
  Integration grid: deviation in total charge (<rho> - N_e) =  -2.664535E-14
  Pulay mixing of updated and previous charge densities.

  Evaluating partitioned Hartree potential by multipole expansion.
  | Analytical far-field extrapolation by fixed multipoles:
  | Hartree multipole sum: apparent total charge =   0.101049E+01
  Summing up the Hartree potential.
  Time summed over all CPUs for potential: real work        0.017 s, elapsed        0.017 s
  | RMS charge density error from multipole expansion :   0.936236E-02

  Integrating Hamiltonian matrix: batch-based integration.
  Time summed over all CPUs for integration: real work        0.028 s, elapsed        0.028 s

  Updating Kohn-Sham eigenvalues, eigenvectors, occupation numbers, and Fermi level.
  Solving generalized eigenproblem
  Updating Kohn-Sham eigenvalues and eigenfunctions.
  Solving real generalised eigenvalue problem by standard LAPACK (fast)

  Obtaining occupation numbers and chemical potential using ELSI.
  | Chemical potential (Fermi level):   -12.17205062eV
  Highest occupied state (VBM) at    -18.71364518 eV
  | Occupation number:      2.00000000

  Lowest unoccupied state (CBM) at    -8.23260985 eV
  | Occupation number:      0.00000000

  Overall HOMO-LUMO gap:     10.48103533 eV.

  Total energy components:
  | Sum of eigenvalues            :         -45.64628214 Ha       -1242.09853435 eV
  | XC energy correction          :          -8.80568180 Ha        -239.61479332 eV
  | XC potential correction       :          11.59840745 Ha         315.60872459 eV
  | Free-atom electrostatic energy:         -35.29348674 Ha        -960.38463811 eV
  | Hartree energy correction     :           1.97326182 Ha          53.69518619 eV
  | Entropy correction            :          -0.00000000 Ha          -0.00000000 eV
  | ---------------------------
  | Total energy                  :         -76.17378142 Ha       -2072.79405500 eV
  | Total energy, T -> 0          :         -76.17378142 Ha       -2072.79405500 eV  <-- do not rely on this value for anything but (periodic) metals
  | Electronic free energy        :         -76.17378142 Ha       -2072.79405500 eV

  Derived energy quantities:
  | Kinetic energy                :          75.85102459 Ha        2064.01139473 eV
  | Electrostatic energy          :        -143.21912420 Ha       -3897.19065641 eV
  | Energy correction for multipole
  | error in Hartree potential    :           0.00646774 Ha           0.17599623 eV
  | Sum of eigenvalues per atom                           :        -310.52463359 eV
  | Total energy (T->0) per atom                          :        -518.19851375 eV  <-- do not rely on this value for anything but (periodic) metals
  | Electronic free energy per atom                       :        -518.19851375 eV

  Self-consistency convergence accuracy:
  | Change of charge density      :  0.1072E-01
  | Change of sum of eigenvalues  :  0.2571E+01 eV
  | Change of total energy        :  0.2727E-02 eV

  End self-consistency iteration #     5       :  max(cpu_time)    wall_clock(cpu1)
  | Time for this iteration                    :        0.059 s           0.059 s
  | Charge density update                      :        0.011 s           0.011 s
  | Density mixing                             :        0.001 s           0.001 s
  | Hartree multipole update                   :        0.001 s           0.001 s
  | Hartree multipole summation                :        0.017 s           0.017 s
  | Integration                                :        0.028 s           0.028 s
  | Solution of K.-S. eqns.                    :        0.000 s           0.001 s
  | Total energy evaluation                    :        0.000 s           0.000 s

  Partial memory accounting:
  | Current value for overall tracked memory usage on task 0  :           0.019 MB
  | Peak value for overall tracked memory usage on task 0     :           0.083 MB after allocating wave
  | Largest tracked array allocation on task 0 so far         :           0.019 MB  when allocating H_times_psi
  Note:  These values currently only include a subset of arrays which are explicitly tracked.
  The "true" memory usage will be greater.
------------------------------------------------------------

------------------------------------------------------------
          Begin self-consistency iteration #    6

  Date     :  20190509, Time     :  114706.345
------------------------------------------------------------
  Evaluating new KS density.
  Integration grid: deviation in total charge (<rho> - N_e) =  -1.776357E-15
  Pulay mixing of updated and previous charge densities.

  Evaluating partitioned Hartree potential by multipole expansion.
  | Analytical far-field extrapolation by fixed multipoles:
  | Hartree multipole sum: apparent total charge =   0.100143E+01
  Summing up the Hartree potential.
  Time summed over all CPUs for potential: real work        0.016 s, elapsed        0.016 s
  | RMS charge density error from multipole expansion :   0.926901E-02

  Integrating Hamiltonian matrix: batch-based integration.
  Time summed over all CPUs for integration: real work        0.029 s, elapsed        0.029 s

  Updating Kohn-Sham eigenvalues, eigenvectors, occupation numbers, and Fermi level.
  Solving generalized eigenproblem
  Updating Kohn-Sham eigenvalues and eigenfunctions.
  Solving real generalised eigenvalue problem by standard LAPACK (fast)

  Obtaining occupation numbers and chemical potential using ELSI.
  | Chemical potential (Fermi level):   -12.20158174eV
  Highest occupied state (VBM) at    -18.76377967 eV
  | Occupation number:      2.00000000

  Lowest unoccupied state (CBM) at    -8.23298432 eV
  | Occupation number:      0.00000000

  Overall HOMO-LUMO gap:     10.53079534 eV.

  Total energy components:
  | Sum of eigenvalues            :         -45.67172506 Ha       -1242.79087146 eV
  | XC energy correction          :          -8.80048682 Ha        -239.47343055 eV
  | XC potential correction       :          11.59152338 Ha         315.42139975 eV
  | Free-atom electrostatic energy:         -35.29348674 Ha        -960.38463811 eV
  | Hartree energy correction     :           2.00041717 Ha          54.43412085 eV
  | Entropy correction            :          -0.00000000 Ha          -0.00000000 eV
  | ---------------------------
  | Total energy                  :         -76.17375806 Ha       -2072.79341952 eV
  | Total energy, T -> 0          :         -76.17375806 Ha       -2072.79341952 eV  <-- do not rely on this value for anything but (periodic) metals
  | Electronic free energy        :         -76.17375806 Ha       -2072.79341952 eV

  Derived energy quantities:
  | Kinetic energy                :          75.82057086 Ha        2063.18270676 eV
  | Electrostatic energy          :        -143.19384211 Ha       -3896.50269573 eV
  | Energy correction for multipole
  | error in Hartree potential    :           0.00636205 Ha           0.17312010 eV
  | Sum of eigenvalues per atom                           :        -310.69771786 eV
  | Total energy (T->0) per atom                          :        -518.19835488 eV  <-- do not rely on this value for anything but (periodic) metals
  | Electronic free energy per atom                       :        -518.19835488 eV

  Self-consistency convergence accuracy:
  | Change of charge density      :  0.7275E-02
  | Change of sum of eigenvalues  : -0.6923E+00 eV
  | Change of total energy        :  0.6355E-03 eV

  End self-consistency iteration #     6       :  max(cpu_time)    wall_clock(cpu1)
  | Time for this iteration                    :        0.060 s           0.059 s
  | Charge density update                      :        0.012 s           0.012 s
  | Density mixing                             :        0.001 s           0.000 s
  | Hartree multipole update                   :        0.002 s           0.002 s
  | Hartree multipole summation                :        0.017 s           0.016 s
  | Integration                                :        0.029 s           0.029 s
  | Solution of K.-S. eqns.                    :        0.000 s           0.000 s
  | Total energy evaluation                    :        0.000 s           0.000 s

  Partial memory accounting:
  | Current value for overall tracked memory usage on task 0  :           0.019 MB
  | Peak value for overall tracked memory usage on task 0     :           0.084 MB after allocating wave
  | Largest tracked array allocation on task 0 so far         :           0.019 MB  when allocating H_times_psi
  Note:  These values currently only include a subset of arrays which are explicitly tracked.
  The "true" memory usage will be greater.
------------------------------------------------------------

------------------------------------------------------------
          Begin self-consistency iteration #    7

  Date     :  20190509, Time     :  114706.405
------------------------------------------------------------
  Evaluating new KS density.
  Integration grid: deviation in total charge (<rho> - N_e) =  -8.881784E-15
  Pulay mixing of updated and previous charge densities.

  Evaluating partitioned Hartree potential by multipole expansion.
  | Analytical far-field extrapolation by fixed multipoles:
  | Hartree multipole sum: apparent total charge =   0.999106E+00
  Summing up the Hartree potential.
  Time summed over all CPUs for potential: real work        0.017 s, elapsed        0.017 s
  | RMS charge density error from multipole expansion :   0.926283E-02

  Integrating Hamiltonian matrix: batch-based integration.
  Time summed over all CPUs for integration: real work        0.028 s, elapsed        0.028 s

  Updating Kohn-Sham eigenvalues, eigenvectors, occupation numbers, and Fermi level.
  Solving generalized eigenproblem
  Updating Kohn-Sham eigenvalues and eigenfunctions.
  Solving real generalised eigenvalue problem by standard LAPACK (fast)

  Obtaining occupation numbers and chemical potential using ELSI.
  | Chemical potential (Fermi level):   -12.14938696eV
  Highest occupied state (VBM) at    -18.68464096 eV
  | Occupation number:      2.00000000

  Lowest unoccupied state (CBM) at    -8.18903682 eV
  | Occupation number:      0.00000000

  Overall HOMO-LUMO gap:     10.49560414 eV.

  Total energy components:
  | Sum of eigenvalues            :         -45.64135202 Ha       -1241.96437905 eV
  | XC energy correction          :          -8.80402191 Ha        -239.56962538 eV
  | XC potential correction       :          11.59616835 Ha         315.54779566 eV
  | Free-atom electrostatic energy:         -35.29348674 Ha        -960.38463811 eV
  | Hartree energy correction     :           1.96894885 Ha          53.57782435 eV
  | Entropy correction            :          -0.00000000 Ha          -0.00000000 eV
  | ---------------------------
  | Total energy                  :         -76.17374348 Ha       -2072.79302253 eV
  | Total energy, T -> 0          :         -76.17374348 Ha       -2072.79302253 eV  <-- do not rely on this value for anything but (periodic) metals
  | Electronic free energy        :         -76.17374348 Ha       -2072.79302253 eV

  Derived energy quantities:
  | Kinetic energy                :          75.83024544 Ha        2063.44596534 eV
  | Electrostatic energy          :        -143.19996700 Ha       -3896.66936249 eV
  | Energy correction for multipole
  | error in Hartree potential    :           0.00625171 Ha           0.17011766 eV
  | Sum of eigenvalues per atom                           :        -310.49109476 eV
  | Total energy (T->0) per atom                          :        -518.19825563 eV  <-- do not rely on this value for anything but (periodic) metals
  | Electronic free energy per atom                       :        -518.19825563 eV

  Self-consistency convergence accuracy:
  | Change of charge density      :  0.3738E-02
  | Change of sum of eigenvalues  :  0.8265E+00 eV
  | Change of total energy        :  0.3970E-03 eV

  End self-consistency iteration #     7       :  max(cpu_time)    wall_clock(cpu1)
  | Time for this iteration                    :        0.059 s           0.059 s
  | Charge density update                      :        0.012 s           0.011 s
  | Density mixing                             :        0.001 s           0.001 s
  | Hartree multipole update                   :        0.001 s           0.001 s
  | Hartree multipole summation                :        0.017 s           0.017 s
  | Integration                                :        0.029 s           0.028 s
  | Solution of K.-S. eqns.                    :        0.000 s           0.001 s
  | Total energy evaluation                    :        0.000 s           0.000 s

  Partial memory accounting:
  | Current value for overall tracked memory usage on task 0  :           0.019 MB
  | Peak value for overall tracked memory usage on task 0     :           0.084 MB after allocating wave
  | Largest tracked array allocation on task 0 so far         :           0.019 MB  when allocating H_times_psi
  Note:  These values currently only include a subset of arrays which are explicitly tracked.
  The "true" memory usage will be greater.
------------------------------------------------------------

------------------------------------------------------------
          Begin self-consistency iteration #    8

  Date     :  20190509, Time     :  114706.464
------------------------------------------------------------
  Evaluating new KS density.
  Integration grid: deviation in total charge (<rho> - N_e) =   3.197442E-14
  Pulay mixing of updated and previous charge densities.

  Evaluating partitioned Hartree potential by multipole expansion.
  | Analytical far-field extrapolation by fixed multipoles:
  | Hartree multipole sum: apparent total charge =   0.999324E+00
  Summing up the Hartree potential.
  Time summed over all CPUs for potential: real work        0.016 s, elapsed        0.016 s
  | RMS charge density error from multipole expansion :   0.926599E-02

  Integrating Hamiltonian matrix: batch-based integration.
  Time summed over all CPUs for integration: real work        0.030 s, elapsed        0.030 s

  Updating Kohn-Sham eigenvalues, eigenvectors, occupation numbers, and Fermi level.
  Solving generalized eigenproblem
  Updating Kohn-Sham eigenvalues and eigenfunctions.
  Solving real generalised eigenvalue problem by standard LAPACK (fast)

  Obtaining occupation numbers and chemical potential using ELSI.
  | Chemical potential (Fermi level):   -12.14534316eV
  Highest occupied state (VBM) at    -18.67892864 eV
  | Occupation number:      2.00000000

  Lowest unoccupied state (CBM) at    -8.18605919 eV
  | Occupation number:      0.00000000

  Overall HOMO-LUMO gap:     10.49286945 eV.

  Total energy components:
  | Sum of eigenvalues            :         -45.63924013 Ha       -1241.90691151 eV
  | XC energy correction          :          -8.80435925 Ha        -239.57880487 eV
  | XC potential correction       :          11.59661233 Ha         315.55987713 eV
  | Free-atom electrostatic energy:         -35.29348674 Ha        -960.38463811 eV
  | Hartree energy correction     :           1.96673050 Ha          53.51745988 eV
  | Entropy correction            :          -0.00000000 Ha          -0.00000000 eV
  | ---------------------------
  | Total energy                  :         -76.17374329 Ha       -2072.79301747 eV
  | Total energy, T -> 0          :         -76.17374329 Ha       -2072.79301747 eV  <-- do not rely on this value for anything but (periodic) metals
  | Electronic free energy        :         -76.17374329 Ha       -2072.79301747 eV

  Derived energy quantities:
  | Kinetic energy                :          75.83070522 Ha        2063.45847668 eV
  | Electrostatic energy          :        -143.20008926 Ha       -3896.67268929 eV
  | Energy correction for multipole
  | error in Hartree potential    :           0.00623722 Ha           0.16972353 eV
  | Sum of eigenvalues per atom                           :        -310.47672788 eV
  | Total energy (T->0) per atom                          :        -518.19825437 eV  <-- do not rely on this value for anything but (periodic) metals
  | Electronic free energy per atom                       :        -518.19825437 eV

  Self-consistency convergence accuracy:
  | Change of charge density      :  0.5258E-03
  | Change of sum of eigenvalues  :  0.5747E-01 eV
  | Change of total energy        :  0.5056E-05 eV

  End self-consistency iteration #     8       :  max(cpu_time)    wall_clock(cpu1)
  | Time for this iteration                    :        0.060 s           0.060 s
  | Charge density update                      :        0.011 s           0.011 s
  | Density mixing                             :        0.001 s           0.001 s
  | Hartree multipole update                   :        0.001 s           0.001 s
  | Hartree multipole summation                :        0.017 s           0.017 s
  | Integration                                :        0.030 s           0.030 s
  | Solution of K.-S. eqns.                    :        0.000 s           0.000 s
  | Total energy evaluation                    :        0.000 s           0.000 s

  Partial memory accounting:
  | Current value for overall tracked memory usage on task 0  :           0.020 MB
  | Peak value for overall tracked memory usage on task 0     :           0.084 MB after allocating wave
  | Largest tracked array allocation on task 0 so far         :           0.019 MB  when allocating H_times_psi
  Note:  These values currently only include a subset of arrays which are explicitly tracked.
  The "true" memory usage will be greater.
------------------------------------------------------------

------------------------------------------------------------
          Begin self-consistency iteration #    9

  Date     :  20190509, Time     :  114706.524
------------------------------------------------------------
  Evaluating new KS density.
  Integration grid: deviation in total charge (<rho> - N_e) =  -1.776357E-14
  Pulay mixing of updated and previous charge densities.

  Evaluating partitioned Hartree potential by multipole expansion.
  | Analytical far-field extrapolation by fixed multipoles:
  | Hartree multipole sum: apparent total charge =   0.999549E+00
  Summing up the Hartree potential.
  Time summed over all CPUs for potential: real work        0.017 s, elapsed        0.017 s
  | RMS charge density error from multipole expansion :   0.926624E-02

  Integrating Hamiltonian matrix: batch-based integration.
  Time summed over all CPUs for integration: real work        0.029 s, elapsed        0.029 s

  Updating Kohn-Sham eigenvalues, eigenvectors, occupation numbers, and Fermi level.
  Solving generalized eigenproblem
  Updating Kohn-Sham eigenvalues and eigenfunctions.
  Solving real generalised eigenvalue problem by standard LAPACK (fast)

  Obtaining occupation numbers and chemical potential using ELSI.
  | Chemical potential (Fermi level):   -12.14444410eV
  Highest occupied state (VBM) at    -18.67787436 eV
  | Occupation number:      2.00000000

  Lowest unoccupied state (CBM) at    -8.18544969 eV
  | Occupation number:      0.00000000

  Overall HOMO-LUMO gap:     10.49242467 eV.

  Total energy components:
  | Sum of eigenvalues            :         -45.63916944 Ha       -1241.90498777 eV
  | XC energy correction          :          -8.80440821 Ha        -239.58013720 eV
  | XC potential correction       :          11.59667635 Ha         315.56161900 eV
  | Free-atom electrostatic energy:         -35.29348674 Ha        -960.38463811 eV
  | Hartree energy correction     :           1.96664507 Ha          53.51513530 eV
  | Entropy correction            :          -0.00000000 Ha          -0.00000000 eV
  | ---------------------------
  | Total energy                  :         -76.17374297 Ha       -2072.79300878 eV
  | Total energy, T -> 0          :         -76.17374297 Ha       -2072.79300878 eV  <-- do not rely on this value for anything but (periodic) metals
  | Electronic free energy        :         -76.17374297 Ha       -2072.79300878 eV

  Derived energy quantities:
  | Kinetic energy                :          75.82988759 Ha        2063.43622768 eV
  | Electrostatic energy          :        -143.19922234 Ha       -3896.64909926 eV
  | Energy correction for multipole
  | error in Hartree potential    :           0.00622061 Ha           0.16927142 eV
  | Sum of eigenvalues per atom                           :        -310.47624694 eV
  | Total energy (T->0) per atom                          :        -518.19825220 eV  <-- do not rely on this value for anything but (periodic) metals
  | Electronic free energy per atom                       :        -518.19825220 eV

  Self-consistency convergence accuracy:
  | Change of charge density      :  0.2097E-03
  | Change of sum of eigenvalues  :  0.1924E-02 eV
  | Change of total energy        :  0.8689E-05 eV

  End self-consistency iteration #     9       :  max(cpu_time)    wall_clock(cpu1)
  | Time for this iteration                    :        0.063 s           0.063 s
  | Charge density update                      :        0.013 s           0.013 s
  | Density mixing                             :        0.001 s           0.001 s
  | Hartree multipole update                   :        0.002 s           0.002 s
  | Hartree multipole summation                :        0.018 s           0.017 s
  | Integration                                :        0.029 s           0.030 s
  | Solution of K.-S. eqns.                    :        0.000 s           0.000 s
  | Total energy evaluation                    :        0.000 s           0.000 s

  Partial memory accounting:
  | Current value for overall tracked memory usage on task 0  :           0.020 MB
  | Peak value for overall tracked memory usage on task 0     :           0.085 MB after allocating wave
  | Largest tracked array allocation on task 0 so far         :           0.019 MB  when allocating H_times_psi
  Note:  These values currently only include a subset of arrays which are explicitly tracked.
  The "true" memory usage will be greater.
------------------------------------------------------------

------------------------------------------------------------
          Begin self-consistency iteration #   10

  Date     :  20190509, Time     :  114706.587
------------------------------------------------------------
  Evaluating new KS density.
  Integration grid: deviation in total charge (<rho> - N_e) =   7.105427E-15
  Pulay mixing of updated and previous charge densities.

  Evaluating partitioned Hartree potential by multipole expansion.
  | Analytical far-field extrapolation by fixed multipoles:
  | Hartree multipole sum: apparent total charge =   0.999555E+00
  Summing up the Hartree potential.
  Time summed over all CPUs for potential: real work        0.016 s, elapsed        0.016 s
  | RMS charge density error from multipole expansion :   0.926636E-02

  Integrating Hamiltonian matrix: batch-based integration.
  Time summed over all CPUs for integration: real work        0.029 s, elapsed        0.029 s

  Updating Kohn-Sham eigenvalues, eigenvectors, occupation numbers, and Fermi level.
  Solving generalized eigenproblem
  Updating Kohn-Sham eigenvalues and eigenfunctions.
  Solving real generalised eigenvalue problem by standard LAPACK (fast)

  Obtaining occupation numbers and chemical potential using ELSI.
  | Chemical potential (Fermi level):   -12.14452256eV
  Highest occupied state (VBM) at    -18.67807866 eV
  | Occupation number:      2.00000000

  Lowest unoccupied state (CBM) at    -8.18550680 eV
  | Occupation number:      0.00000000

  Overall HOMO-LUMO gap:     10.49257186 eV.

  Total energy components:
  | Sum of eigenvalues            :         -45.63926257 Ha       -1241.90752202 eV
  | XC energy correction          :          -8.80439883 Ha        -239.57988196 eV
  | XC potential correction       :          11.59666396 Ha         315.56128198 eV
  | Free-atom electrostatic energy:         -35.29348674 Ha        -960.38463811 eV
  | Hartree energy correction     :           1.96674122 Ha          53.51775152 eV
  | Entropy correction            :          -0.00000000 Ha          -0.00000000 eV
  | ---------------------------
  | Total energy                  :         -76.17374296 Ha       -2072.79300860 eV
  | Total energy, T -> 0          :         -76.17374296 Ha       -2072.79300860 eV  <-- do not rely on this value for anything but (periodic) metals
  | Electronic free energy        :         -76.17374296 Ha       -2072.79300860 eV

  Derived energy quantities:
  | Kinetic energy                :          75.82983025 Ha        2063.43466742 eV
  | Electrostatic energy          :        -143.19917438 Ha       -3896.64779406 eV
  | Energy correction for multipole
  | error in Hartree potential    :           0.00622033 Ha           0.16926385 eV
  | Sum of eigenvalues per atom                           :        -310.47688050 eV
  | Total energy (T->0) per atom                          :        -518.19825215 eV  <-- do not rely on this value for anything but (periodic) metals
  | Electronic free energy per atom                       :        -518.19825215 eV

  Self-consistency convergence accuracy:
  | Change of charge density      :  0.2315E-04
  | Change of sum of eigenvalues  : -0.2534E-02 eV
  | Change of total energy        :  0.1882E-06 eV

  End self-consistency iteration #    10       :  max(cpu_time)    wall_clock(cpu1)
  | Time for this iteration                    :        0.059 s           0.059 s
  | Charge density update                      :        0.011 s           0.011 s
  | Density mixing                             :        0.001 s           0.001 s
  | Hartree multipole update                   :        0.001 s           0.002 s
  | Hartree multipole summation                :        0.017 s           0.016 s
  | Integration                                :        0.028 s           0.029 s
  | Solution of K.-S. eqns.                    :        0.000 s           0.000 s
  | Total energy evaluation                    :        0.000 s           0.000 s

  Partial memory accounting:
  | Current value for overall tracked memory usage on task 0  :           0.020 MB
  | Peak value for overall tracked memory usage on task 0     :           0.085 MB after allocating wave
  | Largest tracked array allocation on task 0 so far         :           0.019 MB  when allocating H_times_psi
  Note:  These values currently only include a subset of arrays which are explicitly tracked.
  The "true" memory usage will be greater.
------------------------------------------------------------

------------------------------------------------------------
          Begin self-consistency iteration #   11

  Date     :  20190509, Time     :  114706.646
------------------------------------------------------------
  Evaluating new KS density.
  Integration grid: deviation in total charge (<rho> - N_e) =   0.000000E+00
  Pulay mixing of updated and previous charge densities.

  Evaluating partitioned Hartree potential by multipole expansion.
  | Analytical far-field extrapolation by fixed multipoles:
  | Hartree multipole sum: apparent total charge =   0.999565E+00
  Summing up the Hartree potential.
  Time summed over all CPUs for potential: real work        0.017 s, elapsed        0.017 s
  | RMS charge density error from multipole expansion :   0.926638E-02

  Integrating Hamiltonian matrix: batch-based integration.
  Time summed over all CPUs for integration: real work        0.028 s, elapsed        0.028 s

  Updating Kohn-Sham eigenvalues, eigenvectors, occupation numbers, and Fermi level.
  Solving generalized eigenproblem
  Updating Kohn-Sham eigenvalues and eigenfunctions.
  Solving real generalised eigenvalue problem by standard LAPACK (fast)

  Obtaining occupation numbers and chemical potential using ELSI.
  | Chemical potential (Fermi level):   -12.14453313eV
  Highest occupied state (VBM) at    -18.67811353 eV
  | Occupation number:      2.00000000

  Lowest unoccupied state (CBM) at    -8.18552090 eV
  | Occupation number:      0.00000000

  Overall HOMO-LUMO gap:     10.49259262 eV.

  Total energy components:
  | Sum of eigenvalues            :         -45.63928644 Ha       -1241.90817171 eV
  | XC energy correction          :          -8.80439764 Ha        -239.57984944 eV
  | XC potential correction       :          11.59666238 Ha         315.56123898 eV
  | Free-atom electrostatic energy:         -35.29348674 Ha        -960.38463811 eV
  | Hartree energy correction     :           1.96676549 Ha          53.51841197 eV
  | Entropy correction            :          -0.00000000 Ha          -0.00000000 eV
  | ---------------------------
[...]
  | Largest tracked array allocation on task 0 so far         :           0.019 MB  when allocating H_times_psi
  Note:  These values currently only include a subset of arrays which are explicitly tracked.
  The "true" memory usage will be greater.
------------------------------------------------------------

------------------------------------------------------------
          Begin self-consistency iteration #   12

  Date     :  20190509, Time     :  114706.706
------------------------------------------------------------
  Evaluating new KS density.
  Integration grid: deviation in total charge (<rho> - N_e) =  -8.881784E-15
  Pulay mixing of updated and previous charge densities.

  Evaluating partitioned Hartree potential by multipole expansion.
  | Analytical far-field extrapolation by fixed multipoles:
  | Hartree multipole sum: apparent total charge =   0.999566E+00
  Summing up the Hartree potential.
  Time summed over all CPUs for potential: real work        0.016 s, elapsed        0.016 s
  | RMS charge density error from multipole expansion :   0.926639E-02

  Integrating Hamiltonian matrix: batch-based integration.
  Time summed over all CPUs for integration: real work        0.028 s, elapsed        0.028 s

  Updating Kohn-Sham eigenvalues, eigenvectors, occupation numbers, and Fermi level.
  Solving generalized eigenproblem
  Updating Kohn-Sham eigenvalues and eigenfunctions.
  Solving real generalised eigenvalue problem by standard LAPACK (fast)

  Obtaining occupation numbers and chemical potential using ELSI.
  | Chemical potential (Fermi level):   -12.14452835eV
  Highest occupied state (VBM) at    -18.67810823 eV
  | Occupation number:      2.00000000

  Lowest unoccupied state (CBM) at    -8.18551830 eV
  | Occupation number:      0.00000000

  Overall HOMO-LUMO gap:     10.49258992 eV.

  Total energy components:
  | Sum of eigenvalues            :         -45.63928373 Ha       -1241.90809790 eV
  | XC energy correction          :          -8.80439811 Ha        -239.57986233 eV
  | XC potential correction       :          11.59666301 Ha         315.56125598 eV
  | Free-atom electrostatic energy:         -35.29348674 Ha        -960.38463811 eV
  | Hartree energy correction     :           1.96676262 Ha          53.51833401 eV
  | Entropy correction            :          -0.00000000 Ha          -0.00000000 eV
  | ---------------------------
  | Total energy                  :         -76.17374295 Ha       -2072.79300835 eV
  | Total energy, T -> 0          :         -76.17374295 Ha       -2072.79300835 eV  <-- do not rely on this value for anything but (periodic) metals
  | Electronic free energy        :         -76.17374295 Ha       -2072.79300835 eV

  Derived energy quantities:
  | Kinetic energy                :          75.82979921 Ha        2063.43382294 eV
  | Electrostatic energy          :        -143.19914406 Ha       -3896.64696896 eV
  | Energy correction for multipole
  | error in Hartree potential    :           0.00621988 Ha           0.16925151 eV
  | Sum of eigenvalues per atom                           :        -310.47702447 eV
  | Total energy (T->0) per atom                          :        -518.19825209 eV  <-- do not rely on this value for anything but (periodic) metals
  | Electronic free energy per atom                       :        -518.19825209 eV

  Self-consistency convergence accuracy:
  | Change of charge density      :  0.6904E-06
  | Change of sum of eigenvalues  :  0.7381E-04 eV
  | Change of total energy        : -0.2296E-07 eV

  Electronic self-consistency reached - switching on the force computation.

  End self-consistency iteration #    12       :  max(cpu_time)    wall_clock(cpu1)
  | Time for this iteration                    :        0.059 s           0.059 s
  | Charge density & force component update    :        0.011 s           0.011 s
  | Density mixing                             :        0.001 s           0.001 s
  | Hartree multipole update                   :        0.002 s           0.002 s
  | Hartree multipole summation                :        0.016 s           0.016 s
  | Integration                                :        0.028 s           0.028 s
  | Solution of K.-S. eqns.                    :        0.000 s           0.001 s
  | Total energy evaluation                    :        0.000 s           0.000 s

  Partial memory accounting:
  | Current value for overall tracked memory usage on task 0  :           0.020 MB
  | Peak value for overall tracked memory usage on task 0     :           0.085 MB after allocating wave
  | Largest tracked array allocation on task 0 so far         :           0.019 MB  when allocating H_times_psi
  Note:  These values currently only include a subset of arrays which are explicitly tracked.
  The "true" memory usage will be greater.
------------------------------------------------------------

------------------------------------------------------------
          Begin self-consistency iteration #   13

  Date     :  20190509, Time     :  114706.765
------------------------------------------------------------
  Evaluating new KS density and force components.
  Integration grid: deviation in total charge (<rho> - N_e) =   3.552714E-15
  Pulay mixing of updated and previous charge densities.

  Evaluating partitioned Hartree potential by multipole expansion.
  | Analytical far-field extrapolation by fixed multipoles:
  | Hartree multipole sum: apparent total charge =   0.999566E+00
  Summing up the Hartree potential.
  Time summed over all CPUs for potential: real work        0.051 s, elapsed        0.051 s
  | RMS charge density error from multipole expansion :   0.926639E-02

  Integrating Hamiltonian matrix: batch-based integration.
  Time summed over all CPUs for integration: real work        0.028 s, elapsed        0.028 s

  Updating Kohn-Sham eigenvalues, eigenvectors, occupation numbers, and Fermi level.
  Solving generalized eigenproblem
  Updating Kohn-Sham eigenvalues and eigenfunctions.
  Solving real generalised eigenvalue problem by standard LAPACK (fast)

  Obtaining occupation numbers and chemical potential using ELSI.
  | Chemical potential (Fermi level):   -12.14452774eV
  Highest occupied state (VBM) at    -18.67810727 eV
  | Occupation number:      2.00000000

  Lowest unoccupied state (CBM) at    -8.18551784 eV
  | Occupation number:      0.00000000

  Overall HOMO-LUMO gap:     10.49258943 eV.

  Total energy components:
  | Sum of eigenvalues            :         -45.63928328 Ha       -1241.90808565 eV
  | XC energy correction          :          -8.80439817 Ha        -239.57986394 eV
  | XC potential correction       :          11.59666308 Ha         315.56125811 eV
  | Free-atom electrostatic energy:         -35.29348674 Ha        -960.38463811 eV
  | Hartree energy correction     :           1.96676216 Ha          53.51832124 eV
  | Entropy correction            :          -0.00000000 Ha          -0.00000000 eV
  | ---------------------------
  | Total energy                  :         -76.17374295 Ha       -2072.79300835 eV
  | Total energy, T -> 0          :         -76.17374295 Ha       -2072.79300835 eV  <-- do not rely on this value for anything but (periodic) metals
  | Electronic free energy        :         -76.17374295 Ha       -2072.79300835 eV

  Derived energy quantities:
  | Kinetic energy                :          75.82979954 Ha        2063.43383189 eV
  | Electrostatic energy          :        -143.19914432 Ha       -3896.64697629 eV
  | Energy correction for multipole
  | error in Hartree potential    :           0.00621988 Ha           0.16925154 eV
  | Sum of eigenvalues per atom                           :        -310.47702141 eV
  | Total energy (T->0) per atom                          :        -518.19825209 eV  <-- do not rely on this value for anything but (periodic) metals
  | Electronic free energy per atom                       :        -518.19825209 eV

  atomic forces [eV/Ang]:
  -----------------------
  atom #    1
   Hellmann-Feynman              : -0.612387E-01  0.297420E-01 -0.884584E+01
   Ionic forces                  :  0.000000E+00  0.000000E+00  0.000000E+00
   Multipole                     :  0.618496E-03  0.886812E-03 -0.326395E+00
   Pulay                         : -0.220227E-02 -0.174311E-02  0.915444E+01
   ----------------------------------------------------------------
   Total forces(   1)            : -0.628224E-01  0.288857E-01 -0.177967E-01
  atom #    2
   Hellmann-Feynman              :  0.273480E+00 -0.152378E+00  0.154441E+00
   Ionic forces                  :  0.000000E+00  0.000000E+00  0.000000E+00
   Multipole                     :  0.499322E-01 -0.289255E-01  0.631323E-01
   Pulay                         : -0.258629E+00  0.149946E+00 -0.197319E+00
   ----------------------------------------------------------------
   Total forces(   2)            :  0.647835E-01 -0.313580E-01  0.202540E-01
  atom #    3
   Hellmann-Feynman              : -0.210855E+00 -0.117367E+00  0.132217E+00
   Ionic forces                  :  0.000000E+00  0.000000E+00  0.000000E+00
   Multipole                     : -0.497824E-01 -0.288611E-01  0.627732E-01
   Pulay                         :  0.257165E+00  0.148597E+00 -0.196382E+00
   ----------------------------------------------------------------
   Total forces(   3)            : -0.347167E-02  0.236912E-02 -0.139147E-02
  atom #    4
   Hellmann-Feynman              :  0.131446E-02  0.239669E+00  0.134367E+00
   Ionic forces                  :  0.000000E+00  0.000000E+00  0.000000E+00
   Multipole                     :  0.827494E-04  0.575940E-01  0.628697E-01
   Pulay                         :  0.117816E-03 -0.297014E+00 -0.196378E+00
   ----------------------------------------------------------------
   Total forces(   4)            :  0.151502E-02  0.249799E-03  0.858463E-03


  Self-consistency convergence accuracy:
  | Change of charge density      :  0.6618E-07
  | Change of sum of eigenvalues  :  0.1225E-04 eV
  | Change of total energy        : -0.2328E-08 eV
  | Change of forces              :  0.4598E+01 eV/A

  Writing Kohn-Sham eigenvalues.

  State    Occupation    Eigenvalue [Ha]    Eigenvalue [eV]
      1       2.00000         -19.024304         -517.67766
      2       2.00000          -1.348932          -36.70630
      3       2.00000          -0.880184          -23.95103
      4       2.00000          -0.879813          -23.94094
      5       2.00000          -0.686408          -18.67811
      6       0.00000          -0.300812           -8.18552
      7       0.00000          -0.207133           -5.63638
      8       0.00000          -0.206507           -5.61934
      9       0.00000           0.016496            0.44887
     10       0.00000           0.052141            1.41883
     11       0.00000           0.052521            1.42917
     12       0.00000           0.240874            6.55450
     13       0.00000           0.467369           12.71776

  Highest occupied state (VBM) at    -18.67810727 eV
  | Occupation number:      2.00000000

  Lowest unoccupied state (CBM) at    -8.18551784 eV
  | Occupation number:      0.00000000

  Overall HOMO-LUMO gap:     10.49258943 eV.

  Self-consistency cycle converged.

  End self-consistency iteration #    13       :  max(cpu_time)    wall_clock(cpu1)
  | Time for this iteration                    :        0.123 s           0.122 s
  | Charge density & force component update    :        0.041 s           0.040 s
  | Density mixing                             :        0.001 s           0.001 s
  | Hartree multipole update                   :        0.001 s           0.002 s
  | Hartree multipole summation                :        0.051 s           0.051 s
  | Integration                                :        0.028 s           0.028 s
  | Solution of K.-S. eqns.                    :        0.000 s           0.000 s
  | Total energy evaluation                    :        0.000 s           0.000 s

  Partial memory accounting:
  | Current value for overall tracked memory usage on task 0  :           0.020 MB
  | Peak value for overall tracked memory usage on task 0     :           0.116 MB after allocating h_times_wave
  | Largest tracked array allocation on task 0 so far         :           0.058 MB  when allocating gradient_basis_wave
  Note:  These values currently only include a subset of arrays which are explicitly tracked.
  The "true" memory usage will be greater.
------------------------------------------------------------
  ------------------------------------------------------------
   Computing monopole / dipole moments for complete molecule:
  | Total electronic charge [e]         :          0.100000000159245E+02
  | Total ionic charge [e]              :          0.110000000000000E+02
  | Total charge [e]                    :          0.999999984075483E+00
 * Warning: The system has a total charge of      0.99999998 .
 * The dipole moment depends on the choice of the origin.
  | Total dipole moment [eAng]          :         -0.113495962779784E-02         0.209852881598620E-03         0.587623679060614E+00
  | Absolute dipole moment              :          0.587624812583948E+00 eAng              /                   0.282204238231917E+01 Debye  .
  Removing unitary transformations (pure translations, rotations) from forces on atoms.
  Atomic forces before filtering:
  | Net force on center of mass :   0.444124E-05  0.146667E-03  0.192430E-02 eV/A
  | Net torque on center of mass:   0.181703E-04  0.672826E-05 -0.106273E-05 eV
  Atomic forces after filtering:
  | Net force on center of mass :  -0.696899E-17  0.213425E-17 -0.696899E-18 eV/A
  | Net torque on center of mass:   0.198797E-18 -0.414903E-18  0.295026E-17 eV

  Energy and forces in a compact form:
  | Total energy uncorrected      :         -0.207279300834942E+04 eV
  | Total energy corrected        :         -0.207279300834942E+04 eV  <-- do not rely on this value for anything but (periodic) metals
  | Electronic free energy        :         -0.207279300834942E+04 eV
  Total atomic forces (unitary forces cleaned) [eV/Ang]:
  |   1         -0.628225222703942E-01          0.288463272101587E-01         -0.182777380955182E-01
  |   2          0.647822493204211E-01         -0.313934028494957E-01          0.197829105131269E-01
  |   3         -0.347292876922302E-02          0.233303318547614E-02         -0.187037368273228E-02
  |   4          0.151320171919609E-02          0.214042453860950E-03          0.365201265123606E-03

  ------------------------------------ 
  Start decomposition of the XC Energy 
  ------------------------------------ 
  X and C from original XC functional choice 
  Hartree-Fock Energy :          0.000000000 Ha              0.000000000 eV
  X Energy            :         -8.140734675 Ha           -221.520661342 eV
  C Energy            :         -0.663663497 Ha            -18.059202602 eV
  Total XC Energy     :         -8.804398172 Ha           -239.579863944 eV
  ------------------------------------ 
  LDA X and C from self-consistent density 
  X Energy LDA        :         -8.140734675 Ha           -221.520661342 eV
  C Energy LDA        :         -0.663663497 Ha            -18.059202602 eV
  ------------------------------------ 
  End decomposition of the XC Energy 
  ------------------------------------ 

------------------------------------------------------------

------------------------------------------------------------------------------
  Final output of selected total energy values:

  The following output summarizes some interesting total energy values
  at the end of a run (AFTER all relaxation, molecular dynamics, etc.).

  | Total energy of the DFT / Hartree-Fock s.c.f. calculation      :          -2072.793008349 eV
  | Final zero-broadening corrected energy (caution - metals only) :          -2072.793008349 eV
  | For reference only, the value of 1 Hartree used in FHI-aims is :             27.211384500 eV

  Before relying on these values, please be sure to understand exactly which
  total energy value is referred to by a given number. Different objects may
  all carry the same name 'total energy'. Definitions:

  Total energy of the DFT / Hartree-Fock s.c.f. calculation:
  | Note that this energy does not include ANY quantities calculated after the
  | s.c.f. cycle, in particular not ANY RPA, MP2, etc. many-body perturbation terms.

  Final zero-broadening corrected energy:
  | For metallic systems only, a broadening of the occupation numbers at the Fermi
  | level can be extrapolated back to zero broadening by an electron-gas inspired
  | formula. For all systems that are not real metals, this value can be
  | meaningless and should be avoided.

------------------------------------------------------------------------------
  Methods described in the following list of references were used in this FHI-aims run.
  If you publish the results, please make sure to cite these reference if they apply.
  FHI-aims is an academic code, and for our developers (often, Ph.D. students
  and postdocs), scientific credit in the community is essential.
  Thank you for helping us!

  For any use of FHI-aims, please cite:

    Volker Blum, Ralf Gehrke, Felix Hanke, Paula Havu, Ville Havu,
    Xinguo Ren, Karsten Reuter, and Matthias Scheffler
    'Ab initio molecular simulations with numeric atom-centered orbitals'
    Computer Physics Communications 180, 2175-2196 (2009)
    http://dx.doi.org/10.1016/j.cpc.2009.06.022


  For the real-space grid partitioning and parallelization used in this calculation, please cite:

    Ville Havu, Volker Blum, Paula Havu, and Matthias Scheffler,
    'Efficient O(N) integration for all-electron electronic structure calculation'
    'using numerically tabulated basis functions'
    Journal of Computational Physics 228, 8367-8379 (2009).
    http://dx.doi.org/10.1016/j.jcp.2009.08.008

  Of course, there are many other important community references, e.g., those cited in the
  above references. Our list is limited to references that describe implementations in the
  FHI-aims code. The reason is purely practical (length of this list) - please credit others as well.

------------------------------------------------------------
          Leaving FHI-aims.
          Date     :  20190509, Time     :  114706.901

          Computational steps:
          | Number of self-consistency cycles          :           13
          | Number of SCF (re)initializations          :            1

          Detailed time accounting                     :  max(cpu_time)    wall_clock(cpu1)
          | Total time                                 :        0.991 s           0.991 s
          | Preparation time                           :        0.049 s           0.050 s
          | Boundary condition initalization           :        0.000 s           0.000 s
          | Grid partitioning                          :        0.015 s           0.014 s
          | Preloading free-atom quantities on grid    :        0.001 s           0.001 s
          | Free-atom superposition energy             :        0.012 s           0.012 s
          | Total time for integrations                :        0.418 s           0.417 s
          | Total time for solution of K.-S. equations :        0.003 s           0.006 s
          | Total time for density & force components  :        0.181 s           0.180 s
          | Total time for mixing                      :        0.009 s           0.008 s
          | Total time for Hartree multipole update    :        0.020 s           0.022 s
          | Total time for Hartree multipole sum       :        0.253 s           0.251 s
          | Total time for total energy evaluation     :        0.001 s           0.000 s

 This is a stub MPI_ALLREDUCE call.
 You should not be here. Check your
 setting on the use_mpi variable, or
 link against true MPI-libraries.
