------------------------------------------------------------
          Invoking FHI-aims ...
          Version 171221_1
          Compiled on 2019/05/06 at 14:26:40 on host ffph0xx.

          When using FHI-aims, please cite the following reference:

          Volker Blum, Ralf Gehrke, Felix Hanke, Paula Havu,
          Ville Havu, Xinguo Ren, Karsten Reuter, and Matthias Scheffler,
          'Ab Initio Molecular Simulations with Numeric Atom-Centered Orbitals',
          Computer Physics Communications 180, 2175-2196 (2009)

          For any questions about FHI-aims, please visit the aimsclub website
          with its forums and wiki. Contributions to both the forums and the
          wiki are warmly encouraged - they are for you, and everyone is welcome there.

------------------------------------------------------------



  Date     :  20190514, Time     :  123551.751
  Time zero on CPU 1             :   0.635000000000000E-03  s.
  Internal wall clock time zero  :           327069351.751  s.

  FHI-aims created a unique identifier for this run for later identification
  aims_uuid : 3CB20478-F3C5-4308-A0F3-EF0493F49126


  Performing system and environment tests:
  *** Environment variable OMP_NUM_THREADS is not set
  *** For performance reasons you might want to set it to 1
  | Stacksize not measured: no C compiler

  Obtaining array dimensions for all initial allocations:
  
  -----------------------------------------------------------------------
  Parsing control.in (first pass over file, find array dimensions only).
  The contents of control.in will be repeated verbatim below
  unless switched off by setting 'verbatim_writeout .false.' .
  in the first line of control.in .
  -----------------------------------------------------------------------
  
  #--- method ---
  xc pw-lda
  spin none
  relativistic atomic_zora scalar
  #---
  
  #--- k-grid settings ---
  k_grid 12 12 12
  #---
  
  
  
  
  
  
  
  
  
  
  
  #-------------------------------------------------------------------------------
  #--- Species defaults for Si
  #-------------------------------------------------------------------------------
  
  ################################################################################
  #
  #  FHI-aims code project
  #  VB, Fritz-Haber Institut, 2009
  #
  #  Suggested "light" defaults for Si atom (to be pasted into control.in file)
  #  Be sure to double-check any results obtained with these settings for post-processing,
  #  e.g., with the "tight" defaults and larger basis sets.
  #
  ################################################################################
    species        Si
  #     global species definitions
      nucleus             14
      mass                28.0855
  #
      l_hartree           4
  #
      cut_pot             3.5          1.5  1.0
      basis_dep_cutoff    1e-4
  #
      radial_base         42 5.0
      radial_multiplier   1
      angular_grids       specified
        division   0.5866   50
        division   0.9616  110
        division   1.2249  194
        division   1.3795  302
  #      division   1.4810  434
  #      division   1.5529  590
  #      division   1.6284  770
  #      division   1.7077  974
  #      division   2.4068 1202
  #      outer_grid   974
        outer_grid 302
  ################################################################################
  #
  #  Definition of "minimal" basis
  #
  ################################################################################
  #     valence basis states
      valence      3  s   2.
      valence      3  p   2.
  #     ion occupancy
      ion_occ      3  s   1.
      ion_occ      3  p   1.
  ################################################################################
  #
  #  Suggested additional basis functions. For production calculations,
  #  uncomment them one after another (the most important basis functions are
  #  listed first).
  #
  #  Constructed for dimers: 1.75 A, 2.0 A, 2.25 A, 2.75 A, 3.75 A
  #
  ################################################################################
  #  "First tier" - improvements: -571.96 meV to -37.03 meV
       hydro 3 d 4.2
       hydro 2 p 1.4
  #     hydro 4 f 6.2
       ionic 3 s auto
  #  "Second tier" - improvements: -16.76 meV to -3.03 meV
  #     hydro 3 d 9
  #     hydro 5 g 9.4
  #     hydro 4 p 4
  #     hydro 1 s 0.65
  #  "Third tier" - improvements: -3.89 meV to -0.60 meV
  #     ionic 3 d auto
  #     hydro 3 s 2.6
  #     hydro 4 f 8.4
  #     hydro 3 d 3.4
  #     hydro 3 p 7.8
  #  "Fourth tier" - improvements: -0.33 meV to -0.11 meV
  #     hydro 2 p 1.6
  #     hydro 5 g 10.8
  #     hydro 5 f 11.2
  #     hydro 3 d 1
  #     hydro 4 s 4.5
  #  Further basis functions that fell out of the optimization - noise
  #  level... < -0.08 meV
  #     hydro 4 d 6.6
  #     hydro 5 g 16.4
  #     hydro 4 d 9
  
  -----------------------------------------------------------------------
  Completed first pass over input file control.in .
  -----------------------------------------------------------------------
  
  
  -----------------------------------------------------------------------
  Parsing geometry.in (first pass over file, find array dimensions only).
  The contents of geometry.in will be repeated verbatim below
  unless switched off by setting 'verbatim_writeout .false.' .
  in the first line of geometry.in .
  -----------------------------------------------------------------------
  
  lattice_vector  -2.250000   2.250000   2.250000
  lattice_vector   2.250000  -2.250000   2.250000
  lattice_vector   2.250000   2.250000  -2.250000
  atom_frac   0.000000   0.000000   0.000000 Si
  
  -----------------------------------------------------------------------
  Completed first pass over input file geometry.in .
  -----------------------------------------------------------------------
  

  Basic array size parameters:
  | Number of species                 :        1
  | Number of atoms                   :        1
  | Number of lattice vectors         :        3
  | Max. basis fn. angular momentum   :        2
  | Max. atomic/ionic basis occupied n:        3
  | Max. number of basis fn. types    :        3
  | Max. radial fns per species/type  :        5
  | Max. logarithmic grid size        :     1346
  | Max. radial integration grid size :       42
  | Max. angular integration grid size:      302
  | Max. angular grid division number :        8
  | Radial grid for Hartree potential :     1346
  | Number of spin channels           :        1

------------------------------------------------------------
          Reading file control.in.
------------------------------------------------------------
  XC: Using Perdew-Wang parametrisation of Ceperley-Alder LDA.
  Spin treatment: No spin polarisation.
  Scalar relativistic treatment of kinetic energy: on-site free-atom approximation to ZORA.
  Found k-point grid:        12        12        12

  Reading configuration options for species Si                  .
  | Found nuclear charge :  14.0000
  | Found atomic mass :    28.085500000000000      amu
  | Found l_max for Hartree potential  :   4
  | Found cutoff potl. onset [A], width [A], scale factor :    3.50000    1.50000    1.00000
  | Threshold for basis-dependent cutoff potential is   0.100000E-03
  | Found data for basic radial integration grid :    42 points, outermost radius =    5.000 A
  | Found multiplier for basic radial grid :   1
  | Found angular grid specification: user-specified.
  | Specified grid contains     5 separate shells.
  | Check grid settings after all constraints further below.
  | Found free-atom valence shell :  3 s   2.000
  | Found free-atom valence shell :  3 p   2.000
  | Found free-ion valence shell :  3 s   1.000
  | Found free-ion valence shell :  3 p   1.000
  | Found hydrogenic basis function :  3 d   4.200
  | Found hydrogenic basis function :  2 p   1.400
  | Found ionic basis function :  3 s , default cutoff radius.
  Species Si                  : Missing cutoff potential type.
  Defaulting to exp(1/x)/(1-x)^2 type cutoff potential.
  Species Si: No 'logarithmic' tag. Using default grid for free atom:
  | Default logarithmic grid data [bohr] : 0.1000E-03 0.1000E+03 0.1012E+01
  | Will include ionic basis functions of  2.0-fold positive Si                   ion.
  Species Si: On-site basis accuracy parameter (for Gram-Schmidt orthonormalisation) not specified.
  Using default value basis_acc =  0.1000000E-03.
  Species Si                  : Using default innermost maximum threshold i_radial=  2 for radial functions.
  Species Si                  : Default cutoff onset for free atom density etc. : 0.35000000E+01 AA.
  Species Si                  : Basic radial grid will be enhanced according to radial_multiplier =   1, to contain    42 grid points.

  Finished reading input file 'control.in'. Consistency checks are next.

  MPI_IN_PLACE appears to work with this MPI implementation.
  | Keeping use_mpi_in_place .true. (see manual).
  Target number of points in a grid batch is not set. Defaulting to  100
  Method for grid partitioning is not set. Defaulting to 'maxmin' partitioning.
  Batch size limit is not set. Defaulting to    200
  By default, will store active basis functions for each batch.
  If in need of memory, prune_basis_once .false. can be used to disable this option.
  communication_type for Hartree potential was not specified.
  Defaulting to calc_hartree .
 * Attention: 
 * You may want to set distributed_spline_storage to .true. in order to save memory.
 * This doesn't harm performance and is perfectly ok unless:
 * - you get error messages in postprocessing (about missing atoms in get_rho_multipole_spl)
 * - you need full spline storage in hirshfeld_analysis
  Defaulting to Pulay charge density mixer.
  Pulay mixer: Number of relevant iterations not set.
  Defaulting to    8 iterations.
  Pulay mixer: Number of initial linear mixing iterations not set.
  Defaulting to    0 iterations.
  Work space size for distributed Hartree potential not set.
  Defaulting to   0.200000E+03 MB.
  Mixing parameter for charge density mixing has not been set.
  Using default: charge_mix_param =     0.0500.
  The mixing parameter will be adjusted in iteration number     2 of the first full s.c.f. cycle only.
  Algorithm-dependent basis array size parameters:
  | n_max_pulay                         :        8
 * Notice: The s.c.f. convergence criterion sc_accuracy_rho was not provided.
 * We used to stop in this case, and ask the user to provide reasonable
 * scf convergence criteria. However, this led some users to employ criteria
 * that led to extremely long run times, e.g., for simple relaxation.
 * We now preset a default value for sc_accuracy_rho if it is not set.
 * You may still wish to check if this setting is too tight or too loose for your needs.
 * Based on n_atoms, FHI-aims chose sc_accuracy_rho =  0.100000E-05 .
  Maximum number of self-consistency iterations not provided.
  Presetting  1000 iterations.
  Presetting      1001 iterations before the initial mixing cycle
  is restarted anyway using the sc_init_iter criterion / keyword.
  Presetting a factor      1.000 between actual scf density residual
  and density convergence criterion sc_accuracy_rho below which sc_init_iter
  takes no effect.
 * No s.c.f. convergence criteria (sc_accuracy_*) were provided in control.in.
 * The run will proceed with a reasonable default guess, but please check whether.
 * the s.c.f. cycles seem to take too much or too little time.
  Calculation of forces was not defined in control.in. No forces will be calculated.
  Geometry relaxation not requested: no relaxation will be performed.
  No accuracy limit for integral partition fn. given. Defaulting to  0.1000E-14.
  No threshold value for u(r) in integrations given. Defaulting to  0.1000E-05.
  No occupation type (smearing scheme) given. Defaulting to Gaussian broadening, width =  0.1000E-01 eV.
  The width will be adjusted in iteration number     2 of the first full s.c.f. cycle only.
  S.C.F. convergence parameters will be adjusted in iteration number     2 of the first full s.c.f. cycle only.
  No accuracy for occupation numbers given. Defaulting to  0.1000E-12.
  No threshold value for occupation numbers given. Defaulting to  0.0000E+00.
  No accuracy for fermi level given. Defaulting to  0.1000E-19.
  Maximum # of iterations to find E_F not set. Defaulting to  200.
  Preferred method for the eigenvalue solver ('KS_method') not specified in 'control.in'.
  Defaulting to serial version, 'lapack_fast'.
  Will not use alltoall communication since running on < 1024 CPUs.
  Threshold for basis singularities not set.
  Default threshold for basis singularities:  0.1000E-04
  partition_type (choice of integration weights) for integrals was not specified.
  | Using a version of the partition function of Stratmann and coworkers ('stratmann_smoother').
  | At each grid point, the set of atoms used to build the partition table is smoothly restricted to
  | only those atoms whose free-atom density would be non-zero at that grid point.
  Partitioning for Hartree potential was not defined. Using partition_type for integrals.
  | Adjusted default value of keyword multip_moments_threshold to:       0.10000000E-11
  | This value may affect high angular momentum components of the Hartree potential in periodic systems.
  Angular momentum expansion for Kerker preconditioner not set explicitly.
  | Using default value of   0
  No explicit requirement for turning off preconditioner.
  | By default, it will be turned off when the charge convergence reaches
  | sc_accuracy_rho  =   0.100000E-05
  No special mixing parameter while Kerker preconditioner is on.
  Using default: charge_mix_param =     0.0500.
  No q(lm)/r^(l+1) cutoff set for long-range Hartree potential.
  | Using default value of  0.100000E-09 .
  | Verify using the multipole_threshold keyword.
  Defaulting to new monopole extrapolation.
  Density update method: automatic selection selected.
  Using density matrix based charge density update.
  Using density matrix based charge density update.
  Using packed matrix style: index .
  Defaulting to use time-reversal symmetry for k-point grid.
------------------------------------------------------------


------------------------------------------------------------
          Reading geometry description geometry.in.
------------------------------------------------------------
  Input structure read successfully.
  The structure contains        1 atoms,  and a total of         14.000 electrons.

  Input geometry:
  | Unit cell:
  |       -2.25000000        2.25000000        2.25000000
  |        2.25000000       -2.25000000        2.25000000
  |        2.25000000        2.25000000       -2.25000000
  | Atomic structure:
  |       Atom                x [A]            y [A]            z [A]
  |    1: Species Si            0.00000000        0.00000000        0.00000000

  Lattice parameters for 3D lattice (in Angstroms) :     3.897114    3.897114    3.897114
  Angle(s) between unit vectors (in degrees)      :   109.471221  109.471221  109.471221

  |

  | The smallest distance between any two atoms is         3.89711432 AA.
  |
  | The first atom of this pair is atom number                      1 .
  | The second atom of this pair is atom number                     1 .
  | Wigner-Seitz cell of the first atom image           0     0     1 .
  | (The Wigner-Seitz cell of the second atom is 0 0 0  by definition.)

  Quantities derived from the lattice vectors:
  | Reciprocal lattice vector 1: -0.000000  1.396263  1.396263
  | Reciprocal lattice vector 2:  1.396263 -0.000000  1.396263
  | Reciprocal lattice vector 3:  1.396263  1.396263  0.000000
  | Unit cell volume                               :   0.455625E+02  A^3

  Range separation radius for Ewald summation (hartree_convergence_parameter):      5.00000000 bohr.

  Fractional coordinates:
                         L1                L2                L3
       atom_frac         0.00000000        0.00000000        0.00000000  Si

  Number of empty states per atom not set in control.in - providing a guess from actual geometry.
  | Total number of empty states used during s.c.f. cycle:        3
  If you use a very high smearing, use empty_states (per atom!) in control.in to increase this value.

  Structure-dependent array size parameters: 
  | Maximum number of distinct radial functions  :        8
  | Maximum number of basis functions            :       18
  | Number of Kohn-Sham states (occupied + empty):       10
------------------------------------------------------------

------------------------------------------------------------
          Preparing all fixed parts of the calculation.
------------------------------------------------------------
  Determining machine precision:
     2.2250738585072014E-308
  Setting up grids for atomic and cluster calculations.

  Creating wave function, potential, and density for free atoms.

  Species: Si

  List of occupied orbitals and eigenvalues:
    n    l              occ      energy [Ha]    energy [eV]
    1    0           2.0000       -65.491668     -1782.1190
    2    0           2.0000        -5.087967      -138.4506
    3    0           2.0000        -0.391471       -10.6525
    2    1           6.0000        -3.502246       -95.3010
    3    1           2.0000        -0.143943        -3.9169

  Creating fixed part of basis set: Ionic, confined, hydrogenic.

  Si                   ion:

  List of free ionic orbitals and eigenvalues:
    n    l      energy [Ha]    energy [eV]
    1    0       -66.364436     -1805.8682
    2    0        -5.935799      -161.5213
    3    0        -1.078166       -29.3384
    2    1        -4.351123      -118.4001
    3    1        -0.781733       -21.2720


  List of ionic basis orbitals and eigenvalues:
    n    l      energy [Ha]    energy [eV]    outer radius [A]
    3    0        -1.078146       -29.3378       4.214062


  Si                   hydrogenic:

  List of hydrogenic basis orbitals: 
    n    l      effective z      eigenvalue [eV]  inner max. [A]     outer max. [A]     outer radius [A]   
    3    2         4.200000       -26.6624           1.139231           1.139231           4.534782
    2    1         1.400000        -6.4613           1.472672           1.472672           4.590560


  Adding cutoff potential to free-atom effective potential.
  Creating atomic-like basis functions for current effective potential.

  Species Si                  :

  List of atomic basis orbitals and eigenvalues:
    n    l      energy [Ha]    energy [eV]    outer radius [A]
    1    0       -65.491668     -1782.1190       0.789468
    2    0        -5.087967      -138.4506       2.815114
    3    0        -0.391471       -10.6525       4.534782
    2    1        -3.502246       -95.3010       3.259919
    3    1        -0.143943        -3.9169       4.590560

  Assembling full basis from fixed parts.
  | Species Si :   atomic orbital   1 s accepted.
  | Species Si :   atomic orbital   2 s accepted.
  | Species Si :    ionic orbital   3 s accepted.
  | Species Si :   atomic orbital   3 s accepted.
  | Species Si :   atomic orbital   2 p accepted.
  | Species Si :   atomic orbital   3 p accepted.
  | Species Si :    hydro orbital   2 p accepted.
  | Species Si :    hydro orbital   3 d accepted.

  Basis size parameters after reduction:
  | Total number of radial functions:        8
  | Total number of basis functions :       18

  Per-task memory consumption for arrays in subroutine allocate_ext:
  |           2.757468MB.
  Testing on-site integration grid accuracy.
  |  Species  Function  <phi|h_atom|phi> (log., in eV)  <phi|h_atom|phi> (rad., in eV)
           1        1              -1782.1189727076              -1782.1182429251
           1        2               -138.4506350693               -138.4506310079
           1        3                -10.3030408815                -10.3029120678
           1        4                  5.0238999146                  4.9457540310 ***
           1        5                -95.3009689499                -95.3009689315
           1        6                 -3.9266496564                 -3.9420918374
           1        7                  6.3453628447                  6.1632372158 ***
           1        8                  6.2883050744                  6.2861881409
 * Note: Onsite integrals marked "***" above are less accurate than
 * onsite_accuracy_threshold =    0.03000 eV. Usually, this is harmless.
 * When in doubt, tighten the "radial" and/or "radial_multiplier" flags to check.

  Preparing densities etc. for the partition functions (integrals / Hartree potential).

  Preparations completed.
  max(cpu_time)          :      0.101 s.
  Wall clock time (cpu1) :      0.101 s.
------------------------------------------------------------

------------------------------------------------------------
          Begin self-consistency loop: Initialization.

          Date     :  20190514, Time     :  123551.853
------------------------------------------------------------

  Initializing index lists of integration centers etc. from given atomic structure:
  Mapping all atomic coordinates to central unit cell.

  Initializing the k-points
          Using symmetry for reducing the k-points
  | k-points reduced from:     1728 to      868
  | Number of k-points                             :       868
  The eigenvectors in the calculations are COMPLEX.
  | K-points in task   0:       868
  | Number of basis functions in the Hamiltonian integrals :       556
  | Number of basis functions in a single unit cell        :        18
  | Number of centers in hartree potential         :       459
  | Number of centers in hartree multipole         :       113
  | Number of centers in electron density summation:        65
  | Number of centers in basis integrals           :        65
  | Number of centers in integrals                 :        51
  | Number of centers in hamiltonian               :        65
  | Consuming        895 KiB for k_phase.
  | Number of super-cells (origin) [n_cells]                     :        2197
  | Number of super-cells (after PM_index) [n_cells]             :          66
  | Number of super-cells in hamiltonian [n_cells_in_hamiltonian]:          66
  | Size of matrix packed + index [n_hamiltonian_matrix_size] :        9372
  Partitioning the integration grid into batches with maxmin method.
  | Maximal weight for a single point:     1.000
  | Minimal weight for a single point:     0.497
  | Number of batches:       64
  | Maximal batch size:      90
  | Minimal batch size:      85
  | Average batch size:      87.562
  | Standard deviation of batch sizes:       1.499
  Initializing partition tables, free-atom densities, potentials, etc. across the integration grid (initialize_grid_storage).
  | initialize_grid_storage: Actual outermost partition radius vs. multipole_radius_free
  | (-- VB: in principle, multipole_radius_free should be larger, hence this output)
  | Species        1: Confinement radius =              4.999999999999999 AA, multipole_radius_free =              5.000694715736543 AA.
  | Species        1: outer_partition_radius set to              5.000694715736543 AA .
  | Original list of interatomic distances with          65 x         65 entries is created.
  | Net number of integration points:     5604
  | of which are non-zero points    :     5280
  | Numerical average free-atom electrostatic potential    :     -5.77379296 eV
  Renormalizing the initial density to the exact electron count on the 3D integration grid.
  | Initial density: Formal number of electrons (from input files) :      14.0000000000
  | Integrated number of electrons on 3D grid     :      14.0000639192
  | Charge integration error                      :       0.0000639192
  | Normalization factor for density and gradient :       0.9999954344
  Obtaining max. number of non-zero basis functions in each batch (get_n_compute_maxes).
  | Maximal number of non-zero basis functions:      226 in task     0
  Allocating        2.500 MB for KS_eigenvector_complex
  Integrating Hamiltonian matrix: batch-based integration.
  Time summed over all CPUs for integration: real work        0.087 s, elapsed        0.087 s
  Integrating overlap matrix.
  Time summed over all CPUs for integration: real work        0.059 s, elapsed        0.060 s
  Decreasing sparse matrix size:
   Tolerance:   9.9999998245167004E-014
   Hamiltonian matrix
  | Array has     7067 nonzero elements out of     9372 elements
  | Sparsity factor is 0.246
   Overlap matrix
  | Array has     6575 nonzero elements out of     9372 elements
  | Sparsity factor is 0.298
  New size of hamiltonian matrix:        7206

  Updating Kohn-Sham eigenvalues, eigenvectors, occupation numbers, and Fermi level.
  Solving generalized eigenproblem
  Transforming overlap matrix and checking for singularities.
  Overlap matrix is nonsingular at first k-point:
  | Lowest eigenvalue:  0.232642E-01

  Obtaining occupation numbers and chemical potential using ELSI.
  | Chemical potential (Fermi level):    -4.57526505eV
  Writing Kohn-Sham eigenvalues.
  K-point:       1 at    0.000000    0.000000    0.000000 (in units of recip. lattice)

  State    Occupation    Eigenvalue [Ha]    Eigenvalue [eV]
      1       2.00000         -65.491664        -1782.11886
      2       2.00000          -5.087999         -138.45150
      3       2.00000          -3.502279          -95.30186
      4       2.00000          -3.502279          -95.30186
      5       2.00000          -3.502279          -95.30186
      6       2.00000          -0.452202          -12.30503
      7       0.00000          -0.064193           -1.74677
      8       0.00000          -0.064193           -1.74677
      9       0.00000          -0.064193           -1.74677
     10       0.00000           0.099920            2.71896

  What follows are estimated values for band gap, HOMO, LUMO, etc.
  | They are estimated on a discrete k-point grid and not necessarily exact.
  | For converged numbers, create a DOS and/or band structure plot on a denser k-grid.

  Highest occupied state (VBM) at     -4.59461344 eV (relative to internal zero)
  | Occupation number:      1.99378610
  | K-point:     574 at    0.416667    0.583333    0.500000 (in units of recip. lattice)

  Lowest unoccupied state (CBM) at    -4.56556173 eV (relative to internal zero)
  | Occupation number:      0.16998356
  | K-point:     743 at    0.666667    0.500000    0.250000 (in units of recip. lattice)

  ESTIMATED overall HOMO-LUMO gap:      0.02905171 eV between HOMO at k-point 574 and LUMO at k-point 743
  | This appears to be an indirect band gap.
  | Smallest direct gap :      0.06121458 eV for k_point 662 at    0.666667    0.500000    0.250000 (in units of recip. lattice)
  However, this system has fractional occupation numbers. Since we use a finite k-point grid,
  this material is metallic within the approximate finite broadening function (occupation_type)
  applied to determine the occupation numbers.
  Calculating total energy contributions from superposition of free atom densities.

  Total energy components:
  | Sum of eigenvalues            :        -163.37476921 Ha       -4445.65366264 eV
  | XC energy correction          :         -19.65361724 Ha        -534.80213546 eV
  | XC potential correction       :          25.96732668 Ha         706.60691066 eV
  | Free-atom electrostatic energy:        -132.19704388 Ha       -3597.26459088 eV
  | Hartree energy correction     :          -0.00000000 Ha          -0.00000000 eV
  | Entropy correction            :          -0.00000145 Ha          -0.00003946 eV
  | ---------------------------
  | Total energy                  :        -289.25810366 Ha       -7871.11347832 eV
  | Total energy, T -> 0          :        -289.25810511 Ha       -7871.11351778 eV  <-- do not rely on this value for anything but (periodic) metals
  | Electronic free energy        :        -289.25810656 Ha       -7871.11355724 eV

  Derived energy quantities:
  | Kinetic energy                :         289.54702745 Ha        7878.97549483 eV
  | Electrostatic energy          :        -559.15151387 Ha      -15215.28683769 eV
  | Energy correction for multipole
  | error in Hartree potential    :           0.00000000 Ha           0.00000000 eV
  | Sum of eigenvalues per atom                           :       -4445.65366264 eV
  | Total energy (T->0) per atom                          :       -7871.11351778 eV  <-- do not rely on this value for anything but (periodic) metals
  | Electronic free energy per atom                       :       -7871.11355724 eV
  Initialize hartree_potential_storage
  Max. number of atoms included in rho_multipole:            1

  End scf initialization - timings             :  max(cpu_time)    wall_clock(cpu1)
  | Time for scf. initialization               :        0.454 s           0.454 s
  | Boundary condition initialization          :        0.037 s           0.037 s
  | Integration                                :        0.147 s           0.147 s
  | Solution of K.-S. eqns.                    :        0.228 s           0.228 s
  | Grid partitioning                          :        0.009 s           0.009 s
  | Preloading free-atom quantities on grid    :        0.001 s           0.001 s
  | Free-atom superposition energy             :        0.008 s           0.008 s
  | Total energy evaluation                    :        0.000 s           0.000 s

  Partial memory accounting:
  | Current value for overall tracked memory usage on task 0  :           2.644 MB
  | Peak value for overall tracked memory usage on task 0     :           3.584 MB after allocating wave
  | Largest tracked array allocation on task 0 so far         :           2.500 MB  when allocating +KS_eigenvector_complex
  Note:  These values currently only include a subset of arrays which are explicitly tracked.
  The "true" memory usage will be greater.
------------------------------------------------------------

------------------------------------------------------------
          Begin self-consistency iteration #    1

  Date     :  20190514, Time     :  123552.307
------------------------------------------------------------
  Evaluating new KS density using the density matrix
  Evaluating density matrix
  Time summed over all CPUs for getting density from density matrix: real work        0.134 s, elapsed        0.134 s
  Integration grid: deviation in total charge (<rho> - N_e) =  -1.687539E-13
  Pulay mixing of updated and previous charge densities.

  Evaluating partitioned Hartree potential by multipole expansion.
  | Analytical far-field extrapolation by fixed multipoles:
  | Hartree multipole sum: apparent total charge =  -0.786762E-04
  Summing up the Hartree potential.
  | Estimated reciprocal-space cutoff momentum G_max:         1.84432723 bohr^-1 .
  | Reciprocal lattice points for long-range Hartree potential:      42
  Time summed over all CPUs for potential: real work        0.123 s, elapsed        0.123 s
  | RMS charge density error from multipole expansion :   0.543560E-04
  | Average real-space part of the electrostatic potential :     -0.01277176 eV

  Integrating Hamiltonian matrix: batch-based integration.
  Time summed over all CPUs for integration: real work        0.086 s, elapsed        0.086 s

  Updating Kohn-Sham eigenvalues, eigenvectors, occupation numbers, and Fermi level.
  Solving generalized eigenproblem

  Obtaining occupation numbers and chemical potential using ELSI.
  | Chemical potential (Fermi level):    -4.58560413eV
  Writing Kohn-Sham eigenvalues.
  K-point:       1 at    0.000000    0.000000    0.000000 (in units of recip. lattice)

  State    Occupation    Eigenvalue [Ha]    Eigenvalue [eV]
      1       2.00000         -65.494307        -1782.19078
      2       2.00000          -5.089865         -138.50227
      3       2.00000          -3.504200          -95.35413
      4       2.00000          -3.504200          -95.35413
      5       2.00000          -3.504200          -95.35413
      6       2.00000          -0.452670          -12.31779
      7       0.00000          -0.064747           -1.76185
      8       0.00000          -0.064747           -1.76185
      9       0.00000          -0.064747           -1.76185
     10       0.00000           0.099410            2.70508

  What follows are estimated values for band gap, HOMO, LUMO, etc.
  | They are estimated on a discrete k-point grid and not necessarily exact.
  | For converged numbers, create a DOS and/or band structure plot on a denser k-grid.

  Highest occupied state (VBM) at     -4.60537754 eV (relative to internal zero)
  | Occupation number:      1.99483218
  | K-point:     663 at    0.500000    0.416667    0.583333 (in units of recip. lattice)

  Lowest unoccupied state (CBM) at    -4.57599934 eV (relative to internal zero)
  | Occupation number:      0.17436130
  | K-point:     707 at    0.583333    0.500000    0.250000 (in units of recip. lattice)

  ESTIMATED overall HOMO-LUMO gap:      0.02937820 eV between HOMO at k-point 663 and LUMO at k-point 707
  | This appears to be an indirect band gap.
  | Smallest direct gap :      0.06109972 eV for k_point 663 at    0.583333    0.500000    0.250000 (in units of recip. lattice)
  However, this system has fractional occupation numbers. Since we use a finite k-point grid,
  this material is metallic within the approximate finite broadening function (occupation_type)
  applied to determine the occupation numbers.

  Total energy components:
  | Sum of eigenvalues            :        -163.39713654 Ha       -4446.26230858 eV
  | XC energy correction          :         -19.65171526 Ha        -534.75038007 eV
  | XC potential correction       :          25.96481817 Ha         706.53865077 eV
  | Free-atom electrostatic energy:        -132.19704388 Ha       -3597.26459088 eV
  | Hartree energy correction     :           0.02309599 Ha           0.62847386 eV
  | Entropy correction            :          -0.00000144 Ha          -0.00003919 eV
  | ---------------------------
  | Total energy                  :        -289.25798152 Ha       -7871.11015491 eV
  | Total energy, T -> 0          :        -289.25798296 Ha       -7871.11019410 eV  <-- do not rely on this value for anything but (periodic) metals
  | Electronic free energy        :        -289.25798440 Ha       -7871.11023329 eV

  Derived energy quantities:
  | Kinetic energy                :         289.52945684 Ha        7878.49737422 eV
  | Electrostatic energy          :        -559.13572310 Ha      -15214.85714906 eV
  | Energy correction for multipole
  | error in Hartree potential    :           0.00000599 Ha           0.00016308 eV
  | Sum of eigenvalues per atom                           :       -4446.26230858 eV
  | Total energy (T->0) per atom                          :       -7871.11019410 eV  <-- do not rely on this value for anything but (periodic) metals
  | Electronic free energy per atom                       :       -7871.11023329 eV

  Self-consistency convergence accuracy:
  | Change of charge density      :  0.3065E-01
  | Change of sum of eigenvalues  : -0.6086E+00 eV
  | Change of total energy        :  0.3323E-02 eV

  End self-consistency iteration #     1       :  max(cpu_time)    wall_clock(cpu1)
  | Time for this iteration                    :        0.477 s           0.477 s
  | Charge density update                      :        0.145 s           0.145 s
  | Density mixing & preconditioning           :        0.016 s           0.016 s
  | Hartree multipole update                   :        0.000 s           0.000 s
  | Hartree multipole summation                :        0.125 s           0.125 s
  | Integration                                :        0.086 s           0.086 s
  | Solution of K.-S. eqns.                    :        0.104 s           0.105 s
  | Total energy evaluation                    :        0.000 s           0.000 s

  Partial memory accounting:
  | Current value for overall tracked memory usage on task 0  :           2.644 MB
  | Peak value for overall tracked memory usage on task 0     :           3.584 MB after allocating wave
  | Largest tracked array allocation on task 0 so far         :           2.500 MB  when allocating +KS_eigenvector_complex
  Note:  These values currently only include a subset of arrays which are explicitly tracked.
  The "true" memory usage will be greater.
------------------------------------------------------------

------------------------------------------------------------
          Begin self-consistency iteration #    2

  Date     :  20190514, Time     :  123552.784
------------------------------------------------------------
  Evaluating new KS density using the density matrix
  Evaluating density matrix
  Time summed over all CPUs for getting density from density matrix: real work        0.132 s, elapsed        0.132 s
  Integration grid: deviation in total charge (<rho> - N_e) =  -3.161915E-13
  Pulay mixing of updated and previous charge densities.

  Evaluating partitioned Hartree potential by multipole expansion.
  | Analytical far-field extrapolation by fixed multipoles:
  | Hartree multipole sum: apparent total charge =  -0.269003E-02
  Summing up the Hartree potential.
  Time summed over all CPUs for potential: real work        0.151 s, elapsed        0.151 s
  | RMS charge density error from multipole expansion :   0.104872E-02
  | Average real-space part of the electrostatic potential :     -0.23808297 eV

  Integrating Hamiltonian matrix: batch-based integration.
  Time summed over all CPUs for integration: real work        0.085 s, elapsed        0.085 s

  Updating Kohn-Sham eigenvalues, eigenvectors, occupation numbers, and Fermi level.
  Solving generalized eigenproblem

  Obtaining occupation numbers and chemical potential using ELSI.
  | Chemical potential (Fermi level):    -4.77110378eV
  What follows are estimated values for band gap, HOMO, LUMO, etc.
  | They are estimated on a discrete k-point grid and not necessarily exact.
  | For converged numbers, create a DOS and/or band structure plot on a denser k-grid.

  Highest occupied state (VBM) at     -4.79748331 eV (relative to internal zero)
  | Occupation number:      1.99980900
  | K-point:     574 at    0.416667    0.583333    0.500000 (in units of recip. lattice)

  Lowest unoccupied state (CBM) at    -4.76217604 eV (relative to internal zero)
  | Occupation number:      0.20674275
  | K-point:     358 at    0.250000    0.583333    0.500000 (in units of recip. lattice)

  ESTIMATED overall HOMO-LUMO gap:      0.03530726 eV between HOMO at k-point 574 and LUMO at k-point 358
  | This appears to be an indirect band gap.
  | Smallest direct gap :      0.05916535 eV for k_point 662 at    0.250000    0.583333    0.500000 (in units of recip. lattice)
  However, this system has fractional occupation numbers. Since we use a finite k-point grid,
  this material is metallic within the approximate finite broadening function (occupation_type)
  applied to determine the occupation numbers.

  Checking to see if s.c.f. parameters should be adjusted.
  Adjusted the Pulay mixing parameter (charge_mix_param) for an expected low-gap system. New value:   0.020000 .
  Adjusted the occupation broadening width for an expected low-gap system. New value:      0.05000000 eV.

  Total energy components:
  | Sum of eigenvalues            :        -163.78605740 Ha       -4456.84538356 eV
  | XC energy correction          :         -19.61806866 Ha        -533.83480935 eV
  | XC potential correction       :          25.92043979 Ha         705.33105365 eV
  | Free-atom electrostatic energy:        -132.19704388 Ha       -3597.26459088 eV
  | Hartree energy correction     :           0.42400764 Ha          11.53783501 eV
  | Entropy correction            :          -0.00004113 Ha          -0.00111918 eV
  | ---------------------------
  | Total energy                  :        -289.25672250 Ha       -7871.07589513 eV
  | Total energy, T -> 0          :        -289.25676363 Ha       -7871.07701432 eV  <-- do not rely on this value for anything but (periodic) metals
  | Electronic free energy        :        -289.25680476 Ha       -7871.07813350 eV

  Derived energy quantities:
  | Kinetic energy                :         289.24978387 Ha        7870.88708534 eV
  | Electrostatic energy          :        -558.88843771 Ha      -15208.12817112 eV
  | Energy correction for multipole
  | error in Hartree potential    :           0.00012924 Ha           0.00351693 eV
  | Sum of eigenvalues per atom                           :       -4456.84538356 eV
  | Total energy (T->0) per atom                          :       -7871.07701432 eV  <-- do not rely on this value for anything but (periodic) metals
  | Electronic free energy per atom                       :       -7871.07813350 eV

  Self-consistency convergence accuracy:
  | Change of charge density      :  0.2915E-01
  | Change of sum of eigenvalues  : -0.1058E+02 eV
  | Change of total energy        :  0.3426E-01 eV

  End self-consistency iteration #     2       :  max(cpu_time)    wall_clock(cpu1)
  | Time for this iteration                    :        0.503 s           0.503 s
  | Charge density update                      :        0.144 s           0.144 s
  | Density mixing & preconditioning           :        0.015 s           0.016 s
  | Hartree multipole update                   :        0.000 s           0.000 s
  | Hartree multipole summation                :        0.153 s           0.153 s
  | Integration                                :        0.086 s           0.085 s
  | Solution of K.-S. eqns.                    :        0.105 s           0.105 s
  | Total energy evaluation                    :        0.000 s           0.000 s

  Partial memory accounting:
  | Current value for overall tracked memory usage on task 0  :           2.645 MB
  | Peak value for overall tracked memory usage on task 0     :           3.584 MB after allocating wave
  | Largest tracked array allocation on task 0 so far         :           2.500 MB  when allocating +KS_eigenvector_complex
  Note:  These values currently only include a subset of arrays which are explicitly tracked.
  The "true" memory usage will be greater.
------------------------------------------------------------

------------------------------------------------------------
          Begin self-consistency iteration #    3

  Date     :  20190514, Time     :  123553.287
------------------------------------------------------------
  Evaluating new KS density using the density matrix
  Evaluating density matrix
  Time summed over all CPUs for getting density from density matrix: real work        0.133 s, elapsed        0.133 s
  Integration grid: deviation in total charge (<rho> - N_e) =  -2.557954E-13
  Pulay mixing of updated and previous charge densities.

  Evaluating partitioned Hartree potential by multipole expansion.
  | Analytical far-field extrapolation by fixed multipoles:
  | Hartree multipole sum: apparent total charge =  -0.356188E-02
  Summing up the Hartree potential.
  Time summed over all CPUs for potential: real work        0.155 s, elapsed        0.155 s
  | RMS charge density error from multipole expansion :   0.138211E-02
  | Average real-space part of the electrostatic potential :     -0.30364090 eV

  Integrating Hamiltonian matrix: batch-based integration.
  Time summed over all CPUs for integration: real work        0.087 s, elapsed        0.087 s

  Updating Kohn-Sham eigenvalues, eigenvectors, occupation numbers, and Fermi level.
  Solving generalized eigenproblem

  Obtaining occupation numbers and chemical potential using ELSI.
  | Chemical potential (Fermi level):    -4.83623848eV
  What follows are estimated values for band gap, HOMO, LUMO, etc.
  | They are estimated on a discrete k-point grid and not necessarily exact.
  | For converged numbers, create a DOS and/or band structure plot on a denser k-grid.

  Highest occupied state (VBM) at     -4.84610056 eV (relative to internal zero)
  | Occupation number:      1.21971062
  | K-point:     672 at    0.500000    0.500000    0.583333 (in units of recip. lattice)

  Lowest unoccupied state (CBM) at    -4.80940980 eV (relative to internal zero)
  | Occupation number:      0.44795459
  | K-point:     744 at    0.666667    0.500000    0.583333 (in units of recip. lattice)

  ESTIMATED overall HOMO-LUMO gap:      0.03669076 eV between HOMO at k-point 672 and LUMO at k-point 744
  | This appears to be an indirect band gap.
  | Smallest direct gap :      0.05872476 eV for k_point 566 at    0.666667    0.500000    0.583333 (in units of recip. lattice)
  However, this system has fractional occupation numbers. Since we use a finite k-point grid,
  this material is metallic within the approximate finite broadening function (occupation_type)
  applied to determine the occupation numbers.

  Total energy components:
  | Sum of eigenvalues            :        -163.85128276 Ha       -4458.62025592 eV
  | XC energy correction          :         -19.61399639 Ha        -533.72399737 eV
  | XC potential correction       :          25.91511227 Ha         705.18608446 eV
  | Free-atom electrostatic energy:        -132.19704388 Ha       -3597.26459088 eV
  | Hartree energy correction     :           0.49057390 Ha          13.34919510 eV
  | Entropy correction            :          -0.00003721 Ha          -0.00101249 eV
  | ---------------------------
  | Total energy                  :        -289.25663685 Ha       -7871.07356460 eV
  | Total energy, T -> 0          :        -289.25667406 Ha       -7871.07457709 eV  <-- do not rely on this value for anything but (periodic) metals
  | Electronic free energy        :        -289.25671127 Ha       -7871.07558958 eV

  Derived energy quantities:
  | Kinetic energy                :         289.26449281 Ha        7871.28733612 eV
  | Electrostatic energy          :        -558.90713328 Ha      -15208.63690336 eV
  | Energy correction for multipole
  | error in Hartree potential    :           0.00017839 Ha           0.00485435 eV
  | Sum of eigenvalues per atom                           :       -4458.62025592 eV
  | Total energy (T->0) per atom                          :       -7871.07457709 eV  <-- do not rely on this value for anything but (periodic) metals
  | Electronic free energy per atom                       :       -7871.07558958 eV

  Self-consistency convergence accuracy:
  | Change of charge density      :  0.7448E-02
  | Change of sum of eigenvalues  : -0.1775E+01 eV
  | Change of total energy        :  0.2331E-02 eV

  End self-consistency iteration #     3       :  max(cpu_time)    wall_clock(cpu1)
  | Time for this iteration                    :        0.510 s           0.510 s
  | Charge density update                      :        0.145 s           0.145 s
  | Density mixing & preconditioning           :        0.015 s           0.015 s
  | Hartree multipole update                   :        0.000 s           0.000 s
  | Hartree multipole summation                :        0.157 s           0.157 s
  | Integration                                :        0.087 s           0.087 s
  | Solution of K.-S. eqns.                    :        0.105 s           0.106 s
  | Total energy evaluation                    :        0.000 s           0.000 s

  Partial memory accounting:
  | Current value for overall tracked memory usage on task 0  :           2.646 MB
  | Peak value for overall tracked memory usage on task 0     :           3.584 MB after allocating wave
  | Largest tracked array allocation on task 0 so far         :           2.500 MB  when allocating +KS_eigenvector_complex
  Note:  These values currently only include a subset of arrays which are explicitly tracked.
  The "true" memory usage will be greater.
------------------------------------------------------------

------------------------------------------------------------
          Begin self-consistency iteration #    4

  Date     :  20190514, Time     :  123553.797
------------------------------------------------------------
  Evaluating new KS density using the density matrix
  Evaluating density matrix
  Time summed over all CPUs for getting density from density matrix: real work        0.134 s, elapsed        0.134 s
  Integration grid: deviation in total charge (<rho> - N_e) =  -3.357314E-13
  Pulay mixing of updated and previous charge densities.

  Evaluating partitioned Hartree potential by multipole expansion.
  | Analytical far-field extrapolation by fixed multipoles:
  | Hartree multipole sum: apparent total charge =  -0.356095E-02
  Summing up the Hartree potential.
  Time summed over all CPUs for potential: real work        0.156 s, elapsed        0.156 s
  | RMS charge density error from multipole expansion :   0.141470E-02
  | Average real-space part of the electrostatic potential :     -0.30354027 eV

  Integrating Hamiltonian matrix: batch-based integration.
  Time summed over all CPUs for integration: real work        0.086 s, elapsed        0.086 s

  Updating Kohn-Sham eigenvalues, eigenvectors, occupation numbers, and Fermi level.
  Solving generalized eigenproblem

  Obtaining occupation numbers and chemical potential using ELSI.
  | Chemical potential (Fermi level):    -4.83123079eV
  What follows are estimated values for band gap, HOMO, LUMO, etc.
  | They are estimated on a discrete k-point grid and not necessarily exact.
  | For converged numbers, create a DOS and/or band structure plot on a denser k-grid.

  Highest occupied state (VBM) at     -4.84081427 eV (relative to internal zero)
  | Occupation number:      1.21365650
  | K-point:     672 at    0.500000    0.500000    0.583333 (in units of recip. lattice)

  Lowest unoccupied state (CBM) at    -4.80439963 eV (relative to internal zero)
  | Occupation number:      0.44791252
  | K-point:     358 at    0.250000    0.583333    0.500000 (in units of recip. lattice)

  ESTIMATED overall HOMO-LUMO gap:      0.03641464 eV between HOMO at k-point 672 and LUMO at k-point 358
  | This appears to be an indirect band gap.
  | Smallest direct gap :      0.05878998 eV for k_point 566 at    0.250000    0.583333    0.500000 (in units of recip. lattice)
  However, this system has fractional occupation numbers. Since we use a finite k-point grid,
  this material is metallic within the approximate finite broadening function (occupation_type)
  applied to determine the occupation numbers.

  Total energy components:
  | Sum of eigenvalues            :        -163.81718775 Ha       -4457.69248345 eV
  | XC energy correction          :         -19.61786017 Ha        -533.82913621 eV
  | XC potential correction       :          25.92024023 Ha         705.32562326 eV
  | Free-atom electrostatic energy:        -132.19704388 Ha       -3597.26459088 eV
  | Hartree energy correction     :           0.45521705 Ha          12.38708621 eV
  | Entropy correction            :          -0.00003713 Ha          -0.00101030 eV
  | ---------------------------
  | Total energy                  :        -289.25663452 Ha       -7871.07350107 eV
  | Total energy, T -> 0          :        -289.25667165 Ha       -7871.07451137 eV  <-- do not rely on this value for anything but (periodic) metals
  | Electronic free energy        :        -289.25670877 Ha       -7871.07552167 eV

  Derived energy quantities:
  | Kinetic energy                :         289.33203381 Ha        7873.12522020 eV
  | Electrostatic energy          :        -558.97080816 Ha      -15210.36958506 eV
  | Energy correction for multipole
  | error in Hartree potential    :           0.00018405 Ha           0.00500814 eV
  | Sum of eigenvalues per atom                           :       -4457.69248345 eV
  | Total energy (T->0) per atom                          :       -7871.07451137 eV  <-- do not rely on this value for anything but (periodic) metals
  | Electronic free energy per atom                       :       -7871.07552167 eV

  Self-consistency convergence accuracy:
  | Change of charge density      :  0.3973E-02
  | Change of sum of eigenvalues  :  0.9278E+00 eV
  | Change of total energy        :  0.6353E-04 eV

  End self-consistency iteration #     4       :  max(cpu_time)    wall_clock(cpu1)
  | Time for this iteration                    :        0.512 s           0.512 s
  | Charge density update                      :        0.146 s           0.146 s
  | Density mixing & preconditioning           :        0.015 s           0.015 s
  | Hartree multipole update                   :        0.000 s           0.001 s
  | Hartree multipole summation                :        0.157 s           0.157 s
  | Integration                                :        0.086 s           0.086 s
  | Solution of K.-S. eqns.                    :        0.107 s           0.107 s
  | Total energy evaluation                    :        0.000 s           0.000 s

  Partial memory accounting:
  | Current value for overall tracked memory usage on task 0  :           2.646 MB
  | Peak value for overall tracked memory usage on task 0     :           3.584 MB after allocating wave
  | Largest tracked array allocation on task 0 so far         :           2.500 MB  when allocating +KS_eigenvector_complex
  Note:  These values currently only include a subset of arrays which are explicitly tracked.
  The "true" memory usage will be greater.
------------------------------------------------------------

------------------------------------------------------------
          Begin self-consistency iteration #    5

  Date     :  20190514, Time     :  123554.310
------------------------------------------------------------
  Evaluating new KS density using the density matrix
  Evaluating density matrix
  Time summed over all CPUs for getting density from density matrix: real work        0.133 s, elapsed        0.133 s
  Integration grid: deviation in total charge (<rho> - N_e) =  -4.209966E-13
  Pulay mixing of updated and previous charge densities.

  Evaluating partitioned Hartree potential by multipole expansion.
  | Analytical far-field extrapolation by fixed multipoles:
  | Hartree multipole sum: apparent total charge =  -0.161288E-02
  Summing up the Hartree potential.
  Time summed over all CPUs for potential: real work        0.160 s, elapsed        0.160 s
  | RMS charge density error from multipole expansion :   0.148505E-02
  | Average real-space part of the electrostatic potential :     -0.32718564 eV

  Integrating Hamiltonian matrix: batch-based integration.
  Time summed over all CPUs for integration: real work        0.086 s, elapsed        0.086 s

  Updating Kohn-Sham eigenvalues, eigenvectors, occupation numbers, and Fermi level.
  Solving generalized eigenproblem

  Obtaining occupation numbers and chemical potential using ELSI.
  | Chemical potential (Fermi level):    -4.83985329eV
  What follows are estimated values for band gap, HOMO, LUMO, etc.
  | They are estimated on a discrete k-point grid and not necessarily exact.
  | For converged numbers, create a DOS and/or band structure plot on a denser k-grid.

  Highest occupied state (VBM) at     -4.84969941 eV (relative to internal zero)
  | Occupation number:      1.21936410
  | K-point:     672 at    0.500000    0.500000    0.583333 (in units of recip. lattice)

  Lowest unoccupied state (CBM) at    -4.81295997 eV (relative to internal zero)
  | Occupation number:      0.44686151
  | K-point:     591 at    0.416667    0.750000    0.333333 (in units of recip. lattice)

  ESTIMATED overall HOMO-LUMO gap:      0.03673944 eV between HOMO at k-point 672 and LUMO at k-point 591
  | This appears to be an indirect band gap.
  | Smallest direct gap :      0.05869423 eV for k_point 566 at    0.416667    0.750000    0.333333 (in units of recip. lattice)
  However, this system has fractional occupation numbers. Since we use a finite k-point grid,
  this material is metallic within the approximate finite broadening function (occupation_type)
  applied to determine the occupation numbers.

  Total energy components:
  | Sum of eigenvalues            :        -163.83803744 Ha       -4458.25983258 eV
  | XC energy correction          :         -19.61531803 Ha        -533.75996101 eV
  | XC potential correction       :          25.91689364 Ha         705.23455780 eV
  | Free-atom electrostatic energy:        -132.19704388 Ha       -3597.26459088 eV
  | Hartree energy correction     :           0.47687188 Ha          12.97634406 eV
  | Entropy correction            :          -0.00003721 Ha          -0.00101247 eV
  | ---------------------------
  | Total energy                  :        -289.25663384 Ha       -7871.07348261 eV
  | Total energy, T -> 0          :        -289.25667105 Ha       -7871.07449508 eV  <-- do not rely on this value for anything but (periodic) metals
  | Electronic free energy        :        -289.25670826 Ha       -7871.07550755 eV

  Derived energy quantities:
  | Kinetic energy                :         289.31184627 Ha        7872.57588923 eV
  | Electrostatic energy          :        -558.95316208 Ha      -15209.88941083 eV
  | Energy correction for multipole
  | error in Hartree potential    :           0.00019324 Ha           0.00525824 eV
  | Sum of eigenvalues per atom                           :       -4458.25983258 eV
  | Total energy (T->0) per atom                          :       -7871.07449508 eV  <-- do not rely on this value for anything but (periodic) metals
  | Electronic free energy per atom                       :       -7871.07550755 eV

  Self-consistency convergence accuracy:
  | Change of charge density      :  0.1117E-02
  | Change of sum of eigenvalues  : -0.5673E+00 eV
  | Change of total energy        :  0.1846E-04 eV

  End self-consistency iteration #     5       :  max(cpu_time)    wall_clock(cpu1)
  | Time for this iteration                    :        0.515 s           0.515 s
  | Charge density update                      :        0.144 s           0.144 s
  | Density mixing & preconditioning           :        0.014 s           0.014 s
  | Hartree multipole update                   :        0.000 s           0.001 s
  | Hartree multipole summation                :        0.163 s           0.162 s
  | Integration                                :        0.086 s           0.087 s
  | Solution of K.-S. eqns.                    :        0.107 s           0.106 s
  | Total energy evaluation                    :        0.000 s           0.000 s

  Partial memory accounting:
  | Current value for overall tracked memory usage on task 0  :           2.646 MB
  | Peak value for overall tracked memory usage on task 0     :           3.584 MB after allocating wave
  | Largest tracked array allocation on task 0 so far         :           2.500 MB  when allocating +KS_eigenvector_complex
  Note:  These values currently only include a subset of arrays which are explicitly tracked.
  The "true" memory usage will be greater.
------------------------------------------------------------

------------------------------------------------------------
          Begin self-consistency iteration #    6

  Date     :  20190514, Time     :  123554.825
------------------------------------------------------------
  Evaluating new KS density using the density matrix
  Evaluating density matrix
  Time summed over all CPUs for getting density from density matrix: real work        0.133 s, elapsed        0.133 s
  Integration grid: deviation in total charge (<rho> - N_e) =  -2.593481E-13
  Pulay mixing of updated and previous charge densities.

  Evaluating partitioned Hartree potential by multipole expansion.
  | Analytical far-field extrapolation by fixed multipoles:
  | Hartree multipole sum: apparent total charge =  -0.153847E-03
  Summing up the Hartree potential.
  Time summed over all CPUs for potential: real work        0.155 s, elapsed        0.155 s
  | RMS charge density error from multipole expansion :   0.145307E-02
  | Average real-space part of the electrostatic potential :     -0.32499832 eV

  Integrating Hamiltonian matrix: batch-based integration.
  Time summed over all CPUs for integration: real work        0.087 s, elapsed        0.087 s

  Updating Kohn-Sham eigenvalues, eigenvectors, occupation numbers, and Fermi level.
  Solving generalized eigenproblem

  Obtaining occupation numbers and chemical potential using ELSI.
  | Chemical potential (Fermi level):    -4.83140855eV
  What follows are estimated values for band gap, HOMO, LUMO, etc.
  | They are estimated on a discrete k-point grid and not necessarily exact.
  | For converged numbers, create a DOS and/or band structure plot on a denser k-grid.

  Highest occupied state (VBM) at     -4.84104251 eV (relative to internal zero)
  | Occupation number:      1.21475442
  | K-point:     565 at    0.416667    0.500000    0.500000 (in units of recip. lattice)

  Lowest unoccupied state (CBM) at    -4.80455020 eV (relative to internal zero)
  | Occupation number:      0.44745267
  | K-point:     707 at    0.583333    0.500000    0.250000 (in units of recip. lattice)

  ESTIMATED overall HOMO-LUMO gap:      0.03649231 eV between HOMO at k-point 565 and LUMO at k-point 707
  | This appears to be an indirect band gap.
  | Smallest direct gap :      0.05876765 eV for k_point 565 at    0.583333    0.500000    0.250000 (in units of recip. lattice)
  However, this system has fractional occupation numbers. Since we use a finite k-point grid,
  this material is metallic within the approximate finite broadening function (occupation_type)
  applied to determine the occupation numbers.

  Total energy components:
  | Sum of eigenvalues            :        -163.82353605 Ha       -4457.86522953 eV
  | XC energy correction          :         -19.61596445 Ha        -533.77755102 eV
  | XC potential correction       :          25.91774901 Ha         705.25783360 eV
  | Free-atom electrostatic energy:        -132.19704388 Ha       -3597.26459088 eV
  | Hartree energy correction     :           0.46216189 Ha          12.57606487 eV
  | Entropy correction            :          -0.00003714 Ha          -0.00101068 eV
  | ---------------------------
  | Total energy                  :        -289.25663349 Ha       -7871.07347297 eV
  | Total energy, T -> 0          :        -289.25667063 Ha       -7871.07448365 eV  <-- do not rely on this value for anything but (periodic) metals
  | Electronic free energy        :        -289.25670777 Ha       -7871.07549433 eV

  Derived energy quantities:
  | Kinetic energy                :         289.31641446 Ha        7872.70019598 eV
  | Electrostatic energy          :        -558.95708349 Ha      -15209.99611792 eV
  | Energy correction for multipole
  | error in Hartree potential    :           0.00018748 Ha           0.00510156 eV
  | Sum of eigenvalues per atom                           :       -4457.86522953 eV
  | Total energy (T->0) per atom                          :       -7871.07448365 eV  <-- do not rely on this value for anything but (periodic) metals
  | Electronic free energy per atom                       :       -7871.07549433 eV

  Self-consistency convergence accuracy:
  | Change of charge density      :  0.1069E-02
  | Change of sum of eigenvalues  :  0.3946E+00 eV
  | Change of total energy        :  0.9640E-05 eV

  End self-consistency iteration #     6       :  max(cpu_time)    wall_clock(cpu1)
  | Time for this iteration                    :        0.510 s           0.510 s
  | Charge density update                      :        0.145 s           0.144 s
  | Density mixing & preconditioning           :        0.015 s           0.015 s
  | Hartree multipole update                   :        0.000 s           0.001 s
  | Hartree multipole summation                :        0.157 s           0.157 s
  | Integration                                :        0.087 s           0.087 s
  | Solution of K.-S. eqns.                    :        0.106 s           0.105 s
  | Total energy evaluation                    :        0.000 s           0.000 s

  Partial memory accounting:
  | Current value for overall tracked memory usage on task 0  :           2.646 MB
  | Peak value for overall tracked memory usage on task 0     :           3.584 MB after allocating wave
  | Largest tracked array allocation on task 0 so far         :           2.500 MB  when allocating +KS_eigenvector_complex
  Note:  These values currently only include a subset of arrays which are explicitly tracked.
  The "true" memory usage will be greater.
------------------------------------------------------------

------------------------------------------------------------
          Begin self-consistency iteration #    7

  Date     :  20190514, Time     :  123555.335
------------------------------------------------------------
  Evaluating new KS density using the density matrix
  Evaluating density matrix
  Time summed over all CPUs for getting density from density matrix: real work        0.134 s, elapsed        0.134 s
  Integration grid: deviation in total charge (<rho> - N_e) =  -2.930989E-13
  Pulay mixing of updated and previous charge densities.

  Evaluating partitioned Hartree potential by multipole expansion.
  | Analytical far-field extrapolation by fixed multipoles:
  | Hartree multipole sum: apparent total charge =  -0.288866E-03
  Summing up the Hartree potential.
  Time summed over all CPUs for potential: real work        0.155 s, elapsed        0.155 s
  | RMS charge density error from multipole expansion :   0.145259E-02
  | Average real-space part of the electrostatic potential :     -0.32484646 eV

  Integrating Hamiltonian matrix: batch-based integration.
  Time summed over all CPUs for integration: real work        0.087 s, elapsed        0.087 s

  Updating Kohn-Sham eigenvalues, eigenvectors, occupation numbers, and Fermi level.
  Solving generalized eigenproblem

  Obtaining occupation numbers and chemical potential using ELSI.
  | Chemical potential (Fermi level):    -4.83200086eV
  What follows are estimated values for band gap, HOMO, LUMO, etc.
  | They are estimated on a discrete k-point grid and not necessarily exact.
  | For converged numbers, create a DOS and/or band structure plot on a denser k-grid.

  Highest occupied state (VBM) at     -4.84165308 eV (relative to internal zero)
  | Occupation number:      1.21515154
  | K-point:     663 at    0.500000    0.416667    0.583333 (in units of recip. lattice)

  Lowest unoccupied state (CBM) at    -4.80514222 eV (relative to internal zero)
  | Occupation number:      0.44744767
  | K-point:     661 at    0.500000    0.416667    0.333333 (in units of recip. lattice)

  ESTIMATED overall HOMO-LUMO gap:      0.03651087 eV between HOMO at k-point 663 and LUMO at k-point 661
  | This appears to be an indirect band gap.
  | Smallest direct gap :      0.05876296 eV for k_point 663 at    0.500000    0.416667    0.333333 (in units of recip. lattice)
  However, this system has fractional occupation numbers. Since we use a finite k-point grid,
  this material is metallic within the approximate finite broadening function (occupation_type)
  applied to determine the occupation numbers.

  Total energy components:
  | Sum of eigenvalues            :        -163.82457823 Ha       -4457.89358880 eV
  | XC energy correction          :         -19.61592809 Ha        -533.77656152 eV
  | XC potential correction       :          25.91770062 Ha         705.25651687 eV
  | Free-atom electrostatic energy:        -132.19704388 Ha       -3597.26459088 eV
  | Hartree energy correction     :           0.46321609 Ha          12.60475117 eV
  | Entropy correction            :          -0.00003715 Ha          -0.00101083 eV
  | ---------------------------
  | Total energy                  :        -289.25663349 Ha       -7871.07347314 eV
  | Total energy, T -> 0          :        -289.25667064 Ha       -7871.07448397 eV  <-- do not rely on this value for anything but (periodic) metals
  | Electronic free energy        :        -289.25670779 Ha       -7871.07549480 eV

  Derived energy quantities:
  | Kinetic energy                :         289.31599390 Ha        7872.68875203 eV
  | Electrostatic energy          :        -558.95669931 Ha      -15209.98566365 eV
  | Energy correction for multipole
  | error in Hartree potential    :           0.00018774 Ha           0.00510868 eV
  | Sum of eigenvalues per atom                           :       -4457.89358880 eV
  | Total energy (T->0) per atom                          :       -7871.07448397 eV  <-- do not rely on this value for anything but (periodic) metals
  | Electronic free energy per atom                       :       -7871.07549480 eV

  Self-consistency convergence accuracy:
  | Change of charge density      :  0.1305E-03
  | Change of sum of eigenvalues  : -0.2836E-01 eV
  | Change of total energy        : -0.1753E-06 eV

  End self-consistency iteration #     7       :  max(cpu_time)    wall_clock(cpu1)
  | Time for this iteration                    :        0.510 s           0.510 s
  | Charge density update                      :        0.145 s           0.145 s
  | Density mixing & preconditioning           :        0.015 s           0.015 s
  | Hartree multipole update                   :        0.000 s           0.000 s
  | Hartree multipole summation                :        0.157 s           0.157 s
  | Integration                                :        0.087 s           0.087 s
  | Solution of K.-S. eqns.                    :        0.105 s           0.105 s
  | Total energy evaluation                    :        0.000 s           0.001 s

  Partial memory accounting:
  | Current value for overall tracked memory usage on task 0  :           2.647 MB
  | Peak value for overall tracked memory usage on task 0     :           3.584 MB after allocating wave
  | Largest tracked array allocation on task 0 so far         :           2.500 MB  when allocating +KS_eigenvector_complex
  Note:  These values currently only include a subset of arrays which are explicitly tracked.
  The "true" memory usage will be greater.
------------------------------------------------------------

------------------------------------------------------------
          Begin self-consistency iteration #    8

  Date     :  20190514, Time     :  123555.845
------------------------------------------------------------
  Evaluating new KS density using the density matrix
  Evaluating density matrix
  Time summed over all CPUs for getting density from density matrix: real work        0.133 s, elapsed        0.133 s
  Integration grid: deviation in total charge (<rho> - N_e) =  -3.179679E-13
  Pulay mixing of updated and previous charge densities.

  Evaluating partitioned Hartree potential by multipole expansion.
  | Analytical far-field extrapolation by fixed multipoles:
  | Hartree multipole sum: apparent total charge =   0.128669E-03
  Summing up the Hartree potential.
  Time summed over all CPUs for potential: real work        0.154 s, elapsed        0.154 s
  | RMS charge density error from multipole expansion :   0.144267E-02
  | Average real-space part of the electrostatic potential :     -0.32533105 eV

  Integrating Hamiltonian matrix: batch-based integration.
  Time summed over all CPUs for integration: real work        0.085 s, elapsed        0.085 s

  Updating Kohn-Sham eigenvalues, eigenvectors, occupation numbers, and Fermi level.
  Solving generalized eigenproblem

  Obtaining occupation numbers and chemical potential using ELSI.
  | Chemical potential (Fermi level):    -4.83050818eV
  What follows are estimated values for band gap, HOMO, LUMO, etc.
  | They are estimated on a discrete k-point grid and not necessarily exact.
  | For converged numbers, create a DOS and/or band structure plot on a denser k-grid.

  Highest occupied state (VBM) at     -4.84013417 eV (relative to internal zero)
  | Occupation number:      1.21458103
  | K-point:     574 at    0.416667    0.583333    0.500000 (in units of recip. lattice)

  Lowest unoccupied state (CBM) at    -4.80366093 eV (relative to internal zero)
  | Occupation number:      0.44764031
  | K-point:     744 at    0.666667    0.500000    0.583333 (in units of recip. lattice)

  ESTIMATED overall HOMO-LUMO gap:      0.03647324 eV between HOMO at k-point 574 and LUMO at k-point 744
  | This appears to be an indirect band gap.
  | Smallest direct gap :      0.05877639 eV for k_point 566 at    0.666667    0.500000    0.583333 (in units of recip. lattice)
  However, this system has fractional occupation numbers. Since we use a finite k-point grid,
  this material is metallic within the approximate finite broadening function (occupation_type)
  applied to determine the occupation numbers.

  Total energy components:
  | Sum of eigenvalues            :        -163.82166915 Ha       -4457.81442873 eV
  | XC energy correction          :         -19.61603977 Ha        -533.77960067 eV
  | XC potential correction       :          25.91784957 Ha         705.26057003 eV
  | Free-atom electrostatic energy:        -132.19704388 Ha       -3597.26459088 eV
  | Hartree energy correction     :           0.46026945 Ha          12.52456885 eV
  | Entropy correction            :          -0.00003714 Ha          -0.00101059 eV
  | ---------------------------
  | Total energy                  :        -289.25663380 Ha       -7871.07348140 eV
  | Total energy, T -> 0          :        -289.25667093 Ha       -7871.07449198 eV  <-- do not rely on this value for anything but (periodic) metals
  | Electronic free energy        :        -289.25670807 Ha       -7871.07550257 eV

  Derived energy quantities:
  | Kinetic energy                :         289.31753477 Ha        7872.73068135 eV
  | Electrostatic energy          :        -558.95812880 Ha      -15210.02456207 eV
  | Energy correction for multipole
  | error in Hartree potential    :           0.00018686 Ha           0.00508467 eV
  | Sum of eigenvalues per atom                           :       -4457.81442873 eV
  | Total energy (T->0) per atom                          :       -7871.07449198 eV  <-- do not rely on this value for anything but (periodic) metals
  | Electronic free energy per atom                       :       -7871.07550257 eV

  Self-consistency convergence accuracy:
  | Change of charge density      :  0.1848E-03
  | Change of sum of eigenvalues  :  0.7916E-01 eV
  | Change of total energy        : -0.8254E-05 eV

  End self-consistency iteration #     8       :  max(cpu_time)    wall_clock(cpu1)
  | Time for this iteration                    :        0.504 s           0.504 s
  | Charge density update                      :        0.144 s           0.144 s
  | Density mixing & preconditioning           :        0.015 s           0.015 s
  | Hartree multipole update                   :        0.001 s           0.000 s
  | Hartree multipole summation                :        0.156 s           0.156 s
  | Integration                                :        0.085 s           0.085 s
  | Solution of K.-S. eqns.                    :        0.104 s           0.104 s
  | Total energy evaluation                    :        0.000 s           0.000 s

  Partial memory accounting:
  | Current value for overall tracked memory usage on task 0  :           2.647 MB
  | Peak value for overall tracked memory usage on task 0     :           3.584 MB after allocating wave
  | Largest tracked array allocation on task 0 so far         :           2.500 MB  when allocating +KS_eigenvector_complex
  Note:  These values currently only include a subset of arrays which are explicitly tracked.
  The "true" memory usage will be greater.
------------------------------------------------------------

------------------------------------------------------------
          Begin self-consistency iteration #    9

  Date     :  20190514, Time     :  123556.349
------------------------------------------------------------
  Evaluating new KS density using the density matrix
  Evaluating density matrix
  Time summed over all CPUs for getting density from density matrix: real work        0.131 s, elapsed        0.131 s
  Integration grid: deviation in total charge (<rho> - N_e) =  -2.042810E-13
  Pulay mixing of updated and previous charge densities.

  Evaluating partitioned Hartree potential by multipole expansion.
  | Analytical far-field extrapolation by fixed multipoles:
  | Hartree multipole sum: apparent total charge =   0.118421E-03
  Summing up the Hartree potential.
  Time summed over all CPUs for potential: real work        0.155 s, elapsed        0.155 s
  | RMS charge density error from multipole expansion :   0.144274E-02
  | Average real-space part of the electrostatic potential :     -0.32529970 eV

  Integrating Hamiltonian matrix: batch-based integration.
  Time summed over all CPUs for integration: real work        0.085 s, elapsed        0.085 s

  Updating Kohn-Sham eigenvalues, eigenvectors, occupation numbers, and Fermi level.
  Solving generalized eigenproblem

  Obtaining occupation numbers and chemical potential using ELSI.
  | Chemical potential (Fermi level):    -4.83052950eV
  What follows are estimated values for band gap, HOMO, LUMO, etc.
  | They are estimated on a discrete k-point grid and not necessarily exact.
  | For converged numbers, create a DOS and/or band structure plot on a denser k-grid.

  Highest occupied state (VBM) at     -4.84015602 eV (relative to internal zero)
  | Occupation number:      1.21459250
  | K-point:     566 at    0.416667    0.500000    0.583333 (in units of recip. lattice)

  Lowest unoccupied state (CBM) at    -4.80368223 eV (relative to internal zero)
  | Occupation number:      0.44763984
  | K-point:     677 at    0.500000    0.666667    0.250000 (in units of recip. lattice)

  ESTIMATED overall HOMO-LUMO gap:      0.03647379 eV between HOMO at k-point 566 and LUMO at k-point 677
  | This appears to be an indirect band gap.
  | Smallest direct gap :      0.05877632 eV for k_point 662 at    0.500000    0.666667    0.250000 (in units of recip. lattice)
  However, this system has fractional occupation numbers. Since we use a finite k-point grid,
  this material is metallic within the approximate finite broadening function (occupation_type)
  applied to determine the occupation numbers.

  Total energy components:
  | Sum of eigenvalues            :        -163.82170836 Ha       -4457.81549552 eV
  | XC energy correction          :         -19.61603900 Ha        -533.77957961 eV
  | XC potential correction       :          25.91784850 Ha         705.26054090 eV
  | Free-atom electrostatic energy:        -132.19704388 Ha       -3597.26459088 eV
  | Hartree energy correction     :           0.46030894 Ha          12.52564363 eV
  | Entropy correction            :          -0.00003714 Ha          -0.00101059 eV
  | ---------------------------
  | Total energy                  :        -289.25663380 Ha       -7871.07348148 eV
  | Total energy, T -> 0          :        -289.25667094 Ha       -7871.07449206 eV  <-- do not rely on this value for anything but (periodic) metals
  | Electronic free energy        :        -289.25670808 Ha       -7871.07550265 eV

  Derived energy quantities:
  | Kinetic energy                :         289.31749996 Ha        7872.72973390 eV
  | Electrostatic energy          :        -558.95809476 Ha      -15210.02363577 eV
  | Energy correction for multipole
  | error in Hartree potential    :           0.00018687 Ha           0.00508486 eV
  | Sum of eigenvalues per atom                           :       -4457.81549552 eV
[...]
  | Hartree multipole update                   :        0.000 s           0.000 s
  | Hartree multipole summation                :        0.156 s           0.157 s
  | Integration                                :        0.085 s           0.085 s
  | Solution of K.-S. eqns.                    :        0.107 s           0.107 s
  | Total energy evaluation                    :        0.000 s           0.000 s

  Partial memory accounting:
  | Current value for overall tracked memory usage on task 0  :           2.647 MB
  | Peak value for overall tracked memory usage on task 0     :           3.584 MB after allocating wave
  | Largest tracked array allocation on task 0 so far         :           2.500 MB  when allocating +KS_eigenvector_complex
  Note:  These values currently only include a subset of arrays which are explicitly tracked.
  The "true" memory usage will be greater.
------------------------------------------------------------

------------------------------------------------------------
          Begin self-consistency iteration #   10

  Date     :  20190514, Time     :  123556.856
------------------------------------------------------------
  Evaluating new KS density using the density matrix
  Evaluating density matrix
  Time summed over all CPUs for getting density from density matrix: real work        0.133 s, elapsed        0.133 s
  Integration grid: deviation in total charge (<rho> - N_e) =  -3.321787E-13
  Pulay mixing of updated and previous charge densities.

  Evaluating partitioned Hartree potential by multipole expansion.
  | Analytical far-field extrapolation by fixed multipoles:
  | Hartree multipole sum: apparent total charge =   0.117143E-03
  Summing up the Hartree potential.
  Time summed over all CPUs for potential: real work        0.155 s, elapsed        0.155 s
  | RMS charge density error from multipole expansion :   0.144274E-02
  | Average real-space part of the electrostatic potential :     -0.32529713 eV

  Integrating Hamiltonian matrix: batch-based integration.
  Time summed over all CPUs for integration: real work        0.086 s, elapsed        0.086 s

  Updating Kohn-Sham eigenvalues, eigenvectors, occupation numbers, and Fermi level.
  Solving generalized eigenproblem

  Obtaining occupation numbers and chemical potential using ELSI.
  | Chemical potential (Fermi level):    -4.83053462eV
  What follows are estimated values for band gap, HOMO, LUMO, etc.
  | They are estimated on a discrete k-point grid and not necessarily exact.
  | For converged numbers, create a DOS and/or band structure plot on a denser k-grid.

  Highest occupied state (VBM) at     -4.84016125 eV (relative to internal zero)
  | Occupation number:      1.21459515
  | K-point:     672 at    0.500000    0.500000    0.583333 (in units of recip. lattice)

  Lowest unoccupied state (CBM) at    -4.80368731 eV (relative to internal zero)
  | Occupation number:      0.44763940
  | K-point:     591 at    0.416667    0.750000    0.333333 (in units of recip. lattice)

  ESTIMATED overall HOMO-LUMO gap:      0.03647394 eV between HOMO at k-point 672 and LUMO at k-point 591
  | This appears to be an indirect band gap.
  | Smallest direct gap :      0.05877626 eV for k_point 662 at    0.416667    0.750000    0.333333 (in units of recip. lattice)
  However, this system has fractional occupation numbers. Since we use a finite k-point grid,
  this material is metallic within the approximate finite broadening function (occupation_type)
  applied to determine the occupation numbers.

  Total energy components:
  | Sum of eigenvalues            :        -163.82172033 Ha       -4457.81582129 eV
  | XC energy correction          :         -19.61603844 Ha        -533.77956423 eV
  | XC potential correction       :          25.91784775 Ha         705.26052043 eV
  | Free-atom electrostatic energy:        -132.19704388 Ha       -3597.26459088 eV
  | Hartree energy correction     :           0.46032110 Ha          12.52597452 eV
  | Entropy correction            :          -0.00003714 Ha          -0.00101059 eV
  | ---------------------------
  | Total energy                  :        -289.25663380 Ha       -7871.07348145 eV
  | Total energy, T -> 0          :        -289.25667094 Ha       -7871.07449204 eV  <-- do not rely on this value for anything but (periodic) metals
  | Electronic free energy        :        -289.25670807 Ha       -7871.07550263 eV

  Derived energy quantities:
  | Kinetic energy                :         289.31749133 Ha        7872.72949922 eV
  | Electrostatic energy          :        -558.95808669 Ha      -15210.02341644 eV
  | Energy correction for multipole
  | error in Hartree potential    :           0.00018687 Ha           0.00508490 eV
  | Sum of eigenvalues per atom                           :       -4457.81582129 eV
  | Total energy (T->0) per atom                          :       -7871.07449204 eV  <-- do not rely on this value for anything but (periodic) metals
  | Electronic free energy per atom                       :       -7871.07550263 eV

  Self-consistency convergence accuracy:
  | Change of charge density      :  0.1058E-05
  | Change of sum of eigenvalues  : -0.3258E-03 eV
  | Change of total energy        :  0.2862E-07 eV

  End self-consistency iteration #    10       :  max(cpu_time)    wall_clock(cpu1)
  | Time for this iteration                    :        0.509 s           0.509 s
  | Charge density update                      :        0.144 s           0.144 s
  | Density mixing & preconditioning           :        0.015 s           0.015 s
  | Hartree multipole update                   :        0.000 s           0.000 s
  | Hartree multipole summation                :        0.157 s           0.157 s
  | Integration                                :        0.087 s           0.086 s
  | Solution of K.-S. eqns.                    :        0.106 s           0.107 s
  | Total energy evaluation                    :        0.000 s           0.000 s

  Partial memory accounting:
  | Current value for overall tracked memory usage on task 0  :           2.647 MB
  | Peak value for overall tracked memory usage on task 0     :           3.584 MB after allocating wave
  | Largest tracked array allocation on task 0 so far         :           2.500 MB  when allocating +KS_eigenvector_complex
  Note:  These values currently only include a subset of arrays which are explicitly tracked.
  The "true" memory usage will be greater.
------------------------------------------------------------

------------------------------------------------------------
          Begin self-consistency iteration #   11

  Date     :  20190514, Time     :  123557.365
------------------------------------------------------------
  Evaluating new KS density using the density matrix
  Evaluating density matrix
  Time summed over all CPUs for getting density from density matrix: real work        0.132 s, elapsed        0.132 s
  Integration grid: deviation in total charge (<rho> - N_e) =  -3.268497E-13
  Pulay mixing of updated and previous charge densities.

  Evaluating partitioned Hartree potential by multipole expansion.
  | Analytical far-field extrapolation by fixed multipoles:
  | Hartree multipole sum: apparent total charge =   0.117326E-03
  Summing up the Hartree potential.
  Time summed over all CPUs for potential: real work        0.153 s, elapsed        0.154 s
  | RMS charge density error from multipole expansion :   0.144274E-02
  | Average real-space part of the electrostatic potential :     -0.32529860 eV

  Integrating Hamiltonian matrix: batch-based integration.
  Time summed over all CPUs for integration: real work        0.084 s, elapsed        0.084 s

  Updating Kohn-Sham eigenvalues, eigenvectors, occupation numbers, and Fermi level.
  Solving generalized eigenproblem

  Obtaining occupation numbers and chemical potential using ELSI.
  | Chemical potential (Fermi level):    -4.83053511eV
  What follows are estimated values for band gap, HOMO, LUMO, etc.
  | They are estimated on a discrete k-point grid and not necessarily exact.
  | For converged numbers, create a DOS and/or band structure plot on a denser k-grid.

  Highest occupied state (VBM) at     -4.84016178 eV (relative to internal zero)
  | Occupation number:      1.21459579
  | K-point:     566 at    0.416667    0.500000    0.583333 (in units of recip. lattice)

  Lowest unoccupied state (CBM) at    -4.80368781 eV (relative to internal zero)
  | Occupation number:      0.44763950
  | K-point:     358 at    0.250000    0.583333    0.500000 (in units of recip. lattice)

  ESTIMATED overall HOMO-LUMO gap:      0.03647396 eV between HOMO at k-point 566 and LUMO at k-point 358
  | This appears to be an indirect band gap.
  | Smallest direct gap :      0.05877625 eV for k_point 566 at    0.250000    0.583333    0.500000 (in units of recip. lattice)
  However, this system has fractional occupation numbers. Since we use a finite k-point grid,
  this material is metallic within the approximate finite broadening function (occupation_type)
  applied to determine the occupation numbers.

  Total energy components:
  | Sum of eigenvalues            :        -163.82172242 Ha       -4457.81587810 eV
  | XC energy correction          :         -19.61603816 Ha        -533.77955665 eV
  | XC potential correction       :          25.91784738 Ha         705.26051042 eV
  | Free-atom electrostatic energy:        -132.19704388 Ha       -3597.26459088 eV
  | Hartree energy correction     :           0.46032328 Ha          12.52603375 eV
  | Entropy correction            :          -0.00003714 Ha          -0.00101059 eV
  | ---------------------------
  | Total energy                  :        -289.25663380 Ha       -7871.07348145 eV
  | Total energy, T -> 0          :        -289.25667094 Ha       -7871.07449204 eV  <-- do not rely on this value for anything but (periodic) metals
  | Electronic free energy        :        -289.25670807 Ha       -7871.07550263 eV

  Derived energy quantities:
  | Kinetic energy                :         289.31748873 Ha        7872.72942830 eV
  | Electrostatic energy          :        -558.95808437 Ha      -15210.02335310 eV
  | Energy correction for multipole
  | error in Hartree potential    :           0.00018687 Ha           0.00508490 eV
  | Sum of eigenvalues per atom                           :       -4457.81587810 eV
  | Total energy (T->0) per atom                          :       -7871.07449204 eV  <-- do not rely on this value for anything but (periodic) metals
  | Electronic free energy per atom                       :       -7871.07550263 eV

  Self-consistency convergence accuracy:
  | Change of charge density      :  0.1824E-06
  | Change of sum of eigenvalues  : -0.5681E-04 eV
  | Change of total energy        : -0.1482E-08 eV

  Preliminary charge convergence reached. Turning off preconditioner.

  Writing Kohn-Sham eigenvalues.
  K-point:       1 at    0.000000    0.000000    0.000000 (in units of recip. lattice)

  State    Occupation    Eigenvalue [Ha]    Eigenvalue [eV]
      1       2.00000         -65.538742        -1783.39990
      2       2.00000          -5.126424         -139.49710
      3       2.00000          -3.541333          -96.36457
      4       2.00000          -3.541333          -96.36457
      5       2.00000          -3.541333          -96.36457
      6       2.00000          -0.462962          -12.59784
      7       0.00000          -0.076752           -2.08852
      8       0.00000          -0.076752           -2.08852
      9       0.00000          -0.076752           -2.08852
     10       0.00000           0.088551            2.40959

  What follows are estimated values for band gap, HOMO, LUMO, etc.
  | They are estimated on a discrete k-point grid and not necessarily exact.
  | For converged numbers, create a DOS and/or band structure plot on a denser k-grid.

  Highest occupied state (VBM) at     -4.84016178 eV (relative to internal zero)
  | Occupation number:      1.21459579
  | K-point:     566 at    0.416667    0.500000    0.583333 (in units of recip. lattice)

  Lowest unoccupied state (CBM) at    -4.80368781 eV (relative to internal zero)
  | Occupation number:      0.44763950
  | K-point:     358 at    0.250000    0.583333    0.500000 (in units of recip. lattice)

  ESTIMATED overall HOMO-LUMO gap:      0.03647396 eV between HOMO at k-point 566 and LUMO at k-point 358
  | This appears to be an indirect band gap.
  | Smallest direct gap :      0.05877625 eV for k_point 566 at    0.250000    0.583333    0.500000 (in units of recip. lattice)
  However, this system has fractional occupation numbers. Since we use a finite k-point grid,
  this material is metallic within the approximate finite broadening function (occupation_type)
  applied to determine the occupation numbers.

  Self-consistency cycle converged.

  End self-consistency iteration #    11       :  max(cpu_time)    wall_clock(cpu1)
  | Time for this iteration                    :        0.505 s           0.505 s
  | Charge density update                      :        0.144 s           0.144 s
  | Density mixing                             :        0.015 s           0.015 s
  | Hartree multipole update                   :        0.000 s           0.001 s
  | Hartree multipole summation                :        0.155 s           0.155 s
  | Integration                                :        0.085 s           0.084 s
  | Solution of K.-S. eqns.                    :        0.105 s           0.105 s
  | Total energy evaluation                    :        0.000 s           0.001 s

  Partial memory accounting:
  | Current value for overall tracked memory usage on task 0  :           2.647 MB
  | Peak value for overall tracked memory usage on task 0     :           3.584 MB after allocating wave
  | Largest tracked array allocation on task 0 so far         :           2.500 MB  when allocating +KS_eigenvector_complex
  Note:  These values currently only include a subset of arrays which are explicitly tracked.
  The "true" memory usage will be greater.
------------------------------------------------------------

  Energy and forces in a compact form:
  | Total energy uncorrected      :         -0.787107348144828E+04 eV
  | Total energy corrected        :         -0.787107449203871E+04 eV  <-- do not rely on this value for anything but (periodic) metals
  | Electronic free energy        :         -0.787107550262915E+04 eV

  ------------------------------------ 
  Start decomposition of the XC Energy 
  ------------------------------------ 
  X and C from original XC functional choice 
  Hartree-Fock Energy :          0.000000000 Ha              0.000000000 eV
  X Energy            :        -18.562284582 Ha           -505.105462954 eV
  C Energy            :         -1.053753575 Ha            -28.674093694 eV
  Total XC Energy     :        -19.616038157 Ha           -533.779556648 eV
  ------------------------------------ 
  LDA X and C from self-consistent density 
  X Energy LDA        :        -18.562284582 Ha           -505.105462954 eV
  C Energy LDA        :         -1.053753575 Ha            -28.674093694 eV
  ------------------------------------ 
  End decomposition of the XC Energy 
  ------------------------------------ 

------------------------------------------------------------

------------------------------------------------------------------------------
  Final output of selected total energy values:

  The following output summarizes some interesting total energy values
  at the end of a run (AFTER all relaxation, molecular dynamics, etc.).

  | Total energy of the DFT / Hartree-Fock s.c.f. calculation      :          -7871.073481448 eV
  | Final zero-broadening corrected energy (caution - metals only) :          -7871.074492039 eV
  | For reference only, the value of 1 Hartree used in FHI-aims is :             27.211384500 eV

  Before relying on these values, please be sure to understand exactly which
  total energy value is referred to by a given number. Different objects may
  all carry the same name 'total energy'. Definitions:

  Total energy of the DFT / Hartree-Fock s.c.f. calculation:
  | Note that this energy does not include ANY quantities calculated after the
  | s.c.f. cycle, in particular not ANY RPA, MP2, etc. many-body perturbation terms.

  Final zero-broadening corrected energy:
  | For metallic systems only, a broadening of the occupation numbers at the Fermi
  | level can be extrapolated back to zero broadening by an electron-gas inspired
  | formula. For all systems that are not real metals, this value can be
  | meaningless and should be avoided.

------------------------------------------------------------------------------
  Methods described in the following list of references were used in this FHI-aims run.
  If you publish the results, please make sure to cite these reference if they apply.
  FHI-aims is an academic code, and for our developers (often, Ph.D. students
  and postdocs), scientific credit in the community is essential.
  Thank you for helping us!

  For any use of FHI-aims, please cite:

    Volker Blum, Ralf Gehrke, Felix Hanke, Paula Havu, Ville Havu,
    Xinguo Ren, Karsten Reuter, and Matthias Scheffler
    'Ab initio molecular simulations with numeric atom-centered orbitals'
    Computer Physics Communications 180, 2175-2196 (2009)
    http://dx.doi.org/10.1016/j.cpc.2009.06.022


  For the real-space grid partitioning and parallelization used in this calculation, please cite:

    Ville Havu, Volker Blum, Paula Havu, and Matthias Scheffler,
    'Efficient O(N) integration for all-electron electronic structure calculation'
    'using numerically tabulated basis functions'
    Journal of Computational Physics 228, 8367-8379 (2009).
    http://dx.doi.org/10.1016/j.jcp.2009.08.008

  Of course, there are many other important community references, e.g., those cited in the
  above references. Our list is limited to references that describe implementations in the
  FHI-aims code. The reason is purely practical (length of this list) - please credit others as well.

------------------------------------------------------------
          Leaving FHI-aims.
          Date     :  20190514, Time     :  123557.875

          Computational steps:
          | Number of self-consistency cycles          :           11
          | Number of SCF (re)initializations          :            1

          Detailed time accounting                     :  max(cpu_time)    wall_clock(cpu1)
          | Total time                                 :        6.124 s           6.124 s
          | Preparation time                           :        0.101 s           0.101 s
          | Boundary condition initalization           :        0.037 s           0.037 s
          | Grid partitioning                          :        0.009 s           0.009 s
          | Preloading free-atom quantities on grid    :        0.001 s           0.001 s
          | Free-atom superposition energy             :        0.008 s           0.008 s
          | Total time for integrations                :        1.093 s           1.092 s
          | Total time for solution of K.-S. equations :        1.390 s           1.390 s
          | Total time for density update              :        1.590 s           1.588 s
          | Total time for mixing & preconditioning    :        0.164 s           0.166 s
          | Total time for Hartree multipole update    :        0.004 s           0.004 s
          | Total time for Hartree multipole sum       :        1.691 s           1.693 s
          | Total time for total energy evaluation     :        0.002 s           0.002 s
          | Total time for scaled ZORA corrections     :        0.000 s           0.000 s

 This is a stub MPI_ALLREDUCE call.
 You should not be here. Check your
 setting on the use_mpi variable, or
 link against true MPI-libraries.
