------------------------------------------------------------
          Invoking FHI-aims ...
          Version 171221_1
          Compiled on 2019/05/06 at 14:26:40 on host ffph0xx.

          When using FHI-aims, please cite the following reference:

          Volker Blum, Ralf Gehrke, Felix Hanke, Paula Havu,
          Ville Havu, Xinguo Ren, Karsten Reuter, and Matthias Scheffler,
          'Ab Initio Molecular Simulations with Numeric Atom-Centered Orbitals',
          Computer Physics Communications 180, 2175-2196 (2009)

          For any questions about FHI-aims, please visit the aimsclub website
          with its forums and wiki. Contributions to both the forums and the
          wiki are warmly encouraged - they are for you, and everyone is welcome there.

------------------------------------------------------------



  Date     :  20190508, Time     :  170356.561
  Time zero on CPU 1             :   0.794000000000000E-03  s.
  Internal wall clock time zero  :           326567036.561  s.

  FHI-aims created a unique identifier for this run for later identification
  aims_uuid : 3D44C789-8754-4FEB-A8F8-C7D72A24B00C


  Performing system and environment tests:
  *** Environment variable OMP_NUM_THREADS is not set
  *** For performance reasons you might want to set it to 1
  | Stacksize not measured: no C compiler

  Obtaining array dimensions for all initial allocations:
  
  -----------------------------------------------------------------------
  Parsing control.in (first pass over file, find array dimensions only).
  The contents of control.in will be repeated verbatim below
  unless switched off by setting 'verbatim_writeout .false.' .
  in the first line of control.in .
  -----------------------------------------------------------------------
  
  # Relaxation of the H3O+ molecule
  #--- Method ---
    xc  pw-lda
    charge 1.0 # this gives the cation
    spin none
  
  #######Iteration limit####################
    sc_iter_limit 100
  
  #######Relaxation######################
    ########relax_geometry trm 1E-3
  
  #######Species#########################
  ################################################################################
  #
  #  FHI-aims code project
  #  VB, Fritz-Haber Institut, 2009
  #
  #  Suggested "light" defaults for H atom (to be pasted into control.in file)
  #  Be sure to double-check any results obtained with these settings for post-processing,
  #  e.g., with the "tight" defaults and larger basis sets.
  #
  ################################################################################
    species        H
  #     global species definitions
      nucleus             1
      mass                1.00794
  #
      l_hartree           4
  #
      cut_pot             3.5  1.5  1.0
      basis_dep_cutoff    1e-4
  #
      radial_base         24 5.0
      radial_multiplier   1
      angular_grids       specified
        division   0.2421   50
        division   0.3822  110
        division   0.4799  194
        division   0.5341  302
  #      division   0.5626  434
  #      division   0.5922  590
  #      division   0.6542  770
  #      division   0.6868 1202
  #      outer_grid  770
        outer_grid  302
  ################################################################################
  #
  #  Definition of "minimal" basis
  #
  ################################################################################
  #     valence basis states
      valence      1  s   1.
  #     ion occupancy
      ion_occ      1  s   0.5
  ################################################################################
  #
  #  Suggested additional basis functions. For production calculations,
  #  uncomment them one after another (the most important basis functions are
  #  listed first).
  #
  #  Basis constructed for dimers: 0.5 A, 0.7 A, 1.0 A, 1.5 A, 2.5 A
  #
  ################################################################################
  #  "First tier" - improvements: -1014.90 meV to -62.69 meV
       hydro 2 s 2.1
       hydro 2 p 3.5
  #  "Second tier" - improvements: -12.89 meV to -1.83 meV
  #     hydro 1 s 0.85
  #     hydro 2 p 3.7
  #     hydro 2 s 1.2
  #     hydro 3 d 7
  #  "Third tier" - improvements: -0.25 meV to -0.12 meV
  #     hydro 4 f 11.2
  #     hydro 3 p 4.8
  #     hydro 4 d 9
  #     hydro 3 s 3.2
  ################################################################################
  #
  #  FHI-aims code project
  #  VB, Fritz-Haber Institut, 2009
  #
  #  Suggested "light" defaults for O atom (to be pasted into control.in file)
  #  Be sure to double-check any results obtained with these settings for post-processing,
  #  e.g., with the "tight" defaults and larger basis sets.
  #
  ################################################################################
    species        O
  #     global species definitions
      nucleus             8
      mass                15.9994
  #
      l_hartree           4
  #
      cut_pot             3.5  1.5  1.0
      basis_dep_cutoff    1e-4
  #
      radial_base         36 5.0
      radial_multiplier   1
       angular_grids specified
        division   0.2659   50
        division   0.4451  110
        division   0.6052  194
        division   0.7543  302
  #      division   0.8014  434
  #      division   0.8507  590
  #      division   0.8762  770
  #      division   0.9023  974
  #      division   1.2339 1202
  #      outer_grid 974
        outer_grid 302
  ################################################################################
  #
  #  Definition of "minimal" basis
  #
  ################################################################################
  #     valence basis states
      valence      2  s   2.
      valence      2  p   4.
  #     ion occupancy
      ion_occ      2  s   1.
      ion_occ      2  p   3.
  ################################################################################
  #
  #  Suggested additional basis functions. For production calculations,
  #  uncomment them one after another (the most important basis functions are
  #  listed first).
  #
  #  Constructed for dimers: 1.0 A, 1.208 A, 1.5 A, 2.0 A, 3.0 A
  #
  ################################################################################
  #  "First tier" - improvements: -699.05 meV to -159.38 meV
       hydro 2 p 1.8
       hydro 3 d 7.6
       hydro 3 s 6.4
  #  "Second tier" - improvements: -49.91 meV to -5.39 meV
  #     hydro 4 f 11.6
  #     hydro 3 p 6.2
  #     hydro 3 d 5.6
  #     hydro 5 g 17.6
  #     hydro 1 s 0.75
  #  "Third tier" - improvements: -2.83 meV to -0.50 meV
  #     ionic 2 p auto
  #     hydro 4 f 10.8
  #     hydro 4 d 4.7
  #     hydro 2 s 6.8
  #  "Fourth tier" - improvements: -0.40 meV to -0.12 meV
  #     hydro 3 p 5
  #     hydro 3 s 3.3
  #     hydro 5 g 15.6
  #     hydro 4 f 17.6
  #     hydro 4 d 14
  # Further basis functions - -0.08 meV and below
  #     hydro 3 s 2.1
  #     hydro 4 d 11.6
  #     hydro 3 p 16
  #     hydro 2 s 17.2
  /afs/ictp.it/public/shared/smr2475/fhi-aims/species_defaults/light/01_H_default
  compute_forces .true.
  final_forces_cleaned .true.
  output dipole
  
  -----------------------------------------------------------------------
  Completed first pass over input file control.in .
  -----------------------------------------------------------------------
  
  
  -----------------------------------------------------------------------
  Parsing geometry.in (first pass over file, find array dimensions only).
  The contents of geometry.in will be repeated verbatim below
  unless switched off by setting 'verbatim_writeout .false.' .
  in the first line of geometry.in .
  -----------------------------------------------------------------------
  
  #
  # temporary structure-file for finite-difference calculation of forces
  # displacement   0.0020 of \# atom     1 direction     0
  #
  atom   -0.00000000   -0.00002910    0.00000000   O
  atom    0.85688761   -0.49352200   -0.00000000   H
  atom   -0.85488761   -0.49352200   -0.00000000   H
  atom   -0.00000000    0.98707310   -0.00000000   H
  
  -----------------------------------------------------------------------
  Completed first pass over input file geometry.in .
  -----------------------------------------------------------------------
  

  Basic array size parameters:
  | Number of species                 :        2
  | Number of atoms                   :        4
  | Max. basis fn. angular momentum   :        2
  | Max. atomic/ionic basis occupied n:        2
  | Max. number of basis fn. types    :        2
  | Max. radial fns per species/type  :        3
  | Max. logarithmic grid size        :     1301
  | Max. radial integration grid size :       36
  | Max. angular integration grid size:      302
  | Max. angular grid division number :        8
  | Radial grid for Hartree potential :     1301
  | Number of spin channels           :        1

------------------------------------------------------------
          Reading file control.in.
------------------------------------------------------------
  XC: Using Perdew-Wang parametrisation of Ceperley-Alder LDA.
  Charged system requested: Charge =   0.100000E+01.
  Spin treatment: No spin polarisation.
  Maximum number of s.-c. iterations  :   100

  Reading configuration options for species H                   .
  | Found nuclear charge :   1.0000
  | Found atomic mass :    1.0079400000000001      amu
  | Found l_max for Hartree potential  :   4
  | Found cutoff potl. onset [A], width [A], scale factor :    3.50000    1.50000    1.00000
  | Threshold for basis-dependent cutoff potential is   0.100000E-03
  | Found data for basic radial integration grid :    24 points, outermost radius =    5.000 A
  | Found multiplier for basic radial grid :   1
  | Found angular grid specification: user-specified.
  | Specified grid contains     5 separate shells.
  | Check grid settings after all constraints further below.
  | Found free-atom valence shell :  1 s   1.000
  | No ionic wave fns used. Skipping ion_occ.
  | Found hydrogenic basis function :  2 s   2.100
  | Found hydrogenic basis function :  2 p   3.500
  Species H                   : Missing cutoff potential type.
  Defaulting to exp(1/x)/(1-x)^2 type cutoff potential.
  Species H : No 'logarithmic' tag. Using default grid for free atom:
  | Default logarithmic grid data [bohr] : 0.1000E-03 0.1000E+03 0.1012E+01
  Species H : On-site basis accuracy parameter (for Gram-Schmidt orthonormalisation) not specified.
  Using default value basis_acc =  0.1000000E-03.
  Species H                   : Using default innermost maximum threshold i_radial=  2 for radial functions.
  Species H                   : Default cutoff onset for free atom density etc. : 0.35000000E+01 AA.
  Species H                   : Basic radial grid will be enhanced according to radial_multiplier =   1, to contain    24 grid points.

  Reading configuration options for species O                   .
  | Found nuclear charge :   8.0000
  | Found atomic mass :    15.999400000000000      amu
  | Found l_max for Hartree potential  :   4
  | Found cutoff potl. onset [A], width [A], scale factor :    3.50000    1.50000    1.00000
  | Threshold for basis-dependent cutoff potential is   0.100000E-03
  | Found data for basic radial integration grid :    36 points, outermost radius =    5.000 A
  | Found multiplier for basic radial grid :   1
  | Found angular grid specification: user-specified.
  | Specified grid contains     5 separate shells.
  | Check grid settings after all constraints further below.
  | Found free-atom valence shell :  2 s   2.000
  | Found free-atom valence shell :  2 p   4.000
  | No ionic wave fns used. Skipping ion_occ.
  | No ionic wave fns used. Skipping ion_occ.
  | Found hydrogenic basis function :  2 p   1.800
  | Found hydrogenic basis function :  3 d   7.600
  | Found hydrogenic basis function :  3 s   6.400
  Species O                   : Missing cutoff potential type.
  Defaulting to exp(1/x)/(1-x)^2 type cutoff potential.
  Species O : No 'logarithmic' tag. Using default grid for free atom:
  | Default logarithmic grid data [bohr] : 0.1000E-03 0.1000E+03 0.1012E+01
  Species O : On-site basis accuracy parameter (for Gram-Schmidt orthonormalisation) not specified.
  Using default value basis_acc =  0.1000000E-03.
  Species O                   : Using default innermost maximum threshold i_radial=  2 for radial functions.
  Species O                   : Default cutoff onset for free atom density etc. : 0.35000000E+01 AA.
  Species O                   : Basic radial grid will be enhanced according to radial_multiplier =   1, to contain    36 grid points.
  Forces will be computed.
  Cleaning forces before final output.
  Dipole moment will be written out.

  Finished reading input file 'control.in'. Consistency checks are next.

  MPI_IN_PLACE appears to work with this MPI implementation.
  | Keeping use_mpi_in_place .true. (see manual).
  Target number of points in a grid batch is not set. Defaulting to  100
  Method for grid partitioning is not set. Defaulting to 'maxmin' partitioning.
  Batch size limit is not set. Defaulting to    200
  By default, will store active basis functions for each batch.
  If in need of memory, prune_basis_once .false. can be used to disable this option.
  communication_type for Hartree potential was not specified.
  Defaulting to calc_hartree .
 * Attention: 
 * You may want to set distributed_spline_storage to .true. in order to save memory.
 * This doesn't harm performance and is perfectly ok unless:
 * - you get error messages in postprocessing (about missing atoms in get_rho_multipole_spl)
 * - you need full spline storage in hirshfeld_analysis
  Defaulting to Pulay charge density mixer.
  Pulay mixer: Number of relevant iterations not set.
  Defaulting to    8 iterations.
  Pulay mixer: Number of initial linear mixing iterations not set.
  Defaulting to    0 iterations.
  Work space size for distributed Hartree potential not set.
  Defaulting to   0.200000E+03 MB.
  Mixing parameter for charge density mixing has not been set.
  Using default: charge_mix_param =     0.0500.
  The mixing parameter will be adjusted in iteration number     2 of the first full s.c.f. cycle only.
  Algorithm-dependent basis array size parameters:
  | n_max_pulay                         :        8
 * Notice: The s.c.f. convergence criterion sc_accuracy_rho was not provided.
 * We used to stop in this case, and ask the user to provide reasonable
 * scf convergence criteria. However, this led some users to employ criteria
 * that led to extremely long run times, e.g., for simple relaxation.
 * We now preset a default value for sc_accuracy_rho if it is not set.
 * You may still wish to check if this setting is too tight or too loose for your needs.
 * Based on n_atoms, FHI-aims chose sc_accuracy_rho =  0.100000E-05 .
  Presetting      1001 iterations before the initial mixing cycle
  is restarted anyway using the sc_init_iter criterion / keyword.
  Presetting a factor      1.000 between actual scf density residual
  and density convergence criterion sc_accuracy_rho below which sc_init_iter
  takes no effect.
 * No s.c.f. convergence criteria (sc_accuracy_*) were provided in control.in.
 * The run will proceed with a reasonable default guess, but please check whether.
 * the s.c.f. cycles seem to take too much or too little time.
  Geometry relaxation not requested: no relaxation will be performed.
  Force calculation: scf convergence accuracy of forces not set.
  Defaulting to 'sc_accuracy_forces not_checked'.
  Handling of forces: Unphysical translation and rotation will be removed from forces.
  No accuracy limit for integral partition fn. given. Defaulting to  0.1000E-14.
  No threshold value for u(r) in integrations given. Defaulting to  0.1000E-05.
  No occupation type (smearing scheme) given. Defaulting to Gaussian broadening, width =  0.1000E-01 eV.
  The width will be adjusted in iteration number     2 of the first full s.c.f. cycle only.
  S.C.F. convergence parameters will be adjusted in iteration number     2 of the first full s.c.f. cycle only.
  No accuracy for occupation numbers given. Defaulting to  0.1000E-12.
  No threshold value for occupation numbers given. Defaulting to  0.0000E+00.
  No accuracy for fermi level given. Defaulting to  0.1000E-19.
  Maximum # of iterations to find E_F not set. Defaulting to  200.
  Preferred method for the eigenvalue solver ('KS_method') not specified in 'control.in'.
  Defaulting to serial version, 'lapack_fast'.
  Will not use alltoall communication since running on < 1024 CPUs.
  Threshold for basis singularities not set.
  Default threshold for basis singularities:  0.1000E-04
  partition_type (choice of integration weights) for integrals was not specified.
  | Using a version of the partition function of Stratmann and coworkers ('stratmann_smoother').
  | At each grid point, the set of atoms used to build the partition table is smoothly restricted to
  | only those atoms whose free-atom density would be non-zero at that grid point.
  Partitioning for Hartree potential was not defined. Using partition_type for integrals.
  | Adjusted default value of keyword multip_moments_threshold to:       0.10000000E-11
  | This value may affect high angular momentum components of the Hartree potential in periodic systems.
  No q(lm)/r^(l+1) cutoff set for long-range Hartree potential.
  | Using default value of  0.100000E-09 .
  | Verify using the multipole_threshold keyword.
  Defaulting to new monopole extrapolation.
  Density update method: automatic selection selected.
------------------------------------------------------------


------------------------------------------------------------
          Reading geometry description geometry.in.
------------------------------------------------------------
 * Warning: Initial charge and total charge of the system are inconsistent.
 * Selected charge in control.in:     1.0000* Sum of initial charges in geometry.in:     0.0000
 * Warning! You did not set the 'relativistic' flag in input file 'control.in'.
 * Since you are not attempting to treat any elements beyond Ca(Z=20), FHI-aims
 * will default to 'relativistic none'.
 * You must ensure that this is really what you want!!
 * For example, DO NOT compute total-energy differences between results from
 * different settings of the 'relativistic' flag.
  Input structure read successfully.
  The structure contains        4 atoms,  and a total of         10.000 electrons.

  Input geometry:
  | No unit cell requested.
  | Atomic structure:
  |       Atom                x [A]            y [A]            z [A]
  |    1: Species O            -0.00000000       -0.00002910        0.00000000
  |    2: Species H             0.85688761       -0.49352200       -0.00000000
  |    3: Species H            -0.85488761       -0.49352200       -0.00000000
  |    4: Species H            -0.00000000        0.98707310       -0.00000000
  |

  | The smallest distance between any two atoms is         0.98710084 AA.
  |
  | The first atom of this pair is atom number                      1 .
  | The second atom of this pair is atom number                     3 .

  Number of empty states per atom not set in control.in - providing a guess from actual geometry.
  | Total number of empty states used during s.c.f. cycle:        8
  If you use a very high smearing, use empty_states (per atom!) in control.in to increase this value.

  Structure-dependent array size parameters: 
  | Maximum number of distinct radial functions  :        9
  | Maximum number of basis functions            :       29
  | Number of Kohn-Sham states (occupied + empty):       13
------------------------------------------------------------

------------------------------------------------------------
          Preparing all fixed parts of the calculation.
------------------------------------------------------------
  Determining machine precision:
     2.2250738585072014E-308
  Setting up grids for atomic and cluster calculations.

  Creating wave function, potential, and density for free atoms.

  Species: H

  List of occupied orbitals and eigenvalues:
    n    l              occ      energy [Ha]    energy [eV]
    1    0           1.0000        -0.232375        -6.3233


  Species: O

  List of occupied orbitals and eigenvalues:
    n    l              occ      energy [Ha]    energy [eV]
    1    0           2.0000       -18.757744      -510.4242
    2    0           2.0000        -0.870917       -23.6989
    2    1           4.0000        -0.337950        -9.1961

  Creating fixed part of basis set: Ionic, confined, hydrogenic.

  H                    hydrogenic:

  List of hydrogenic basis orbitals: 
    n    l      effective z      eigenvalue [eV]  inner max. [A]     outer max. [A]     outer radius [A]   
    2    0         2.100000       -14.9728           0.193243           1.317208           4.583499
    2    1         3.500000       -41.6669           0.602369           0.602369           3.723403


  O                    hydrogenic:

  List of hydrogenic basis orbitals: 
    n    l      effective z      eigenvalue [eV]  inner max. [A]     outer max. [A]     outer radius [A]   
    2    1         1.800000       -10.9749           1.164242           1.164242           4.578029
    3    2         7.600000       -87.3180           0.624125           0.624125           3.251020
    3    0         6.400000       -61.9207           0.061167           1.081902           4.001998


  Adding cutoff potential to free-atom effective potential.
  Creating atomic-like basis functions for current effective potential.

  Species H                   :

  List of atomic basis orbitals and eigenvalues:
    n    l      energy [Ha]    energy [eV]    outer radius [A]
    1    0        -0.232375        -6.3233       4.527807


  Species O                   :

  List of atomic basis orbitals and eigenvalues:
    n    l      energy [Ha]    energy [eV]    outer radius [A]
    1    0       -18.757744      -510.4242       1.433179
    2    0        -0.870917       -23.6989       4.413171
    2    1        -0.337950        -9.1961       4.522403

  Assembling full basis from fixed parts.
  | Species H :   atomic orbital   1 s accepted.
  | Species H :    hydro orbital   2 s accepted.
  | Species H :    hydro orbital   2 p accepted.
  | Species O :   atomic orbital   1 s accepted.
  | Species O :    hydro orbital   3 s accepted.
  | Species O :   atomic orbital   2 s accepted.
  | Species O :   atomic orbital   2 p accepted.
  | Species O :    hydro orbital   2 p accepted.
  | Species O :    hydro orbital   3 d accepted.

  Basis size parameters after reduction:
  | Total number of radial functions:        9
  | Total number of basis functions :       29

  Per-task memory consumption for arrays in subroutine allocate_ext:
  |           2.249476MB.
  Testing on-site integration grid accuracy.
  |  Species  Function  <phi|h_atom|phi> (log., in eV)  <phi|h_atom|phi> (rad., in eV)
           1        1                 -6.3245358373                 -6.3232436907
           1        2                 14.1326137532                 14.1384481100
           1        3                 25.3627025200                 25.3628451197
           2        4               -510.4241781769               -510.4240769412
           2        5                 14.9072942218                 14.9072945276
           2        6                -21.2004736467                -21.2005650544
           2        7                 -9.1962086499                 -9.1963509828
           2        8                  8.1896755011                  8.1702200086
           2        9                 45.7920584945                 45.7920228528

  Preparing densities etc. for the partition functions (integrals / Hartree potential).

  Preparations completed.
  max(cpu_time)          :      0.047 s.
  Wall clock time (cpu1) :      0.047 s.
------------------------------------------------------------

------------------------------------------------------------
          Begin self-consistency loop: Initialization.

          Date     :  20190508, Time     :  170356.610
------------------------------------------------------------

  Initializing index lists of integration centers etc. from given atomic structure:
  | Number of centers in hartree potential         :         4
  | Number of centers in hartree multipole         :         4
  | Number of centers in electron density summation:         4
  | Number of centers in basis integrals           :         4
  | Number of centers in integrals                 :         4
  | Number of centers in hamiltonian               :         4
  Partitioning the integration grid into batches with maxmin method.
  | Maximal weight for a single point:     1.000
  | Minimal weight for a single point:     0.000
  | Number of batches:      256
  | Maximal batch size:      90
  | Minimal batch size:      72
  | Average batch size:      80.719
  | Standard deviation of batch sizes:       6.450
  Initializing partition tables, free-atom densities, potentials, etc. across the integration grid (initialize_grid_storage).
  | initialize_grid_storage: Actual outermost partition radius vs. multipole_radius_free
  | (-- VB: in principle, multipole_radius_free should be larger, hence this output)
  | Species        1: Confinement radius =              4.999999999999999 AA, multipole_radius_free =              5.054417573612229 AA.
  | Species        1: outer_partition_radius set to              5.054417573612229 AA .
  | Species        2: Confinement radius =              4.999999999999999 AA, multipole_radius_free =              5.048384829883283 AA.
  | Species        2: outer_partition_radius set to              5.048384829883283 AA .
  | Original list of interatomic distances with           4 x          4 entries is created.
  | Net number of integration points:    20664
  | of which are non-zero points    :    18432
  Renormalizing the initial density to the exact electron count on the 3D integration grid.
  | Initial density: Formal number of electrons (from input files) :      11.0000000000
  | Integrated number of electrons on 3D grid     :      10.9999412207
  | Charge integration error                      :      -0.0000587793
  | Normalization factor for density and gradient :       1.0000053436
  Obtaining max. number of non-zero basis functions in each batch (get_n_compute_maxes).
  | Maximal number of non-zero basis functions:       29 in task     0
  Selecting the method for density update.
  Loop over occupied states selected for charge density update.
  Allocating        0.003 MB for KS_eigenvector
  Integrating Hamiltonian matrix: batch-based integration.
  Time summed over all CPUs for integration: real work        0.029 s, elapsed        0.029 s
  Integrating overlap matrix.
  Time summed over all CPUs for integration: real work        0.015 s, elapsed        0.015 s

  Updating Kohn-Sham eigenvalues, eigenvectors, occupation numbers, and Fermi level.
  Solving generalized eigenproblem
  Updating Kohn-Sham eigenvalues and eigenfunctions.
  Transforming overlap matrix and checking for singularities.
  Overlap matrix is nonsingular:
  | Lowest eigenvalue:  0.120667E-01
  Solving real generalised eigenvalue problem by standard LAPACK (fast)

  Obtaining occupation numbers and chemical potential using ELSI.
  | Chemical potential (Fermi level):    -6.57438638eV
  Writing Kohn-Sham eigenvalues.

  State    Occupation    Eigenvalue [Ha]    Eigenvalue [eV]
      1       2.00000         -18.914634         -514.69337
      2       2.00000          -1.147945          -31.23718
      3       2.00000          -0.684934          -18.63801
      4       2.00000          -0.684378          -18.62286
      5       2.00000          -0.491655          -13.37863
      6       0.00000          -0.091770           -2.49720
      7       0.00000           0.005139            0.13983
      8       0.00000           0.005618            0.15288
      9       0.00000           0.209785            5.70853
     10       0.00000           0.264943            7.20947
     11       0.00000           0.265398            7.22186
     12       0.00000           0.427676           11.63765
     13       0.00000           0.676741           18.41507

  Highest occupied state (VBM) at    -13.37862598 eV
  | Occupation number:      2.00000000

  Lowest unoccupied state (CBM) at    -2.49720066 eV
  | Occupation number:      0.00000000

  Overall HOMO-LUMO gap:     10.88142532 eV.
  Calculating total energy contributions from superposition of free atom densities.

  Total energy components:
  | Sum of eigenvalues            :         -43.84709205 Ha       -1193.14008085 eV
  | XC energy correction          :          -8.86423670 Ha        -241.20815327 eV
  | XC potential correction       :          11.67215436 Ha         317.61548030 eV
  | Free-atom electrostatic energy:         -35.27181766 Ha        -959.79499228 eV
  | Hartree energy correction     :          -0.00000000 Ha          -0.00000000 eV
  | Entropy correction            :          -0.00000000 Ha          -0.00000000 eV
  | ---------------------------
  | Total energy                  :         -76.31099204 Ha       -2076.52774610 eV
  | Total energy, T -> 0          :         -76.31099204 Ha       -2076.52774610 eV  <-- do not rely on this value for anything but (periodic) metals
  | Electronic free energy        :         -76.31099204 Ha       -2076.52774610 eV

  Derived energy quantities:
  | Kinetic energy                :          75.66599989 Ha        2058.97661664 eV
  | Electrostatic energy          :        -143.11275523 Ha       -3894.29620947 eV
  | Energy correction for multipole
  | error in Hartree potential    :           0.00000000 Ha           0.00000000 eV
  | Sum of eigenvalues per atom                           :        -298.28502021 eV
  | Total energy (T->0) per atom                          :        -519.13193652 eV  <-- do not rely on this value for anything but (periodic) metals
  | Electronic free energy per atom                       :        -519.13193652 eV
  Initialize hartree_potential_storage
  Max. number of atoms included in rho_multipole:            4

  End scf initialization - timings             :  max(cpu_time)    wall_clock(cpu1)
  | Time for scf. initialization               :        0.084 s           0.084 s
  | Boundary condition initialization          :        0.000 s           0.000 s
  | Integration                                :        0.044 s           0.044 s
  | Solution of K.-S. eqns.                    :        0.001 s           0.001 s
  | Grid partitioning                          :        0.014 s           0.014 s
  | Preloading free-atom quantities on grid    :        0.001 s           0.001 s
  | Free-atom superposition energy             :        0.012 s           0.012 s
  | Total energy evaluation                    :        0.000 s           0.000 s

  Partial memory accounting:
  | Current value for overall tracked memory usage on task 0  :           0.017 MB
  | Peak value for overall tracked memory usage on task 0     :           0.080 MB after allocating wave
  | Largest tracked array allocation on task 0 so far         :           0.021 MB  when allocating H_times_psi
  Note:  These values currently only include a subset of arrays which are explicitly tracked.
  The "true" memory usage will be greater.
------------------------------------------------------------

------------------------------------------------------------
          Begin self-consistency iteration #    1

  Date     :  20190508, Time     :  170356.694
------------------------------------------------------------
  Evaluating new KS density.
  Integration grid: deviation in total charge (<rho> - N_e) =   1.065814E-14
  Pulay mixing of updated and previous charge densities.

  Evaluating partitioned Hartree potential by multipole expansion.
  | Analytical far-field extrapolation by fixed multipoles:
  | Hartree multipole sum: apparent total charge =   0.499207E-01
  Summing up the Hartree potential.
  Time summed over all CPUs for potential: real work        0.016 s, elapsed        0.016 s
  | RMS charge density error from multipole expansion :   0.541333E-03

  Integrating Hamiltonian matrix: batch-based integration.
  Time summed over all CPUs for integration: real work        0.029 s, elapsed        0.029 s

  Updating Kohn-Sham eigenvalues, eigenvectors, occupation numbers, and Fermi level.
  Solving generalized eigenproblem
  Updating Kohn-Sham eigenvalues and eigenfunctions.
  Solving real generalised eigenvalue problem by standard LAPACK (fast)

  Obtaining occupation numbers and chemical potential using ELSI.
  | Chemical potential (Fermi level):    -6.77799238eV
  Writing Kohn-Sham eigenvalues.

  State    Occupation    Eigenvalue [Ha]    Eigenvalue [eV]
      1       2.00000         -18.903711         -514.39614
      2       2.00000          -1.151269          -31.32763
      3       2.00000          -0.689837          -18.77141
      4       2.00000          -0.689290          -18.75653
      5       2.00000          -0.493746          -13.43550
      6       0.00000          -0.101813           -2.77046
      7       0.00000          -0.004107           -0.11177
      8       0.00000          -0.003618           -0.09844
      9       0.00000           0.202761            5.51741
     10       0.00000           0.254790            6.93319
     11       0.00000           0.255250            6.94570
     12       0.00000           0.417420           11.35858
     13       0.00000           0.668354           18.18683

  Highest occupied state (VBM) at    -13.43550148 eV
  | Occupation number:      2.00000000

  Lowest unoccupied state (CBM) at    -2.77046264 eV
  | Occupation number:      0.00000000

  Overall HOMO-LUMO gap:     10.66503883 eV.

  Total energy components:
  | Sum of eigenvalues            :         -43.85570364 Ha       -1193.37441435 eV
  | XC energy correction          :          -8.86811297 Ha        -241.31363179 eV
  | XC potential correction       :          11.67748479 Ha         317.76052864 eV
  | Free-atom electrostatic energy:         -35.27181766 Ha        -959.79499228 eV
  | Hartree energy correction     :           0.02520754 Ha           0.68593198 eV
  | Entropy correction            :          -0.00000000 Ha          -0.00000000 eV
  | ---------------------------
  | Total energy                  :         -76.29294194 Ha       -2076.03657780 eV
  | Total energy, T -> 0          :         -76.29294194 Ha       -2076.03657780 eV  <-- do not rely on this value for anything but (periodic) metals
  | Electronic free energy        :         -76.29294194 Ha       -2076.03657780 eV

  Derived energy quantities:
  | Kinetic energy                :          75.75929025 Ha        2061.51517631 eV
  | Electrostatic energy          :        -143.18411922 Ha       -3896.23812232 eV
  | Energy correction for multipole
  | error in Hartree potential    :           0.00056982 Ha           0.01550565 eV
  | Sum of eigenvalues per atom                           :        -298.34360359 eV
  | Total energy (T->0) per atom                          :        -519.00914445 eV  <-- do not rely on this value for anything but (periodic) metals
  | Electronic free energy per atom                       :        -519.00914445 eV

  Self-consistency convergence accuracy:
  | Change of charge density      :  0.2701E+00
  | Change of sum of eigenvalues  : -0.2343E+00 eV
  | Change of total energy        :  0.4912E+00 eV

  End self-consistency iteration #     1       :  max(cpu_time)    wall_clock(cpu1)
  | Time for this iteration                    :        0.061 s           0.061 s
  | Charge density update                      :        0.013 s           0.013 s
  | Density mixing                             :        0.000 s           0.000 s
  | Hartree multipole update                   :        0.001 s           0.002 s
  | Hartree multipole summation                :        0.017 s           0.017 s
  | Integration                                :        0.030 s           0.029 s
  | Solution of K.-S. eqns.                    :        0.000 s           0.000 s
  | Total energy evaluation                    :        0.000 s           0.000 s

  Partial memory accounting:
  | Current value for overall tracked memory usage on task 0  :           0.017 MB
  | Peak value for overall tracked memory usage on task 0     :           0.086 MB after allocating wave
  | Largest tracked array allocation on task 0 so far         :           0.021 MB  when allocating H_times_psi
  Note:  These values currently only include a subset of arrays which are explicitly tracked.
  The "true" memory usage will be greater.
------------------------------------------------------------

------------------------------------------------------------
          Begin self-consistency iteration #    2

  Date     :  20190508, Time     :  170356.755
------------------------------------------------------------
  Evaluating new KS density.
  Integration grid: deviation in total charge (<rho> - N_e) =  -1.776357E-15
  Pulay mixing of updated and previous charge densities.

  Evaluating partitioned Hartree potential by multipole expansion.
  | Analytical far-field extrapolation by fixed multipoles:
  | Hartree multipole sum: apparent total charge =   0.444817E+00
  Summing up the Hartree potential.
  Time summed over all CPUs for potential: real work        0.017 s, elapsed        0.017 s
  | RMS charge density error from multipole expansion :   0.476087E-02

  Integrating Hamiltonian matrix: batch-based integration.
  Time summed over all CPUs for integration: real work        0.029 s, elapsed        0.029 s

  Updating Kohn-Sham eigenvalues, eigenvectors, occupation numbers, and Fermi level.
  Solving generalized eigenproblem
  Updating Kohn-Sham eigenvalues and eigenfunctions.
  Solving real generalised eigenvalue problem by standard LAPACK (fast)

  Obtaining occupation numbers and chemical potential using ELSI.
  | Chemical potential (Fermi level):    -8.42460906eV
  Highest occupied state (VBM) at    -14.13616665 eV
  | Occupation number:      2.00000000

  Lowest unoccupied state (CBM) at    -4.89825060 eV
  | Occupation number:      0.00000000

  Overall HOMO-LUMO gap:      9.23791604 eV.

  Checking to see if s.c.f. parameters should be adjusted.
  The system likely has a gap. Increased the default Pulay mixing parameter (charge_mix_param). Value:   0.200000 .
  Kept the default occupation width. Value:   0.010000 eV.

  Total energy components:
  | Sum of eigenvalues            :         -44.02808545 Ha       -1198.06516200 eV
  | XC energy correction          :          -8.89779245 Ha        -242.12125143 eV
  | XC potential correction       :          11.71827234 Ha         318.87041436 eV
  | Free-atom electrostatic energy:         -35.27181766 Ha        -959.79499228 eV
  | Hartree energy correction     :           0.27509827 Ha           7.48580483 eV
  | Entropy correction            :          -0.00000000 Ha          -0.00000000 eV
  | ---------------------------
  | Total energy                  :         -76.20432494 Ha       -2073.62518653 eV
  | Total energy, T -> 0          :         -76.20432494 Ha       -2073.62518653 eV  <-- do not rely on this value for anything but (periodic) metals
  | Electronic free energy        :         -76.20432494 Ha       -2073.62518653 eV

  Derived energy quantities:
  | Kinetic energy                :          76.33003647 Ha        2077.04597136 eV
  | Electrostatic energy          :        -143.63656897 Ha       -3908.54990646 eV
  | Energy correction for multipole
  | error in Hartree potential    :           0.00477163 Ha           0.12984276 eV
  | Sum of eigenvalues per atom                           :        -299.51629050 eV
  | Total energy (T->0) per atom                          :        -518.40629663 eV  <-- do not rely on this value for anything but (periodic) metals
  | Electronic free energy per atom                       :        -518.40629663 eV

  Self-consistency convergence accuracy:
  | Change of charge density      :  0.2441E+00
  | Change of sum of eigenvalues  : -0.4691E+01 eV
  | Change of total energy        :  0.2411E+01 eV

  End self-consistency iteration #     2       :  max(cpu_time)    wall_clock(cpu1)
  | Time for this iteration                    :        0.060 s           0.060 s
  | Charge density update                      :        0.012 s           0.012 s
  | Density mixing                             :        0.000 s           0.000 s
  | Hartree multipole update                   :        0.001 s           0.002 s
  | Hartree multipole summation                :        0.017 s           0.017 s
  | Integration                                :        0.029 s           0.029 s
  | Solution of K.-S. eqns.                    :        0.000 s           0.000 s
  | Total energy evaluation                    :        0.000 s           0.000 s

  Partial memory accounting:
  | Current value for overall tracked memory usage on task 0  :           0.018 MB
  | Peak value for overall tracked memory usage on task 0     :           0.087 MB after allocating wave
  | Largest tracked array allocation on task 0 so far         :           0.021 MB  when allocating H_times_psi
  Note:  These values currently only include a subset of arrays which are explicitly tracked.
  The "true" memory usage will be greater.
------------------------------------------------------------

------------------------------------------------------------
          Begin self-consistency iteration #    3

  Date     :  20190508, Time     :  170356.815
------------------------------------------------------------
  Evaluating new KS density.
  Integration grid: deviation in total charge (<rho> - N_e) =  -1.953993E-14
  Pulay mixing of updated and previous charge densities.

  Evaluating partitioned Hartree potential by multipole expansion.
  | Analytical far-field extrapolation by fixed multipoles:
  | Hartree multipole sum: apparent total charge =   0.845679E+00
  Summing up the Hartree potential.
  Time summed over all CPUs for potential: real work        0.017 s, elapsed        0.017 s
  | RMS charge density error from multipole expansion :   0.868210E-02

  Integrating Hamiltonian matrix: batch-based integration.
  Time summed over all CPUs for integration: real work        0.029 s, elapsed        0.029 s

  Updating Kohn-Sham eigenvalues, eigenvectors, occupation numbers, and Fermi level.
  Solving generalized eigenproblem
  Updating Kohn-Sham eigenvalues and eigenfunctions.
  Solving real generalised eigenvalue problem by standard LAPACK (fast)

  Obtaining occupation numbers and chemical potential using ELSI.
  | Chemical potential (Fermi level):   -11.26857981eV
  Highest occupied state (VBM) at    -17.60174868 eV
  | Occupation number:      2.00000000

  Lowest unoccupied state (CBM) at    -7.50709172 eV
  | Occupation number:      0.00000000

  Overall HOMO-LUMO gap:     10.09465696 eV.

  Total energy components:
  | Sum of eigenvalues            :         -45.40225927 Ha       -1235.45833417 eV
  | XC energy correction          :          -8.79967994 Ha        -239.45147443 eV
  | XC potential correction       :          11.59004109 Ha         315.38106447 eV
  | Free-atom electrostatic energy:         -35.27181766 Ha        -959.79499228 eV
  | Hartree energy correction     :           1.70977102 Ha          46.52523652 eV
  | Entropy correction            :          -0.00000000 Ha          -0.00000000 eV
  | ---------------------------
  | Total energy                  :         -76.17394477 Ha       -2072.79849989 eV
  | Total energy, T -> 0          :         -76.17394477 Ha       -2072.79849989 eV  <-- do not rely on this value for anything but (periodic) metals
  | Electronic free energy        :         -76.17394477 Ha       -2072.79849989 eV

  Derived energy quantities:
  | Kinetic energy                :          75.80764667 Ha        2062.83102167 eV
  | Electrostatic energy          :        -143.18191149 Ha       -3896.17804713 eV
  | Energy correction for multipole
  | error in Hartree potential    :           0.00601639 Ha           0.16371441 eV
  | Sum of eigenvalues per atom                           :        -308.86458354 eV
  | Total energy (T->0) per atom                          :        -518.19962497 eV  <-- do not rely on this value for anything but (periodic) metals
  | Electronic free energy per atom                       :        -518.19962497 eV

  Self-consistency convergence accuracy:
  | Change of charge density      :  0.1100E+00
  | Change of sum of eigenvalues  : -0.3739E+02 eV
  | Change of total energy        :  0.8267E+00 eV

  End self-consistency iteration #     3       :  max(cpu_time)    wall_clock(cpu1)
  | Time for this iteration                    :        0.059 s           0.059 s
  | Charge density update                      :        0.011 s           0.011 s
  | Density mixing                             :        0.000 s           0.001 s
  | Hartree multipole update                   :        0.001 s           0.001 s
  | Hartree multipole summation                :        0.017 s           0.017 s
  | Integration                                :        0.029 s           0.029 s
  | Solution of K.-S. eqns.                    :        0.000 s           0.000 s
  | Total energy evaluation                    :        0.000 s           0.000 s

  Partial memory accounting:
  | Current value for overall tracked memory usage on task 0  :           0.018 MB
  | Peak value for overall tracked memory usage on task 0     :           0.088 MB after allocating wave
  | Largest tracked array allocation on task 0 so far         :           0.021 MB  when allocating H_times_psi
  Note:  These values currently only include a subset of arrays which are explicitly tracked.
  The "true" memory usage will be greater.
------------------------------------------------------------

------------------------------------------------------------
          Begin self-consistency iteration #    4

  Date     :  20190508, Time     :  170356.874
------------------------------------------------------------
  Evaluating new KS density.
  Integration grid: deviation in total charge (<rho> - N_e) =   7.105427E-15
  Pulay mixing of updated and previous charge densities.

  Evaluating partitioned Hartree potential by multipole expansion.
  | Analytical far-field extrapolation by fixed multipoles:
  | Hartree multipole sum: apparent total charge =   0.101144E+01
  Summing up the Hartree potential.
  Time summed over all CPUs for potential: real work        0.016 s, elapsed        0.016 s
  | RMS charge density error from multipole expansion :   0.104055E-01

  Integrating Hamiltonian matrix: batch-based integration.
  Time summed over all CPUs for integration: real work        0.028 s, elapsed        0.028 s

  Updating Kohn-Sham eigenvalues, eigenvectors, occupation numbers, and Fermi level.
  Solving generalized eigenproblem
  Updating Kohn-Sham eigenvalues and eigenfunctions.
  Solving real generalised eigenvalue problem by standard LAPACK (fast)

  Obtaining occupation numbers and chemical potential using ELSI.
  | Chemical potential (Fermi level):   -11.98997472eV
  Highest occupied state (VBM) at    -18.41401089 eV
  | Occupation number:      2.00000000

  Lowest unoccupied state (CBM) at    -8.31146098 eV
  | Occupation number:      0.00000000

  Overall HOMO-LUMO gap:     10.10254991 eV.

  Total energy components:
  | Sum of eigenvalues            :         -45.70196808 Ha       -1243.61382570 eV
  | XC energy correction          :          -8.79620406 Ha        -239.35689085 eV
  | XC potential correction       :          11.58595665 Ha         315.26992116 eV
  | Free-atom electrostatic energy:         -35.27181766 Ha        -959.79499228 eV
  | Hartree energy correction     :           2.01274065 Ha          54.76945982 eV
  | Entropy correction            :          -0.00000000 Ha          -0.00000000 eV
  | ---------------------------
  | Total energy                  :         -76.17129249 Ha       -2072.72632784 eV
  | Total energy, T -> 0          :         -76.17129249 Ha       -2072.72632784 eV  <-- do not rely on this value for anything but (periodic) metals
  | Electronic free energy        :         -76.17129249 Ha       -2072.72632784 eV

  Derived energy quantities:
  | Kinetic energy                :          75.78493248 Ha        2062.21293693 eV
  | Electrostatic energy          :        -143.16002091 Ha       -3895.58237393 eV
  | Energy correction for multipole
  | error in Hartree potential    :           0.00708829 Ha           0.19288231 eV
  | Sum of eigenvalues per atom                           :        -310.90345642 eV
  | Total energy (T->0) per atom                          :        -518.18158196 eV  <-- do not rely on this value for anything but (periodic) metals
  | Electronic free energy per atom                       :        -518.18158196 eV

  Self-consistency convergence accuracy:
  | Change of charge density      :  0.5021E-01
  | Change of sum of eigenvalues  : -0.8155E+01 eV
  | Change of total energy        :  0.7217E-01 eV

  End self-consistency iteration #     4       :  max(cpu_time)    wall_clock(cpu1)
  | Time for this iteration                    :        0.058 s           0.058 s
  | Charge density update                      :        0.011 s           0.012 s
  | Density mixing                             :        0.000 s           0.000 s
  | Hartree multipole update                   :        0.001 s           0.002 s
  | Hartree multipole summation                :        0.016 s           0.016 s
  | Integration                                :        0.028 s           0.028 s
  | Solution of K.-S. eqns.                    :        0.000 s           0.000 s
  | Total energy evaluation                    :        0.000 s           0.000 s

  Partial memory accounting:
  | Current value for overall tracked memory usage on task 0  :           0.019 MB
  | Peak value for overall tracked memory usage on task 0     :           0.088 MB after allocating wave
  | Largest tracked array allocation on task 0 so far         :           0.021 MB  when allocating H_times_psi
  Note:  These values currently only include a subset of arrays which are explicitly tracked.
  The "true" memory usage will be greater.
------------------------------------------------------------

------------------------------------------------------------
          Begin self-consistency iteration #    5

  Date     :  20190508, Time     :  170356.932
------------------------------------------------------------
  Evaluating new KS density.
  Integration grid: deviation in total charge (<rho> - N_e) =  -7.105427E-15
  Pulay mixing of updated and previous charge densities.

  Evaluating partitioned Hartree potential by multipole expansion.
  | Analytical far-field extrapolation by fixed multipoles:
  | Hartree multipole sum: apparent total charge =   0.100807E+01
  Summing up the Hartree potential.
  Time summed over all CPUs for potential: real work        0.016 s, elapsed        0.016 s
  | RMS charge density error from multipole expansion :   0.104480E-01

  Integrating Hamiltonian matrix: batch-based integration.
  Time summed over all CPUs for integration: real work        0.029 s, elapsed        0.029 s

  Updating Kohn-Sham eigenvalues, eigenvectors, occupation numbers, and Fermi level.
  Solving generalized eigenproblem
  Updating Kohn-Sham eigenvalues and eigenfunctions.
  Solving real generalised eigenvalue problem by standard LAPACK (fast)

  Obtaining occupation numbers and chemical potential using ELSI.
  | Chemical potential (Fermi level):   -11.78714133eV
  Highest occupied state (VBM) at    -18.11653063 eV
  | Occupation number:      2.00000000

  Lowest unoccupied state (CBM) at    -8.16079131 eV
  | Occupation number:      0.00000000

  Overall HOMO-LUMO gap:      9.95573931 eV.

  Total energy components:
  | Sum of eigenvalues            :         -45.58280509 Ha       -1240.37123580 eV
  | XC energy correction          :          -8.81163255 Ha        -239.77672151 eV
  | XC potential correction       :          11.60626447 Ha         315.82252520 eV
  | Free-atom electrostatic energy:         -35.27181766 Ha        -959.79499228 eV
  | Hartree energy correction     :           1.88882311 Ha          51.39749178 eV
  | Entropy correction            :          -0.00000000 Ha          -0.00000000 eV
  | ---------------------------
  | Total energy                  :         -76.17116772 Ha       -2072.72293260 eV
  | Total energy, T -> 0          :         -76.17116772 Ha       -2072.72293260 eV  <-- do not rely on this value for anything but (periodic) metals
  | Electronic free energy        :         -76.17116772 Ha       -2072.72293260 eV

  Derived energy quantities:
  | Kinetic energy                :          75.84150203 Ha        2063.75227272 eV
  | Electrostatic energy          :        -143.20103719 Ha       -3896.69848381 eV
  | Energy correction for multipole
  | error in Hartree potential    :           0.00695276 Ha           0.18919432 eV
  | Sum of eigenvalues per atom                           :        -310.09280895 eV
  | Total energy (T->0) per atom                          :        -518.18073315 eV  <-- do not rely on this value for anything but (periodic) metals
  | Electronic free energy per atom                       :        -518.18073315 eV

  Self-consistency convergence accuracy:
  | Change of charge density      :  0.1082E-01
  | Change of sum of eigenvalues  :  0.3243E+01 eV
  | Change of total energy        :  0.3395E-02 eV

  End self-consistency iteration #     5       :  max(cpu_time)    wall_clock(cpu1)
  | Time for this iteration                    :        0.059 s           0.059 s
  | Charge density update                      :        0.011 s           0.012 s
  | Density mixing                             :        0.001 s           0.000 s
  | Hartree multipole update                   :        0.001 s           0.002 s
  | Hartree multipole summation                :        0.017 s           0.016 s
  | Integration                                :        0.029 s           0.029 s
  | Solution of K.-S. eqns.                    :        0.000 s           0.000 s
  | Total energy evaluation                    :        0.000 s           0.000 s

  Partial memory accounting:
  | Current value for overall tracked memory usage on task 0  :           0.019 MB
  | Peak value for overall tracked memory usage on task 0     :           0.088 MB after allocating wave
  | Largest tracked array allocation on task 0 so far         :           0.021 MB  when allocating H_times_psi
  Note:  These values currently only include a subset of arrays which are explicitly tracked.
  The "true" memory usage will be greater.
------------------------------------------------------------

------------------------------------------------------------
          Begin self-consistency iteration #    6

  Date     :  20190508, Time     :  170356.991
------------------------------------------------------------
  Evaluating new KS density.
  Integration grid: deviation in total charge (<rho> - N_e) =   0.000000E+00
  Pulay mixing of updated and previous charge densities.

  Evaluating partitioned Hartree potential by multipole expansion.
  | Analytical far-field extrapolation by fixed multipoles:
  | Hartree multipole sum: apparent total charge =   0.998799E+00
  Summing up the Hartree potential.
  Time summed over all CPUs for potential: real work        0.017 s, elapsed        0.017 s
  | RMS charge density error from multipole expansion :   0.103613E-01

  Integrating Hamiltonian matrix: batch-based integration.
  Time summed over all CPUs for integration: real work        0.028 s, elapsed        0.028 s

  Updating Kohn-Sham eigenvalues, eigenvectors, occupation numbers, and Fermi level.
  Solving generalized eigenproblem
  Updating Kohn-Sham eigenvalues and eigenfunctions.
  Solving real generalised eigenvalue problem by standard LAPACK (fast)

  Obtaining occupation numbers and chemical potential using ELSI.
  | Chemical potential (Fermi level):   -11.78807039eV
  Highest occupied state (VBM) at    -18.11295497 eV
  | Occupation number:      2.00000000

  Lowest unoccupied state (CBM) at    -8.13005751 eV
  | Occupation number:      0.00000000

  Overall HOMO-LUMO gap:      9.98289746 eV.

  Total energy components:
  | Sum of eigenvalues            :         -45.58595796 Ha       -1240.45702980 eV
  | XC energy correction          :          -8.80947300 Ha        -239.71795710 eV
  | XC potential correction       :          11.60337434 Ha         315.74388056 eV
  | Free-atom electrostatic energy:         -35.27181766 Ha        -959.79499228 eV
  | Hartree energy correction     :           1.89274083 Ha          51.50409848 eV
  | Entropy correction            :          -0.00000000 Ha          -0.00000000 eV
  | ---------------------------
  | Total energy                  :         -76.17113345 Ha       -2072.72200013 eV
  | Total energy, T -> 0          :         -76.17113345 Ha       -2072.72200013 eV  <-- do not rely on this value for anything but (periodic) metals
  | Electronic free energy        :         -76.17113345 Ha       -2072.72200013 eV

  Derived energy quantities:
  | Kinetic energy                :          75.82018972 Ha        2063.17233539 eV
  | Electrostatic energy          :        -143.18185017 Ha       -3896.17637842 eV
  | Energy correction for multipole
  | error in Hartree potential    :           0.00677053 Ha           0.18423551 eV
  | Sum of eigenvalues per atom                           :        -310.11425745 eV
  | Total energy (T->0) per atom                          :        -518.18050003 eV  <-- do not rely on this value for anything but (periodic) metals
  | Electronic free energy per atom                       :        -518.18050003 eV

  Self-consistency convergence accuracy:
  | Change of charge density      :  0.7518E-02
  | Change of sum of eigenvalues  : -0.8579E-01 eV
  | Change of total energy        :  0.9325E-03 eV

  End self-consistency iteration #     6       :  max(cpu_time)    wall_clock(cpu1)
  | Time for this iteration                    :        0.058 s           0.059 s
  | Charge density update                      :        0.011 s           0.011 s
  | Density mixing                             :        0.001 s           0.001 s
  | Hartree multipole update                   :        0.001 s           0.001 s
  | Hartree multipole summation                :        0.016 s           0.017 s
  | Integration                                :        0.028 s           0.028 s
  | Solution of K.-S. eqns.                    :        0.000 s           0.000 s
  | Total energy evaluation                    :        0.000 s           0.001 s

  Partial memory accounting:
  | Current value for overall tracked memory usage on task 0  :           0.019 MB
  | Peak value for overall tracked memory usage on task 0     :           0.089 MB after allocating wave
  | Largest tracked array allocation on task 0 so far         :           0.021 MB  when allocating H_times_psi
  Note:  These values currently only include a subset of arrays which are explicitly tracked.
  The "true" memory usage will be greater.
------------------------------------------------------------

------------------------------------------------------------
          Begin self-consistency iteration #    7

  Date     :  20190508, Time     :  170357.050
------------------------------------------------------------
  Evaluating new KS density.
  Integration grid: deviation in total charge (<rho> - N_e) =   3.375078E-14
  Pulay mixing of updated and previous charge densities.

  Evaluating partitioned Hartree potential by multipole expansion.
  | Analytical far-field extrapolation by fixed multipoles:
  | Hartree multipole sum: apparent total charge =   0.999246E+00
  Summing up the Hartree potential.
  Time summed over all CPUs for potential: real work        0.017 s, elapsed        0.017 s
  | RMS charge density error from multipole expansion :   0.103543E-01

  Integrating Hamiltonian matrix: batch-based integration.
  Time summed over all CPUs for integration: real work        0.028 s, elapsed        0.028 s

  Updating Kohn-Sham eigenvalues, eigenvectors, occupation numbers, and Fermi level.
  Solving generalized eigenproblem
  Updating Kohn-Sham eigenvalues and eigenfunctions.
  Solving real generalised eigenvalue problem by standard LAPACK (fast)

  Obtaining occupation numbers and chemical potential using ELSI.
  | Chemical potential (Fermi level):   -11.78856701eV
  Highest occupied state (VBM) at    -18.11426535 eV
  | Occupation number:      2.00000000

  Lowest unoccupied state (CBM) at    -8.13010463 eV
  | Occupation number:      0.00000000

  Overall HOMO-LUMO gap:      9.98416072 eV.

  Total energy components:
  | Sum of eigenvalues            :         -45.58760960 Ha       -1240.50197339 eV
  | XC energy correction          :          -8.80931749 Ha        -239.71372535 eV
  | XC potential correction       :          11.60316760 Ha         315.73825496 eV
  | Free-atom electrostatic energy:         -35.27181766 Ha        -959.79499228 eV
  | Hartree energy correction     :           1.89444481 Ha          51.55046613 eV
  | Entropy correction            :          -0.00000000 Ha          -0.00000000 eV
  | ---------------------------
  | Total energy                  :         -76.17113234 Ha       -2072.72196993 eV
  | Total energy, T -> 0          :         -76.17113234 Ha       -2072.72196993 eV  <-- do not rely on this value for anything but (periodic) metals
  | Electronic free energy        :         -76.17113234 Ha       -2072.72196993 eV

  Derived energy quantities:
  | Kinetic energy                :          75.81679957 Ha        2063.08008465 eV
  | Electrostatic energy          :        -143.17861442 Ha       -3896.08832923 eV
  | Energy correction for multipole
  | error in Hartree potential    :           0.00671860 Ha           0.18282232 eV
  | Sum of eigenvalues per atom                           :        -310.12549335 eV
  | Total energy (T->0) per atom                          :        -518.18049248 eV  <-- do not rely on this value for anything but (periodic) metals
  | Electronic free energy per atom                       :        -518.18049248 eV

  Self-consistency convergence accuracy:
  | Change of charge density      :  0.9630E-03
  | Change of sum of eigenvalues  : -0.4494E-01 eV
  | Change of total energy        :  0.3020E-04 eV

  End self-consistency iteration #     7       :  max(cpu_time)    wall_clock(cpu1)
  | Time for this iteration                    :        0.059 s           0.058 s
  | Charge density update                      :        0.011 s           0.011 s
  | Density mixing                             :        0.001 s           0.001 s
  | Hartree multipole update                   :        0.001 s           0.001 s
  | Hartree multipole summation                :        0.017 s           0.017 s
  | Integration                                :        0.028 s           0.028 s
  | Solution of K.-S. eqns.                    :        0.000 s           0.000 s
  | Total energy evaluation                    :        0.000 s           0.000 s

  Partial memory accounting:
  | Current value for overall tracked memory usage on task 0  :           0.019 MB
  | Peak value for overall tracked memory usage on task 0     :           0.089 MB after allocating wave
  | Largest tracked array allocation on task 0 so far         :           0.021 MB  when allocating H_times_psi
  Note:  These values currently only include a subset of arrays which are explicitly tracked.
  The "true" memory usage will be greater.
------------------------------------------------------------

------------------------------------------------------------
          Begin self-consistency iteration #    8

  Date     :  20190508, Time     :  170357.109
------------------------------------------------------------
  Evaluating new KS density.
  Integration grid: deviation in total charge (<rho> - N_e) =  -2.486900E-14
  Pulay mixing of updated and previous charge densities.

  Evaluating partitioned Hartree potential by multipole expansion.
  | Analytical far-field extrapolation by fixed multipoles:
  | Hartree multipole sum: apparent total charge =   0.999484E+00
  Summing up the Hartree potential.
  Time summed over all CPUs for potential: real work        0.016 s, elapsed        0.016 s
  | RMS charge density error from multipole expansion :   0.103578E-01

  Integrating Hamiltonian matrix: batch-based integration.
  Time summed over all CPUs for integration: real work        0.029 s, elapsed        0.029 s

  Updating Kohn-Sham eigenvalues, eigenvectors, occupation numbers, and Fermi level.
  Solving generalized eigenproblem
  Updating Kohn-Sham eigenvalues and eigenfunctions.
  Solving real generalised eigenvalue problem by standard LAPACK (fast)

  Obtaining occupation numbers and chemical potential using ELSI.
  | Chemical potential (Fermi level):   -11.78102442eV
  Highest occupied state (VBM) at    -18.10375207 eV
  | Occupation number:      2.00000000

  Lowest unoccupied state (CBM) at    -8.12461964 eV
  | Occupation number:      0.00000000

  Overall HOMO-LUMO gap:      9.97913243 eV.

  Total energy components:
  | Sum of eigenvalues            :         -45.58371721 Ha       -1240.39605591 eV
  | XC energy correction          :          -8.80990666 Ha        -239.72975740 eV
  | XC potential correction       :          11.60394286 Ha         315.75935092 eV
  | Free-atom electrostatic energy:         -35.27181766 Ha        -959.79499228 eV
  | Hartree energy correction     :           1.89036671 Ha          51.43949553 eV
  | Entropy correction            :          -0.00000000 Ha          -0.00000000 eV
  | ---------------------------
  | Total energy                  :         -76.17113194 Ha       -2072.72195914 eV
  | Total energy, T -> 0          :         -76.17113194 Ha       -2072.72195914 eV  <-- do not rely on this value for anything but (periodic) metals
  | Electronic free energy        :         -76.17113194 Ha       -2072.72195914 eV

  Derived energy quantities:
  | Kinetic energy                :          75.81787180 Ha        2063.10926166 eV
  | Electrostatic energy          :        -143.17909709 Ha       -3896.10146339 eV
  | Energy correction for multipole
  | error in Hartree potential    :           0.00669831 Ha           0.18227027 eV
  | Sum of eigenvalues per atom                           :        -310.09901398 eV
  | Total energy (T->0) per atom                          :        -518.18048979 eV  <-- do not rely on this value for anything but (periodic) metals
  | Electronic free energy per atom                       :        -518.18048979 eV

  Self-consistency convergence accuracy:
  | Change of charge density      :  0.7217E-03
  | Change of sum of eigenvalues  :  0.1059E+00 eV
  | Change of total energy        :  0.1079E-04 eV

  End self-consistency iteration #     8       :  max(cpu_time)    wall_clock(cpu1)
  | Time for this iteration                    :        0.058 s           0.058 s
  | Charge density update                      :        0.011 s           0.011 s
  | Density mixing                             :        0.001 s           0.001 s
  | Hartree multipole update                   :        0.001 s           0.001 s
  | Hartree multipole summation                :        0.016 s           0.016 s
  | Integration                                :        0.028 s           0.029 s
  | Solution of K.-S. eqns.                    :        0.000 s           0.000 s
  | Total energy evaluation                    :        0.000 s           0.000 s

  Partial memory accounting:
  | Current value for overall tracked memory usage on task 0  :           0.020 MB
  | Peak value for overall tracked memory usage on task 0     :           0.089 MB after allocating wave
  | Largest tracked array allocation on task 0 so far         :           0.021 MB  when allocating H_times_psi
  Note:  These values currently only include a subset of arrays which are explicitly tracked.
  The "true" memory usage will be greater.
------------------------------------------------------------

------------------------------------------------------------
          Begin self-consistency iteration #    9

  Date     :  20190508, Time     :  170357.167
------------------------------------------------------------
  Evaluating new KS density.
  Integration grid: deviation in total charge (<rho> - N_e) =   7.105427E-15
  Pulay mixing of updated and previous charge densities.

  Evaluating partitioned Hartree potential by multipole expansion.
  | Analytical far-field extrapolation by fixed multipoles:
  | Hartree multipole sum: apparent total charge =   0.999550E+00
  Summing up the Hartree potential.
  Time summed over all CPUs for potential: real work        0.017 s, elapsed        0.017 s
  | RMS charge density error from multipole expansion :   0.103588E-01

  Integrating Hamiltonian matrix: batch-based integration.
  Time summed over all CPUs for integration: real work        0.028 s, elapsed        0.028 s

  Updating Kohn-Sham eigenvalues, eigenvectors, occupation numbers, and Fermi level.
  Solving generalized eigenproblem
  Updating Kohn-Sham eigenvalues and eigenfunctions.
  Solving real generalised eigenvalue problem by standard LAPACK (fast)

  Obtaining occupation numbers and chemical potential using ELSI.
  | Chemical potential (Fermi level):   -11.78020383eV
  Highest occupied state (VBM) at    -18.10282478 eV
  | Occupation number:      2.00000000

  Lowest unoccupied state (CBM) at    -8.12407151 eV
  | Occupation number:      0.00000000

  Overall HOMO-LUMO gap:      9.97875328 eV.

  Total energy components:
  | Sum of eigenvalues            :         -45.58340908 Ha       -1240.38767134 eV
  | XC energy correction          :          -8.80996650 Ha        -239.73138577 eV
  | XC potential correction       :          11.60402158 Ha         315.76149296 eV
  | Free-atom electrostatic energy:         -35.27181766 Ha        -959.79499228 eV
  | Hartree energy correction     :           1.89003974 Ha          51.43059814 eV
  | Entropy correction            :          -0.00000000 Ha          -0.00000000 eV
  | ---------------------------
  | Total energy                  :         -76.17113191 Ha       -2072.72195829 eV
  | Total energy, T -> 0          :         -76.17113191 Ha       -2072.72195829 eV  <-- do not rely on this value for anything but (periodic) metals
  | Electronic free energy        :         -76.17113191 Ha       -2072.72195829 eV

  Derived energy quantities:
  | Kinetic energy                :          75.81789945 Ha        2063.11001397 eV
  | Electrostatic energy          :        -143.17906487 Ha       -3896.10058649 eV
  | Energy correction for multipole
  | error in Hartree potential    :           0.00669513 Ha           0.18218372 eV
  | Sum of eigenvalues per atom                           :        -310.09691783 eV
  | Total energy (T->0) per atom                          :        -518.18048957 eV  <-- do not rely on this value for anything but (periodic) metals
  | Electronic free energy per atom                       :        -518.18048957 eV

  Self-consistency convergence accuracy:
  | Change of charge density      :  0.7966E-04
  | Change of sum of eigenvalues  :  0.8385E-02 eV
  | Change of total energy        :  0.8538E-06 eV

  End self-consistency iteration #     9       :  max(cpu_time)    wall_clock(cpu1)
  | Time for this iteration                    :        0.060 s           0.060 s
  | Charge density update                      :        0.012 s           0.012 s
  | Density mixing                             :        0.001 s           0.001 s
  | Hartree multipole update                   :        0.001 s           0.001 s
  | Hartree multipole summation                :        0.017 s           0.017 s
  | Integration                                :        0.029 s           0.028 s
  | Solution of K.-S. eqns.                    :        0.000 s           0.001 s
  | Total energy evaluation                    :        0.000 s           0.000 s

  Partial memory accounting:
  | Current value for overall tracked memory usage on task 0  :           0.020 MB
  | Peak value for overall tracked memory usage on task 0     :           0.089 MB after allocating wave
  | Largest tracked array allocation on task 0 so far         :           0.021 MB  when allocating H_times_psi
  Note:  These values currently only include a subset of arrays which are explicitly tracked.
  The "true" memory usage will be greater.
------------------------------------------------------------

------------------------------------------------------------
          Begin self-consistency iteration #   10

  Date     :  20190508, Time     :  170357.227
------------------------------------------------------------
  Evaluating new KS density.
  Integration grid: deviation in total charge (<rho> - N_e) =   2.131628E-14
  Pulay mixing of updated and previous charge densities.

  Evaluating partitioned Hartree potential by multipole expansion.
  | Analytical far-field extrapolation by fixed multipoles:
  | Hartree multipole sum: apparent total charge =   0.999553E+00
  Summing up the Hartree potential.
  Time summed over all CPUs for potential: real work        0.016 s, elapsed        0.016 s
  | RMS charge density error from multipole expansion :   0.103589E-01

  Integrating Hamiltonian matrix: batch-based integration.
  Time summed over all CPUs for integration: real work        0.029 s, elapsed        0.029 s

  Updating Kohn-Sham eigenvalues, eigenvectors, occupation numbers, and Fermi level.
  Solving generalized eigenproblem
  Updating Kohn-Sham eigenvalues and eigenfunctions.
  Solving real generalised eigenvalue problem by standard LAPACK (fast)

  Obtaining occupation numbers and chemical potential using ELSI.
  | Chemical potential (Fermi level):   -11.78018972eV
  Highest occupied state (VBM) at    -18.10286338 eV
  | Occupation number:      2.00000000

  Lowest unoccupied state (CBM) at    -8.12404887 eV
  | Occupation number:      0.00000000

  Overall HOMO-LUMO gap:      9.97881452 eV.

  Total energy components:
  | Sum of eigenvalues            :         -45.58343529 Ha       -1240.38838442 eV
  | XC energy correction          :          -8.80996483 Ha        -239.73134037 eV
  | XC potential correction       :          11.60401934 Ha         315.76143197 eV
  | Free-atom electrostatic energy:         -35.27181766 Ha        -959.79499228 eV
  | Hartree energy correction     :           1.89006653 Ha          51.43132696 eV
  | Entropy correction            :          -0.00000000 Ha          -0.00000000 eV
  | ---------------------------
  | Total energy                  :         -76.17113191 Ha       -2072.72195814 eV
  | Total energy, T -> 0          :         -76.17113191 Ha       -2072.72195814 eV  <-- do not rely on this value for anything but (periodic) metals
  | Electronic free energy        :         -76.17113191 Ha       -2072.72195814 eV

  Derived energy quantities:
  | Kinetic energy                :          75.81785835 Ha        2063.10889547 eV
  | Electrostatic energy          :        -143.17902543 Ha       -3896.09951324 eV
  | Energy correction for multipole
  | error in Hartree potential    :           0.00669471 Ha           0.18217225 eV
  | Sum of eigenvalues per atom                           :        -310.09709610 eV
  | Total energy (T->0) per atom                          :        -518.18048953 eV  <-- do not rely on this value for anything but (periodic) metals
  | Electronic free energy per atom                       :        -518.18048953 eV

  Self-consistency convergence accuracy:
  | Change of charge density      :  0.7824E-05
  | Change of sum of eigenvalues  : -0.7131E-03 eV
  | Change of total energy        :  0.1475E-06 eV

  End self-consistency iteration #    10       :  max(cpu_time)    wall_clock(cpu1)
  | Time for this iteration                    :        0.059 s           0.059 s
  | Charge density update                      :        0.011 s           0.011 s
  | Density mixing                             :        0.001 s           0.001 s
  | Hartree multipole update                   :        0.001 s           0.001 s
  | Hartree multipole summation                :        0.017 s           0.017 s
  | Integration                                :        0.029 s           0.029 s
  | Solution of K.-S. eqns.                    :        0.000 s           0.000 s
  | Total energy evaluation                    :        0.000 s           0.000 s

  Partial memory accounting:
  | Current value for overall tracked memory usage on task 0  :           0.020 MB
  | Peak value for overall tracked memory usage on task 0     :           0.089 MB after allocating wave
  | Largest tracked array allocation on task 0 so far         :           0.021 MB  when allocating H_times_psi
  Note:  These values currently only include a subset of arrays which are explicitly tracked.
  The "true" memory usage will be greater.
------------------------------------------------------------

------------------------------------------------------------
          Begin self-consistency iteration #   11

  Date     :  20190508, Time     :  170357.286
------------------------------------------------------------
  Evaluating new KS density.
  Integration grid: deviation in total charge (<rho> - N_e) =  -7.105427E-15
  Pulay mixing of updated and previous charge densities.

  Evaluating partitioned Hartree potential by multipole expansion.
  | Analytical far-field extrapolation by fixed multipoles:
  | Hartree multipole sum: apparent total charge =   0.999557E+00
  Summing up the Hartree potential.
  Time summed over all CPUs for potential: real work        0.017 s, elapsed        0.017 s
  | RMS charge density error from multipole expansion :   0.103590E-01

  Integrating Hamiltonian matrix: batch-based integration.
  Time summed over all CPUs for integration: real work        0.029 s, elapsed        0.029 s

  Updating Kohn-Sham eigenvalues, eigenvectors, occupation numbers, and Fermi level.
  Solving generalized eigenproblem
  Updating Kohn-Sham eigenvalues and eigenfunctions.
  Solving real generalised eigenvalue problem by standard LAPACK (fast)

  Obtaining occupation numbers and chemical potential using ELSI.
  | Chemical potential (Fermi level):   -11.78014308eV
  Highest occupied state (VBM) at    -18.10278867 eV
  | Occupation number:      2.00000000

  Lowest unoccupied state (CBM) at    -8.12402382 eV
  | Occupation number:      0.00000000

  Overall HOMO-LUMO gap:      9.97876485 eV.

  Total energy components:
  | Sum of eigenvalues            :         -45.58340380 Ha       -1240.38752775 eV
  | XC energy correction          :          -8.80996976 Ha        -239.73147454 eV
  | XC potential correction       :          11.60402585 Ha         315.76160911 eV
  | Free-atom electrostatic energy:         -35.27181766 Ha        -959.79499228 eV
  | Hartree energy correction     :           1.89003346 Ha          51.43042727 eV
  | Entropy correction            :          -0.00000000 Ha          -0.00000000 eV
  | ---------------------------
[...]
  | Largest tracked array allocation on task 0 so far         :           0.021 MB  when allocating H_times_psi
  Note:  These values currently only include a subset of arrays which are explicitly tracked.
  The "true" memory usage will be greater.
------------------------------------------------------------

------------------------------------------------------------
          Begin self-consistency iteration #   12

  Date     :  20190508, Time     :  170357.347
------------------------------------------------------------
  Evaluating new KS density.
  Integration grid: deviation in total charge (<rho> - N_e) =   2.664535E-14
  Pulay mixing of updated and previous charge densities.

  Evaluating partitioned Hartree potential by multipole expansion.
  | Analytical far-field extrapolation by fixed multipoles:
  | Hartree multipole sum: apparent total charge =   0.999557E+00
  Summing up the Hartree potential.
  Time summed over all CPUs for potential: real work        0.017 s, elapsed        0.017 s
  | RMS charge density error from multipole expansion :   0.103590E-01

  Integrating Hamiltonian matrix: batch-based integration.
  Time summed over all CPUs for integration: real work        0.029 s, elapsed        0.029 s

  Updating Kohn-Sham eigenvalues, eigenvectors, occupation numbers, and Fermi level.
  Solving generalized eigenproblem
  Updating Kohn-Sham eigenvalues and eigenfunctions.
  Solving real generalised eigenvalue problem by standard LAPACK (fast)

  Obtaining occupation numbers and chemical potential using ELSI.
  | Chemical potential (Fermi level):   -11.78013959eV
  Highest occupied state (VBM) at    -18.10278426 eV
  | Occupation number:      2.00000000

  Lowest unoccupied state (CBM) at    -8.12402206 eV
  | Occupation number:      0.00000000

  Overall HOMO-LUMO gap:      9.97876221 eV.

  Total energy components:
  | Sum of eigenvalues            :         -45.58340159 Ha       -1240.38746758 eV
  | XC energy correction          :          -8.80997011 Ha        -239.73148401 eV
  | XC potential correction       :          11.60402631 Ha         315.76162162 eV
  | Free-atom electrostatic energy:         -35.27181766 Ha        -959.79499228 eV
  | Hartree energy correction     :           1.89003114 Ha          51.43036405 eV
  | Entropy correction            :          -0.00000000 Ha          -0.00000000 eV
  | ---------------------------
  | Total energy                  :         -76.17113191 Ha       -2072.72195820 eV
  | Total energy, T -> 0          :         -76.17113191 Ha       -2072.72195820 eV  <-- do not rely on this value for anything but (periodic) metals
  | Electronic free energy        :         -76.17113191 Ha       -2072.72195820 eV

  Derived energy quantities:
  | Kinetic energy                :          75.81788345 Ha        2063.10957854 eV
  | Electrostatic energy          :        -143.17904525 Ha       -3896.10005273 eV
  | Energy correction for multipole
  | error in Hartree potential    :           0.00669474 Ha           0.18217324 eV
  | Sum of eigenvalues per atom                           :        -310.09686689 eV
  | Total energy (T->0) per atom                          :        -518.18048955 eV  <-- do not rely on this value for anything but (periodic) metals
  | Electronic free energy per atom                       :        -518.18048955 eV

  Self-consistency convergence accuracy:
  | Change of charge density      :  0.3388E-06
  | Change of sum of eigenvalues  :  0.6017E-04 eV
  | Change of total energy        : -0.1593E-07 eV

  Electronic self-consistency reached - switching on the force computation.

  End self-consistency iteration #    12       :  max(cpu_time)    wall_clock(cpu1)
  | Time for this iteration                    :        0.060 s           0.059 s
  | Charge density & force component update    :        0.011 s           0.011 s
  | Density mixing                             :        0.001 s           0.001 s
  | Hartree multipole update                   :        0.001 s           0.001 s
  | Hartree multipole summation                :        0.017 s           0.017 s
  | Integration                                :        0.029 s           0.029 s
  | Solution of K.-S. eqns.                    :        0.000 s           0.000 s
  | Total energy evaluation                    :        0.000 s           0.000 s

  Partial memory accounting:
  | Current value for overall tracked memory usage on task 0  :           0.020 MB
  | Peak value for overall tracked memory usage on task 0     :           0.089 MB after allocating wave
  | Largest tracked array allocation on task 0 so far         :           0.021 MB  when allocating H_times_psi
  Note:  These values currently only include a subset of arrays which are explicitly tracked.
  The "true" memory usage will be greater.
------------------------------------------------------------

------------------------------------------------------------
          Begin self-consistency iteration #   13

  Date     :  20190508, Time     :  170357.406
------------------------------------------------------------
  Evaluating new KS density and force components.
  Integration grid: deviation in total charge (<rho> - N_e) =  -1.421085E-14
  Pulay mixing of updated and previous charge densities.

  Evaluating partitioned Hartree potential by multipole expansion.
  | Analytical far-field extrapolation by fixed multipoles:
  | Hartree multipole sum: apparent total charge =   0.999557E+00
  Summing up the Hartree potential.
  Time summed over all CPUs for potential: real work        0.053 s, elapsed        0.053 s
  | RMS charge density error from multipole expansion :   0.103590E-01

  Integrating Hamiltonian matrix: batch-based integration.
  Time summed over all CPUs for integration: real work        0.030 s, elapsed        0.030 s

  Updating Kohn-Sham eigenvalues, eigenvectors, occupation numbers, and Fermi level.
  Solving generalized eigenproblem
  Updating Kohn-Sham eigenvalues and eigenfunctions.
  Solving real generalised eigenvalue problem by standard LAPACK (fast)

  Obtaining occupation numbers and chemical potential using ELSI.
  | Chemical potential (Fermi level):   -11.78014047eV
  Highest occupied state (VBM) at    -18.10278546 eV
  | Occupation number:      2.00000000

  Lowest unoccupied state (CBM) at    -8.12402231 eV
  | Occupation number:      0.00000000

  Overall HOMO-LUMO gap:      9.97876315 eV.

  Total energy components:
  | Sum of eigenvalues            :         -45.58340219 Ha       -1240.38748387 eV
  | XC energy correction          :          -8.80997000 Ha        -239.73148107 eV
  | XC potential correction       :          11.60402616 Ha         315.76161772 eV
  | Free-atom electrostatic energy:         -35.27181766 Ha        -959.79499228 eV
  | Hartree energy correction     :           1.89003177 Ha          51.43038129 eV
  | Entropy correction            :          -0.00000000 Ha          -0.00000000 eV
  | ---------------------------
  | Total energy                  :         -76.17113191 Ha       -2072.72195820 eV
  | Total energy, T -> 0          :         -76.17113191 Ha       -2072.72195820 eV  <-- do not rely on this value for anything but (periodic) metals
  | Electronic free energy        :         -76.17113191 Ha       -2072.72195820 eV

  Derived energy quantities:
  | Kinetic energy                :          75.81788280 Ha        2063.10956078 eV
  | Electrostatic energy          :        -143.17904471 Ha       -3896.10003791 eV
  | Energy correction for multipole
  | error in Hartree potential    :           0.00669474 Ha           0.18217314 eV
  | Sum of eigenvalues per atom                           :        -310.09687097 eV
  | Total energy (T->0) per atom                          :        -518.18048955 eV  <-- do not rely on this value for anything but (periodic) metals
  | Electronic free energy per atom                       :        -518.18048955 eV

  atomic forces [eV/Ang]:
  -----------------------
  atom #    1
   Hellmann-Feynman              :  0.749047E-01 -0.315130E-01  0.100363E-12
   Ionic forces                  :  0.000000E+00  0.000000E+00  0.000000E+00
   Multipole                     : -0.759813E-03 -0.195442E-02  0.701764E-13
   Pulay                         : -0.238712E-02  0.192583E-02 -0.185086E-12
   ----------------------------------------------------------------
   Total forces(   1)            :  0.717577E-01 -0.315415E-01 -0.145462E-13
  atom #    2
   Hellmann-Feynman              :  0.187344E+00 -0.114745E+00 -0.117710E-13
   Ionic forces                  :  0.000000E+00  0.000000E+00  0.000000E+00
   Multipole                     :  0.777184E-01 -0.444838E-01 -0.100501E-14
   Pulay                         : -0.337308E+00  0.193961E+00 -0.109753E-13
   ----------------------------------------------------------------
   Total forces(   2)            : -0.722460E-01  0.347326E-01 -0.237513E-13
  atom #    3
   Hellmann-Feynman              : -0.258023E+00 -0.153200E+00 -0.185853E-13
   Ionic forces                  :  0.000000E+00  0.000000E+00  0.000000E+00
   Multipole                     : -0.779996E-01 -0.446906E-01  0.425465E-15
   Pulay                         :  0.338911E+00  0.195460E+00 -0.135922E-13
   ----------------------------------------------------------------
   Total forces(   3)            :  0.288745E-02 -0.243006E-02 -0.317521E-13
  atom #    4
   Hellmann-Feynman              : -0.226594E-02  0.300514E+00 -0.582914E-13
   Ionic forces                  :  0.000000E+00  0.000000E+00  0.000000E+00
   Multipole                     : -0.512496E-04  0.896621E-01  0.164022E-14
   Pulay                         : -0.103226E-03 -0.391168E+00 -0.950662E-13
   ----------------------------------------------------------------
   Total forces(   4)            : -0.242042E-02 -0.991596E-03 -0.151717E-12


  Self-consistency convergence accuracy:
  | Change of charge density      :  0.1823E-06
  | Change of sum of eigenvalues  : -0.1629E-04 eV
  | Change of total energy        :  0.3672E-08 eV
  | Change of forces              :  0.3188E+00 eV/A

  Writing Kohn-Sham eigenvalues.

  State    Occupation    Eigenvalue [Ha]    Eigenvalue [eV]
      1       2.00000         -19.013633         -517.38729
      2       2.00000          -1.336734          -36.37438
      3       2.00000          -0.888247          -24.17042
      4       2.00000          -0.887822          -24.15886
      5       2.00000          -0.665265          -18.10279
      6       0.00000          -0.298552           -8.12402
      7       0.00000          -0.197830           -5.38323
      8       0.00000          -0.197177           -5.36547
      9       0.00000           0.025571            0.69581
     10       0.00000           0.048488            1.31942
     11       0.00000           0.048967            1.33245
     12       0.00000           0.207277            5.64028
     13       0.00000           0.480894           13.08579

  Highest occupied state (VBM) at    -18.10278546 eV
  | Occupation number:      2.00000000

  Lowest unoccupied state (CBM) at    -8.12402231 eV
  | Occupation number:      0.00000000

  Overall HOMO-LUMO gap:      9.97876315 eV.

  Self-consistency cycle converged.

  End self-consistency iteration #    13       :  max(cpu_time)    wall_clock(cpu1)
  | Time for this iteration                    :        0.127 s           0.127 s
  | Charge density & force component update    :        0.041 s           0.041 s
  | Density mixing                             :        0.001 s           0.001 s
  | Hartree multipole update                   :        0.002 s           0.002 s
  | Hartree multipole summation                :        0.052 s           0.053 s
  | Integration                                :        0.030 s           0.030 s
  | Solution of K.-S. eqns.                    :        0.000 s           0.000 s
  | Total energy evaluation                    :        0.000 s           0.000 s

  Partial memory accounting:
  | Current value for overall tracked memory usage on task 0  :           0.020 MB
  | Peak value for overall tracked memory usage on task 0     :           0.124 MB after allocating h_times_wave
  | Largest tracked array allocation on task 0 so far         :           0.063 MB  when allocating gradient_basis_wave
  Note:  These values currently only include a subset of arrays which are explicitly tracked.
  The "true" memory usage will be greater.
------------------------------------------------------------
  ------------------------------------------------------------
   Computing monopole / dipole moments for complete molecule:
  | Total electronic charge [e]         :          0.999999999949773E+01
  | Total ionic charge [e]              :          0.110000000000000E+02
  | Total charge [e]                    :          0.100000000050227E+01
 * Warning: The system has a total charge of      1.00000000 .
 * The dipole moment depends on the choice of the origin.
  | Total dipole moment [eAng]          :          0.121557069395565E-02        -0.264567244734481E-03         0.218692246386318E-15
  | Absolute dipole moment              :          0.124402891404911E-02 eAng              /                   0.597439428202419E-02 Debye  .
  Removing unitary transformations (pure translations, rotations) from forces on atoms.
  Atomic forces before filtering:
  | Net force on center of mass :  -0.212068E-04 -0.230572E-03 -0.221767E-12 eV/A
  | Net torque on center of mass:  -0.122364E-12 -0.690315E-14  0.746977E-06 eV
  Atomic forces after filtering:
  | Net force on center of mass :   0.766589E-17 -0.452984E-17 -0.304236E-28 eV/A
  | Net torque on center of mass:  -0.536650E-28  0.136979E-28  0.331905E-17 eV

  Energy and forces in a compact form:
  | Total energy uncorrected      :         -0.207272195819828E+04 eV
  | Total energy corrected        :         -0.207272195819828E+04 eV  <-- do not rely on this value for anything but (periodic) metals
  | Electronic free energy        :         -0.207272195819828E+04 eV
  Total atomic forces (unitary forces cleaned) [eV/Ang]:
  |   1          0.717630401314721E-01         -0.314838930865908E-01          0.408954519804359E-13
  |   2         -0.722407972697035E-01          0.347900395334571E-01         -0.136164254358663E-13
  |   3          0.289262241534009E-02         -0.237219400479989E-02         -0.136482809108470E-13
  |   4         -0.241486527710868E-02         -0.933952442066420E-03         -0.136307456337226E-13

  ------------------------------------ 
  Start decomposition of the XC Energy 
  ------------------------------------ 
  X and C from original XC functional choice 
  Hartree-Fock Energy :          0.000000000 Ha              0.000000000 eV
  X Energy            :         -8.146077457 Ha           -221.666045860 eV
  C Energy            :         -0.663892541 Ha            -18.065435208 eV
  Total XC Energy     :         -8.809969999 Ha           -239.731481068 eV
  ------------------------------------ 
  LDA X and C from self-consistent density 
  X Energy LDA        :         -8.146077457 Ha           -221.666045860 eV
  C Energy LDA        :         -0.663892541 Ha            -18.065435208 eV
  ------------------------------------ 
  End decomposition of the XC Energy 
  ------------------------------------ 

------------------------------------------------------------

------------------------------------------------------------------------------
  Final output of selected total energy values:

  The following output summarizes some interesting total energy values
  at the end of a run (AFTER all relaxation, molecular dynamics, etc.).

  | Total energy of the DFT / Hartree-Fock s.c.f. calculation      :          -2072.721958198 eV
  | Final zero-broadening corrected energy (caution - metals only) :          -2072.721958198 eV
  | For reference only, the value of 1 Hartree used in FHI-aims is :             27.211384500 eV

  Before relying on these values, please be sure to understand exactly which
  total energy value is referred to by a given number. Different objects may
  all carry the same name 'total energy'. Definitions:

  Total energy of the DFT / Hartree-Fock s.c.f. calculation:
  | Note that this energy does not include ANY quantities calculated after the
  | s.c.f. cycle, in particular not ANY RPA, MP2, etc. many-body perturbation terms.

  Final zero-broadening corrected energy:
  | For metallic systems only, a broadening of the occupation numbers at the Fermi
  | level can be extrapolated back to zero broadening by an electron-gas inspired
  | formula. For all systems that are not real metals, this value can be
  | meaningless and should be avoided.

------------------------------------------------------------------------------
  Methods described in the following list of references were used in this FHI-aims run.
  If you publish the results, please make sure to cite these reference if they apply.
  FHI-aims is an academic code, and for our developers (often, Ph.D. students
  and postdocs), scientific credit in the community is essential.
  Thank you for helping us!

  For any use of FHI-aims, please cite:

    Volker Blum, Ralf Gehrke, Felix Hanke, Paula Havu, Ville Havu,
    Xinguo Ren, Karsten Reuter, and Matthias Scheffler
    'Ab initio molecular simulations with numeric atom-centered orbitals'
    Computer Physics Communications 180, 2175-2196 (2009)
    http://dx.doi.org/10.1016/j.cpc.2009.06.022


  For the real-space grid partitioning and parallelization used in this calculation, please cite:

    Ville Havu, Volker Blum, Paula Havu, and Matthias Scheffler,
    'Efficient O(N) integration for all-electron electronic structure calculation'
    'using numerically tabulated basis functions'
    Journal of Computational Physics 228, 8367-8379 (2009).
    http://dx.doi.org/10.1016/j.jcp.2009.08.008

  Of course, there are many other important community references, e.g., those cited in the
  above references. Our list is limited to references that describe implementations in the
  FHI-aims code. The reason is purely practical (length of this list) - please credit others as well.

------------------------------------------------------------
          Leaving FHI-aims.
          Date     :  20190508, Time     :  170357.547

          Computational steps:
          | Number of self-consistency cycles          :           13
          | Number of SCF (re)initializations          :            1

          Detailed time accounting                     :  max(cpu_time)    wall_clock(cpu1)
          | Total time                                 :        0.986 s           0.986 s
          | Preparation time                           :        0.047 s           0.047 s
          | Boundary condition initalization           :        0.000 s           0.000 s
          | Grid partitioning                          :        0.014 s           0.014 s
          | Preloading free-atom quantities on grid    :        0.001 s           0.001 s
          | Free-atom superposition energy             :        0.012 s           0.012 s
          | Total time for integrations                :        0.418 s           0.418 s
          | Total time for solution of K.-S. equations :        0.003 s           0.002 s
          | Total time for density & force components  :        0.178 s           0.180 s
          | Total time for mixing                      :        0.009 s           0.009 s
          | Total time for Hartree multipole update    :        0.019 s           0.018 s
          | Total time for Hartree multipole sum       :        0.253 s           0.254 s
          | Total time for total energy evaluation     :        0.001 s           0.001 s

 This is a stub MPI_ALLREDUCE call.
 You should not be here. Check your
 setting on the use_mpi variable, or
 link against true MPI-libraries.
