------------------------------------------------------------
          Invoking FHI-aims ...
          Version 171221_1
          Compiled on 2019/05/06 at 14:26:40 on host ffph0xx.

          When using FHI-aims, please cite the following reference:

          Volker Blum, Ralf Gehrke, Felix Hanke, Paula Havu,
          Ville Havu, Xinguo Ren, Karsten Reuter, and Matthias Scheffler,
          'Ab Initio Molecular Simulations with Numeric Atom-Centered Orbitals',
          Computer Physics Communications 180, 2175-2196 (2009)

          For any questions about FHI-aims, please visit the aimsclub website
          with its forums and wiki. Contributions to both the forums and the
          wiki are warmly encouraged - they are for you, and everyone is welcome there.

------------------------------------------------------------



  Date     :  20190513, Time     :  134800.586
  Time zero on CPU 1             :   0.601000000000000E-03  s.
  Internal wall clock time zero  :           326987280.586  s.

  FHI-aims created a unique identifier for this run for later identification
  aims_uuid : 19053161-D4CC-47F0-A444-119FE97A2D6A


  Performing system and environment tests:
  *** Environment variable OMP_NUM_THREADS is not set
  *** For performance reasons you might want to set it to 1
  | Stacksize not measured: no C compiler

  Obtaining array dimensions for all initial allocations:
  
  -----------------------------------------------------------------------
  Parsing control.in (first pass over file, find array dimensions only).
  The contents of control.in will be repeated verbatim below
  unless switched off by setting 'verbatim_writeout .false.' .
  in the first line of control.in .
  -----------------------------------------------------------------------
  
  #--- method ---
  xc pw-lda
  spin none
  relativistic atomic_zora scalar
  #---
  
  #--- k-grid settings ---
  k_grid 16 16 16
  #---
  
  
  
  
  
  
  
  
  
  
  
  #-------------------------------------------------------------------------------
  #--- Species defaults for Si
  #-------------------------------------------------------------------------------
  
  ################################################################################
  #
  #  FHI-aims code project
  #  VB, Fritz-Haber Institut, 2009
  #
  #  Suggested "light" defaults for Si atom (to be pasted into control.in file)
  #  Be sure to double-check any results obtained with these settings for post-processing,
  #  e.g., with the "tight" defaults and larger basis sets.
  #
  ################################################################################
    species        Si
  #     global species definitions
      nucleus             14
      mass                28.0855
  #
      l_hartree           4
  #
      cut_pot             3.5          1.5  1.0
      basis_dep_cutoff    1e-4
  #
      radial_base         42 5.0
      radial_multiplier   1
      angular_grids       specified
        division   0.5866   50
        division   0.9616  110
        division   1.2249  194
        division   1.3795  302
  #      division   1.4810  434
  #      division   1.5529  590
  #      division   1.6284  770
  #      division   1.7077  974
  #      division   2.4068 1202
  #      outer_grid   974
        outer_grid 302
  ################################################################################
  #
  #  Definition of "minimal" basis
  #
  ################################################################################
  #     valence basis states
      valence      3  s   2.
      valence      3  p   2.
  #     ion occupancy
      ion_occ      3  s   1.
      ion_occ      3  p   1.
  ################################################################################
  #
  #  Suggested additional basis functions. For production calculations,
  #  uncomment them one after another (the most important basis functions are
  #  listed first).
  #
  #  Constructed for dimers: 1.75 A, 2.0 A, 2.25 A, 2.75 A, 3.75 A
  #
  ################################################################################
  #  "First tier" - improvements: -571.96 meV to -37.03 meV
       hydro 3 d 4.2
       hydro 2 p 1.4
  #     hydro 4 f 6.2
       ionic 3 s auto
  #  "Second tier" - improvements: -16.76 meV to -3.03 meV
  #     hydro 3 d 9
  #     hydro 5 g 9.4
  #     hydro 4 p 4
  #     hydro 1 s 0.65
  #  "Third tier" - improvements: -3.89 meV to -0.60 meV
  #     ionic 3 d auto
  #     hydro 3 s 2.6
  #     hydro 4 f 8.4
  #     hydro 3 d 3.4
  #     hydro 3 p 7.8
  #  "Fourth tier" - improvements: -0.33 meV to -0.11 meV
  #     hydro 2 p 1.6
  #     hydro 5 g 10.8
  #     hydro 5 f 11.2
  #     hydro 3 d 1
  #     hydro 4 s 4.5
  #  Further basis functions that fell out of the optimization - noise
  #  level... < -0.08 meV
  #     hydro 4 d 6.6
  #     hydro 5 g 16.4
  #     hydro 4 d 9
  
  -----------------------------------------------------------------------
  Completed first pass over input file control.in .
  -----------------------------------------------------------------------
  
  
  -----------------------------------------------------------------------
  Parsing geometry.in (first pass over file, find array dimensions only).
  The contents of geometry.in will be repeated verbatim below
  unless switched off by setting 'verbatim_writeout .false.' .
  in the first line of geometry.in .
  -----------------------------------------------------------------------
  
  lattice_vector   0.000000   2.700000   2.700000
  lattice_vector   2.700000   0.000000   2.700000
  lattice_vector   2.700000   2.700000   0.000000
  atom_frac   0.000000   0.000000   0.000000 Si
  atom_frac   0.250000   0.250000   0.250000 Si
  
  -----------------------------------------------------------------------
  Completed first pass over input file geometry.in .
  -----------------------------------------------------------------------
  

  Basic array size parameters:
  | Number of species                 :        1
  | Number of atoms                   :        2
  | Number of lattice vectors         :        3
  | Max. basis fn. angular momentum   :        2
  | Max. atomic/ionic basis occupied n:        3
  | Max. number of basis fn. types    :        3
  | Max. radial fns per species/type  :        5
  | Max. logarithmic grid size        :     1346
  | Max. radial integration grid size :       42
  | Max. angular integration grid size:      302
  | Max. angular grid division number :        8
  | Radial grid for Hartree potential :     1346
  | Number of spin channels           :        1

------------------------------------------------------------
          Reading file control.in.
------------------------------------------------------------
  XC: Using Perdew-Wang parametrisation of Ceperley-Alder LDA.
  Spin treatment: No spin polarisation.
  Scalar relativistic treatment of kinetic energy: on-site free-atom approximation to ZORA.
  Found k-point grid:        16        16        16

  Reading configuration options for species Si                  .
  | Found nuclear charge :  14.0000
  | Found atomic mass :    28.085500000000000      amu
  | Found l_max for Hartree potential  :   4
  | Found cutoff potl. onset [A], width [A], scale factor :    3.50000    1.50000    1.00000
  | Threshold for basis-dependent cutoff potential is   0.100000E-03
  | Found data for basic radial integration grid :    42 points, outermost radius =    5.000 A
  | Found multiplier for basic radial grid :   1
  | Found angular grid specification: user-specified.
  | Specified grid contains     5 separate shells.
  | Check grid settings after all constraints further below.
  | Found free-atom valence shell :  3 s   2.000
  | Found free-atom valence shell :  3 p   2.000
  | Found free-ion valence shell :  3 s   1.000
  | Found free-ion valence shell :  3 p   1.000
  | Found hydrogenic basis function :  3 d   4.200
  | Found hydrogenic basis function :  2 p   1.400
  | Found ionic basis function :  3 s , default cutoff radius.
  Species Si                  : Missing cutoff potential type.
  Defaulting to exp(1/x)/(1-x)^2 type cutoff potential.
  Species Si: No 'logarithmic' tag. Using default grid for free atom:
  | Default logarithmic grid data [bohr] : 0.1000E-03 0.1000E+03 0.1012E+01
  | Will include ionic basis functions of  2.0-fold positive Si                   ion.
  Species Si: On-site basis accuracy parameter (for Gram-Schmidt orthonormalisation) not specified.
  Using default value basis_acc =  0.1000000E-03.
  Species Si                  : Using default innermost maximum threshold i_radial=  2 for radial functions.
  Species Si                  : Default cutoff onset for free atom density etc. : 0.35000000E+01 AA.
  Species Si                  : Basic radial grid will be enhanced according to radial_multiplier =   1, to contain    42 grid points.

  Finished reading input file 'control.in'. Consistency checks are next.

  MPI_IN_PLACE appears to work with this MPI implementation.
  | Keeping use_mpi_in_place .true. (see manual).
  Target number of points in a grid batch is not set. Defaulting to  100
  Method for grid partitioning is not set. Defaulting to 'maxmin' partitioning.
  Batch size limit is not set. Defaulting to    200
  By default, will store active basis functions for each batch.
  If in need of memory, prune_basis_once .false. can be used to disable this option.
  communication_type for Hartree potential was not specified.
  Defaulting to calc_hartree .
 * Attention: 
 * You may want to set distributed_spline_storage to .true. in order to save memory.
 * This doesn't harm performance and is perfectly ok unless:
 * - you get error messages in postprocessing (about missing atoms in get_rho_multipole_spl)
 * - you need full spline storage in hirshfeld_analysis
  Defaulting to Pulay charge density mixer.
  Pulay mixer: Number of relevant iterations not set.
  Defaulting to    8 iterations.
  Pulay mixer: Number of initial linear mixing iterations not set.
  Defaulting to    0 iterations.
  Work space size for distributed Hartree potential not set.
  Defaulting to   0.200000E+03 MB.
  Mixing parameter for charge density mixing has not been set.
  Using default: charge_mix_param =     0.0500.
  The mixing parameter will be adjusted in iteration number     2 of the first full s.c.f. cycle only.
  Algorithm-dependent basis array size parameters:
  | n_max_pulay                         :        8
 * Notice: The s.c.f. convergence criterion sc_accuracy_rho was not provided.
 * We used to stop in this case, and ask the user to provide reasonable
 * scf convergence criteria. However, this led some users to employ criteria
 * that led to extremely long run times, e.g., for simple relaxation.
 * We now preset a default value for sc_accuracy_rho if it is not set.
 * You may still wish to check if this setting is too tight or too loose for your needs.
 * Based on n_atoms, FHI-aims chose sc_accuracy_rho =  0.100000E-05 .
  Maximum number of self-consistency iterations not provided.
  Presetting  1000 iterations.
  Presetting      1001 iterations before the initial mixing cycle
  is restarted anyway using the sc_init_iter criterion / keyword.
  Presetting a factor      1.000 between actual scf density residual
  and density convergence criterion sc_accuracy_rho below which sc_init_iter
  takes no effect.
 * No s.c.f. convergence criteria (sc_accuracy_*) were provided in control.in.
 * The run will proceed with a reasonable default guess, but please check whether.
 * the s.c.f. cycles seem to take too much or too little time.
  Calculation of forces was not defined in control.in. No forces will be calculated.
  Geometry relaxation not requested: no relaxation will be performed.
  No accuracy limit for integral partition fn. given. Defaulting to  0.1000E-14.
  No threshold value for u(r) in integrations given. Defaulting to  0.1000E-05.
  No occupation type (smearing scheme) given. Defaulting to Gaussian broadening, width =  0.1000E-01 eV.
  The width will be adjusted in iteration number     2 of the first full s.c.f. cycle only.
  S.C.F. convergence parameters will be adjusted in iteration number     2 of the first full s.c.f. cycle only.
  No accuracy for occupation numbers given. Defaulting to  0.1000E-12.
  No threshold value for occupation numbers given. Defaulting to  0.0000E+00.
  No accuracy for fermi level given. Defaulting to  0.1000E-19.
  Maximum # of iterations to find E_F not set. Defaulting to  200.
  Preferred method for the eigenvalue solver ('KS_method') not specified in 'control.in'.
  Defaulting to serial version, 'lapack_fast'.
  Will not use alltoall communication since running on < 1024 CPUs.
  Threshold for basis singularities not set.
  Default threshold for basis singularities:  0.1000E-04
  partition_type (choice of integration weights) for integrals was not specified.
  | Using a version of the partition function of Stratmann and coworkers ('stratmann_smoother').
  | At each grid point, the set of atoms used to build the partition table is smoothly restricted to
  | only those atoms whose free-atom density would be non-zero at that grid point.
  Partitioning for Hartree potential was not defined. Using partition_type for integrals.
  | Adjusted default value of keyword multip_moments_threshold to:       0.10000000E-11
  | This value may affect high angular momentum components of the Hartree potential in periodic systems.
  Angular momentum expansion for Kerker preconditioner not set explicitly.
  | Using default value of   0
  No explicit requirement for turning off preconditioner.
  | By default, it will be turned off when the charge convergence reaches
  | sc_accuracy_rho  =   0.100000E-05
  No special mixing parameter while Kerker preconditioner is on.
  Using default: charge_mix_param =     0.0500.
  No q(lm)/r^(l+1) cutoff set for long-range Hartree potential.
  | Using default value of  0.100000E-09 .
  | Verify using the multipole_threshold keyword.
  Defaulting to new monopole extrapolation.
  Density update method: automatic selection selected.
  Using density matrix based charge density update.
  Using density matrix based charge density update.
  Using packed matrix style: index .
  Defaulting to use time-reversal symmetry for k-point grid.
------------------------------------------------------------


------------------------------------------------------------
          Reading geometry description geometry.in.
------------------------------------------------------------
  Input structure read successfully.
  The structure contains        2 atoms,  and a total of         28.000 electrons.

  Input geometry:
  | Unit cell:
  |        0.00000000        2.70000000        2.70000000
  |        2.70000000        0.00000000        2.70000000
  |        2.70000000        2.70000000        0.00000000
  | Atomic structure:
  |       Atom                x [A]            y [A]            z [A]
  |    1: Species Si            0.00000000        0.00000000        0.00000000
  |    2: Species Si            1.35000000        1.35000000        1.35000000

  Lattice parameters for 3D lattice (in Angstroms) :     3.818377    3.818377    3.818377
  Angle(s) between unit vectors (in degrees)      :    60.000000   60.000000   60.000000

  |

  | The smallest distance between any two atoms is         2.33826859 AA.
  |
  | The first atom of this pair is atom number                      1 .
  | The second atom of this pair is atom number                     2 .
  | Wigner-Seitz cell of the first atom image           0     0     0 .
  | (The Wigner-Seitz cell of the second atom is 0 0 0  by definition.)

  Quantities derived from the lattice vectors:
  | Reciprocal lattice vector 1: -1.163553  1.163553  1.163553
  | Reciprocal lattice vector 2:  1.163553 -1.163553  1.163553
  | Reciprocal lattice vector 3:  1.163553  1.163553 -1.163553
  | Unit cell volume                               :   0.393660E+02  A^3

  Range separation radius for Ewald summation (hartree_convergence_parameter):      3.86449263 bohr.

  Fractional coordinates:
                         L1                L2                L3
       atom_frac         0.00000000        0.00000000        0.00000000  Si
       atom_frac         0.25000000        0.25000000        0.25000000  Si

  Number of empty states per atom not set in control.in - providing a guess from actual geometry.
  | Total number of empty states used during s.c.f. cycle:        6
  If you use a very high smearing, use empty_states (per atom!) in control.in to increase this value.

  Structure-dependent array size parameters: 
  | Maximum number of distinct radial functions  :        8
  | Maximum number of basis functions            :       36
  | Number of Kohn-Sham states (occupied + empty):       20
------------------------------------------------------------

------------------------------------------------------------
          Preparing all fixed parts of the calculation.
------------------------------------------------------------
  Determining machine precision:
     2.2250738585072014E-308
  Setting up grids for atomic and cluster calculations.

  Creating wave function, potential, and density for free atoms.

  Species: Si

  List of occupied orbitals and eigenvalues:
    n    l              occ      energy [Ha]    energy [eV]
    1    0           2.0000       -65.491668     -1782.1190
    2    0           2.0000        -5.087967      -138.4506
    3    0           2.0000        -0.391471       -10.6525
    2    1           6.0000        -3.502246       -95.3010
    3    1           2.0000        -0.143943        -3.9169

  Creating fixed part of basis set: Ionic, confined, hydrogenic.

  Si                   ion:

  List of free ionic orbitals and eigenvalues:
    n    l      energy [Ha]    energy [eV]
    1    0       -66.364436     -1805.8682
    2    0        -5.935799      -161.5213
    3    0        -1.078166       -29.3384
    2    1        -4.351123      -118.4001
    3    1        -0.781733       -21.2720


  List of ionic basis orbitals and eigenvalues:
    n    l      energy [Ha]    energy [eV]    outer radius [A]
    3    0        -1.078146       -29.3378       4.214062


  Si                   hydrogenic:

  List of hydrogenic basis orbitals: 
    n    l      effective z      eigenvalue [eV]  inner max. [A]     outer max. [A]     outer radius [A]   
    3    2         4.200000       -26.6624           1.139231           1.139231           4.534782
    2    1         1.400000        -6.4613           1.472672           1.472672           4.590560


  Adding cutoff potential to free-atom effective potential.
  Creating atomic-like basis functions for current effective potential.

  Species Si                  :

  List of atomic basis orbitals and eigenvalues:
    n    l      energy [Ha]    energy [eV]    outer radius [A]
    1    0       -65.491668     -1782.1190       0.789468
    2    0        -5.087967      -138.4506       2.815114
    3    0        -0.391471       -10.6525       4.534782
    2    1        -3.502246       -95.3010       3.259919
    3    1        -0.143943        -3.9169       4.590560

  Assembling full basis from fixed parts.
  | Species Si :   atomic orbital   1 s accepted.
  | Species Si :   atomic orbital   2 s accepted.
  | Species Si :    ionic orbital   3 s accepted.
  | Species Si :   atomic orbital   3 s accepted.
  | Species Si :   atomic orbital   2 p accepted.
  | Species Si :   atomic orbital   3 p accepted.
  | Species Si :    hydro orbital   2 p accepted.
  | Species Si :    hydro orbital   3 d accepted.

  Basis size parameters after reduction:
  | Total number of radial functions:        8
  | Total number of basis functions :       36

  Per-task memory consumption for arrays in subroutine allocate_ext:
  |           2.757868MB.
  Testing on-site integration grid accuracy.
  |  Species  Function  <phi|h_atom|phi> (log., in eV)  <phi|h_atom|phi> (rad., in eV)
           1        1              -1782.1189727076              -1782.1182429251
           1        2               -138.4506350693               -138.4506310079
           1        3                -10.3030408815                -10.3029120678
           1        4                  5.0238999146                  4.9457540310 ***
           1        5                -95.3009689499                -95.3009689315
           1        6                 -3.9266496564                 -3.9420918374
           1        7                  6.3453628447                  6.1632372158 ***
           1        8                  6.2883050744                  6.2861881409
 * Note: Onsite integrals marked "***" above are less accurate than
 * onsite_accuracy_threshold =    0.03000 eV. Usually, this is harmless.
 * When in doubt, tighten the "radial" and/or "radial_multiplier" flags to check.

  Preparing densities etc. for the partition functions (integrals / Hartree potential).

  Preparations completed.
  max(cpu_time)          :      0.100 s.
  Wall clock time (cpu1) :      0.100 s.
------------------------------------------------------------

------------------------------------------------------------
          Begin self-consistency loop: Initialization.

          Date     :  20190513, Time     :  134800.687
------------------------------------------------------------

  Initializing index lists of integration centers etc. from given atomic structure:
  Mapping all atomic coordinates to central unit cell.

  Initializing the k-points
          Using symmetry for reducing the k-points
  | k-points reduced from:     4096 to     2052
  | Number of k-points                             :      2052
  The eigenvectors in the calculations are COMPLEX.
  | K-points in task   0:      2052
  | Number of basis functions in the Hamiltonian integrals :      1472
  | Number of basis functions in a single unit cell        :        36
  | Number of centers in hartree potential         :       732
  | Number of centers in hartree multipole         :       324
  | Number of centers in electron density summation:       198
  | Number of centers in basis integrals           :       228
  | Number of centers in integrals                 :       101
  | Number of centers in hamiltonian               :       198
  | Consuming       3591 KiB for k_phase.
  | Number of super-cells (origin) [n_cells]                     :        2197
  | Number of super-cells (after PM_index) [n_cells]             :         112
  | Number of super-cells in hamiltonian [n_cells_in_hamiltonian]:         112
  | Size of matrix packed + index [n_hamiltonian_matrix_size] :       43503
  Partitioning the integration grid into batches with maxmin method.
  | Maximal weight for a single point:     1.000
  | Minimal weight for a single point:     0.666
  | Number of batches:      128
  | Maximal batch size:      90
  | Minimal batch size:      85
  | Average batch size:      87.562
  | Standard deviation of batch sizes:       1.499
  Initializing partition tables, free-atom densities, potentials, etc. across the integration grid (initialize_grid_storage).
  | initialize_grid_storage: Actual outermost partition radius vs. multipole_radius_free
  | (-- VB: in principle, multipole_radius_free should be larger, hence this output)
  | Species        1: Confinement radius =              4.999999999999999 AA, multipole_radius_free =              5.000694715736543 AA.
  | Species        1: outer_partition_radius set to              5.000694715736543 AA .
  | Original list of interatomic distances with         228 x        228 entries is created.
  | Net number of integration points:    11208
  | of which are non-zero points    :     9724
  | Numerical average free-atom electrostatic potential    :    -13.36792917 eV
  Renormalizing the initial density to the exact electron count on the 3D integration grid.
  | Initial density: Formal number of electrons (from input files) :      28.0000000000
  | Integrated number of electrons on 3D grid     :      28.0052500917
  | Charge integration error                      :       0.0052500917
  | Normalization factor for density and gradient :       0.9998125319
  Obtaining max. number of non-zero basis functions in each batch (get_n_compute_maxes).
  | Maximal number of non-zero basis functions:      479 in task     0
  Allocating       23.639 MB for KS_eigenvector_complex
  Integrating Hamiltonian matrix: batch-based integration.
  Time summed over all CPUs for integration: real work        0.650 s, elapsed        0.650 s
  Integrating overlap matrix.
  Time summed over all CPUs for integration: real work        0.454 s, elapsed        0.454 s
  Decreasing sparse matrix size:
   Tolerance:   9.9999998245167004E-014
   Hamiltonian matrix
  | Array has    37505 nonzero elements out of    43503 elements
  | Sparsity factor is 0.138
   Overlap matrix
  | Array has    36204 nonzero elements out of    43503 elements
  | Sparsity factor is 0.168
  New size of hamiltonian matrix:       37763

  Updating Kohn-Sham eigenvalues, eigenvectors, occupation numbers, and Fermi level.
  Solving generalized eigenproblem
  Transforming overlap matrix and checking for singularities.
  Overlap matrix is nonsingular at first k-point:
  | Lowest eigenvalue:  0.402189E-02

  Obtaining occupation numbers and chemical potential using ELSI.
  | Chemical potential (Fermi level):    -6.32729504eV
  Writing Kohn-Sham eigenvalues.
  K-point:       1 at    0.000000    0.000000    0.000000 (in units of recip. lattice)

  State    Occupation    Eigenvalue [Ha]    Eigenvalue [eV]
      1       2.00000         -65.514335        -1782.73576
      2       2.00000         -65.514335        -1782.73576
      3       2.00000          -5.115910         -139.21100
      4       2.00000          -5.115582         -139.20208
      5       2.00000          -3.530195          -96.06150
      6       2.00000          -3.530195          -96.06150
      7       2.00000          -3.530195          -96.06150
      8       2.00000          -3.529511          -96.04287
      9       2.00000          -3.529511          -96.04287
     10       2.00000          -3.529511          -96.04287
     11       2.00000          -0.673055          -18.31476
     12       2.00000          -0.234820           -6.38978
     13       2.00000          -0.234820           -6.38978
     14       2.00000          -0.234820           -6.38978
     15       0.00000          -0.130456           -3.54988
     16       0.00000          -0.130456           -3.54988
     17       0.00000          -0.130456           -3.54988
     18       0.00000          -0.104940           -2.85557
     19       0.00000           0.064436            1.75338
     20       0.00000           0.064436            1.75338

  What follows are estimated values for band gap, HOMO, LUMO, etc.
  | They are estimated on a discrete k-point grid and not necessarily exact.
  | For converged numbers, create a DOS and/or band structure plot on a denser k-grid.

  Highest occupied state (VBM) at     -6.38977738 eV (relative to internal zero)
  | Occupation number:      2.00000000
  | K-point:       1 at    0.000000    0.000000    0.000000 (in units of recip. lattice)

  Lowest unoccupied state (CBM) at    -5.53660836 eV (relative to internal zero)
  | Occupation number:      0.00000000
  | K-point:    1367 at    0.437500    0.437500    0.000000 (in units of recip. lattice)

  ESTIMATED overall HOMO-LUMO gap:      0.85316902 eV between HOMO at k-point 1 and LUMO at k-point 1367
  | This appears to be an indirect band gap.
  | Smallest direct gap :      2.83989703 eV for k_point 1 at    0.437500    0.437500    0.000000 (in units of recip. lattice)
  The gap value is above 0.2 eV. Unless you are using a very sparse k-point grid,
  this system is most likely an insulator or a semiconductor.
  Calculating total energy contributions from superposition of free atom densities.

  Total energy components:
  | Sum of eigenvalues            :        -328.22794470 Ha       -8931.53680687 eV
  | XC energy correction          :         -39.66939101 Ha       -1079.45905167 eV
  | XC potential correction       :          52.40960995 Ha        1426.13804784 eV
  | Free-atom electrostatic energy:        -263.25570304 Ha       -7163.55215730 eV
  | Hartree energy correction     :          -0.00000000 Ha          -0.00000000 eV
  | Entropy correction            :          -0.00000000 Ha          -0.00000000 eV
  | ---------------------------
  | Total energy                  :        -578.74342880 Ha      -15748.40996800 eV
  | Total energy, T -> 0          :        -578.74342880 Ha      -15748.40996800 eV  <-- do not rely on this value for anything but (periodic) metals
  | Electronic free energy        :        -578.74342880 Ha      -15748.40996800 eV

  Derived energy quantities:
  | Kinetic energy                :         579.73017645 Ha       15775.26073772 eV
  | Electrostatic energy          :       -1118.80421425 Ha      -30444.21165405 eV
  | Energy correction for multipole
  | error in Hartree potential    :           0.00000000 Ha           0.00000000 eV
  | Sum of eigenvalues per atom                           :       -4465.76840344 eV
  | Total energy (T->0) per atom                          :       -7874.20498400 eV  <-- do not rely on this value for anything but (periodic) metals
  | Electronic free energy per atom                       :       -7874.20498400 eV
  Initialize hartree_potential_storage
  Max. number of atoms included in rho_multipole:            2

  End scf initialization - timings             :  max(cpu_time)    wall_clock(cpu1)
  | Time for scf. initialization               :        3.841 s           3.842 s
  | Boundary condition initialization          :        0.051 s           0.051 s
  | Integration                                :        1.104 s           1.105 s
  | Solution of K.-S. eqns.                    :        2.442 s           2.443 s
  | Grid partitioning                          :        0.035 s           0.034 s
  | Preloading free-atom quantities on grid    :        0.001 s           0.001 s
  | Free-atom superposition energy             :        0.030 s           0.030 s
  | Total energy evaluation                    :        0.001 s           0.001 s

  Partial memory accounting:
  | Current value for overall tracked memory usage on task 0  :          24.395 MB
  | Peak value for overall tracked memory usage on task 0     :          27.380 MB after allocating wave
  | Largest tracked array allocation on task 0 so far         :          23.639 MB  when allocating +KS_eigenvector_complex
  Note:  These values currently only include a subset of arrays which are explicitly tracked.
  The "true" memory usage will be greater.
------------------------------------------------------------

------------------------------------------------------------
          Begin self-consistency iteration #    1

  Date     :  20190513, Time     :  134804.529
------------------------------------------------------------
  Evaluating new KS density using the density matrix
  Evaluating density matrix
  Time summed over all CPUs for getting density from density matrix: real work        1.071 s, elapsed        1.071 s
  Integration grid: deviation in total charge (<rho> - N_e) =   1.030287E-13
  Pulay mixing of updated and previous charge densities.

  Evaluating partitioned Hartree potential by multipole expansion.
  | Analytical far-field extrapolation by fixed multipoles:
  | Hartree multipole sum: apparent total charge =   0.546508E-02
  Summing up the Hartree potential.
  | Estimated reciprocal-space cutoff momentum G_max:         2.41638048 bohr^-1 .
  | Reciprocal lattice points for long-range Hartree potential:      58
  Time summed over all CPUs for potential: real work        0.387 s, elapsed        0.387 s
  | RMS charge density error from multipole expansion :   0.547758E-03
  | Average real-space part of the electrostatic potential :     -0.00450063 eV

  Integrating Hamiltonian matrix: batch-based integration.
  Time summed over all CPUs for integration: real work        0.662 s, elapsed        0.662 s

  Updating Kohn-Sham eigenvalues, eigenvectors, occupation numbers, and Fermi level.
  Solving generalized eigenproblem

  Obtaining occupation numbers and chemical potential using ELSI.
  | Chemical potential (Fermi level):    -6.31115587eV
  Writing Kohn-Sham eigenvalues.
  K-point:       1 at    0.000000    0.000000    0.000000 (in units of recip. lattice)

  State    Occupation    Eigenvalue [Ha]    Eigenvalue [eV]
      1       2.00000         -65.517698        -1782.82727
      2       2.00000         -65.517698        -1782.82727
      3       2.00000          -5.116512         -139.22736
      4       2.00000          -5.116184         -139.21846
      5       2.00000          -3.530892          -96.08045
      6       2.00000          -3.530892          -96.08045
      7       2.00000          -3.530892          -96.08045
      8       2.00000          -3.530209          -96.06186
      9       2.00000          -3.530209          -96.06186
     10       2.00000          -3.530209          -96.06186
     11       2.00000          -0.672506          -18.29981
     12       2.00000          -0.234034           -6.36838
     13       2.00000          -0.234034           -6.36838
     14       2.00000          -0.234034           -6.36838
     15       0.00000          -0.130063           -3.53920
     16       0.00000          -0.130063           -3.53920
     17       0.00000          -0.130063           -3.53920
     18       0.00000          -0.104270           -2.83734
     19       0.00000           0.064913            1.76637
     20       0.00000           0.064913            1.76637

  What follows are estimated values for band gap, HOMO, LUMO, etc.
  | They are estimated on a discrete k-point grid and not necessarily exact.
  | For converged numbers, create a DOS and/or band structure plot on a denser k-grid.

  Highest occupied state (VBM) at     -6.36837865 eV (relative to internal zero)
  | Occupation number:      2.00000000
  | K-point:       1 at    0.000000    0.000000    0.000000 (in units of recip. lattice)

  Lowest unoccupied state (CBM) at    -5.53009301 eV (relative to internal zero)
  | Occupation number:      0.00000000
  | K-point:    1288 at    0.437500    0.000000    0.437500 (in units of recip. lattice)

  ESTIMATED overall HOMO-LUMO gap:      0.83828564 eV between HOMO at k-point 1 and LUMO at k-point 1288
  | This appears to be an indirect band gap.
  | Smallest direct gap :      2.82917455 eV for k_point 1 at    0.437500    0.000000    0.437500 (in units of recip. lattice)
  The gap value is above 0.2 eV. Unless you are using a very sparse k-point grid,
  this system is most likely an insulator or a semiconductor.

  Total energy components:
  | Sum of eigenvalues            :        -328.24736312 Ha       -8932.06520906 eV
  | XC energy correction          :         -39.67232337 Ha       -1079.53884519 eV
  | XC potential correction       :          52.41347805 Ha        1426.24330410 eV
  | Free-atom electrostatic energy:        -263.25570304 Ha       -7163.55215730 eV
  | Hartree energy correction     :           0.01907873 Ha           0.51915874 eV
  | Entropy correction            :          -0.00000000 Ha          -0.00000000 eV
  | ---------------------------
  | Total energy                  :        -578.74283275 Ha      -15748.39374871 eV
  | Total energy, T -> 0          :        -578.74283275 Ha      -15748.39374871 eV  <-- do not rely on this value for anything but (periodic) metals
  | Electronic free energy        :        -578.74283275 Ha      -15748.39374871 eV

  Derived energy quantities:
  | Kinetic energy                :         579.58553087 Ha       15771.32473107 eV
  | Electrostatic energy          :       -1118.65604025 Ha      -30440.17963459 eV
  | Energy correction for multipole
  | error in Hartree potential    :           0.00072504 Ha           0.01972948 eV
  | Sum of eigenvalues per atom                           :       -4466.03260453 eV
  | Total energy (T->0) per atom                          :       -7874.19687436 eV  <-- do not rely on this value for anything but (periodic) metals
  | Electronic free energy per atom                       :       -7874.19687436 eV

  Self-consistency convergence accuracy:
  | Change of charge density      :  0.1066E+00
  | Change of sum of eigenvalues  : -0.5284E+00 eV
  | Change of total energy        :  0.1622E-01 eV

  End self-consistency iteration #     1       :  max(cpu_time)    wall_clock(cpu1)
  | Time for this iteration                    :        3.580 s           3.580 s
  | Charge density update                      :        1.222 s           1.222 s
  | Density mixing & preconditioning           :        0.051 s           0.051 s
  | Hartree multipole update                   :        0.001 s           0.001 s
  | Hartree multipole summation                :        0.391 s           0.391 s
  | Integration                                :        0.661 s           0.662 s
  | Solution of K.-S. eqns.                    :        1.253 s           1.252 s
  | Total energy evaluation                    :        0.000 s           0.000 s

  Partial memory accounting:
  | Current value for overall tracked memory usage on task 0  :          24.395 MB
  | Peak value for overall tracked memory usage on task 0     :          27.380 MB after allocating wave
  | Largest tracked array allocation on task 0 so far         :          23.639 MB  when allocating +KS_eigenvector_complex
  Note:  These values currently only include a subset of arrays which are explicitly tracked.
  The "true" memory usage will be greater.
------------------------------------------------------------

------------------------------------------------------------
          Begin self-consistency iteration #    2

  Date     :  20190513, Time     :  134808.109
------------------------------------------------------------
  Evaluating new KS density using the density matrix
  Evaluating density matrix
  Time summed over all CPUs for getting density from density matrix: real work        0.991 s, elapsed        0.991 s
  Integration grid: deviation in total charge (<rho> - N_e) =  -7.105427E-15
  Pulay mixing of updated and previous charge densities.

  Evaluating partitioned Hartree potential by multipole expansion.
  | Analytical far-field extrapolation by fixed multipoles:
  | Hartree multipole sum: apparent total charge =   0.938728E-02
  Summing up the Hartree potential.
  Time summed over all CPUs for potential: real work        0.447 s, elapsed        0.447 s
  | RMS charge density error from multipole expansion :   0.107258E-01
  | Average real-space part of the electrostatic potential :      0.34499936 eV

  Integrating Hamiltonian matrix: batch-based integration.
  Time summed over all CPUs for integration: real work        0.625 s, elapsed        0.625 s

  Updating Kohn-Sham eigenvalues, eigenvectors, occupation numbers, and Fermi level.
  Solving generalized eigenproblem

  Obtaining occupation numbers and chemical potential using ELSI.
  | Chemical potential (Fermi level):    -5.42034148eV
  What follows are estimated values for band gap, HOMO, LUMO, etc.
  | They are estimated on a discrete k-point grid and not necessarily exact.
  | For converged numbers, create a DOS and/or band structure plot on a denser k-grid.

  Highest occupied state (VBM) at     -5.79534743 eV (relative to internal zero)
  | Occupation number:      2.00000000
  | K-point:       1 at    0.000000    0.000000    0.000000 (in units of recip. lattice)

  Lowest unoccupied state (CBM) at    -5.36908042 eV (relative to internal zero)
  | Occupation number:      0.00000000
  | K-point:     105 at    0.000000    0.562500    0.562500 (in units of recip. lattice)

  ESTIMATED overall HOMO-LUMO gap:      0.42626701 eV between HOMO at k-point 1 and LUMO at k-point 105
  | This appears to be an indirect band gap.
  | Smallest direct gap :      2.54808550 eV for k_point 1 at    0.000000    0.562500    0.562500 (in units of recip. lattice)
  The gap value is above 0.2 eV. Unless you are using a very sparse k-point grid,
  this system is most likely an insulator or a semiconductor.

  Checking to see if s.c.f. parameters should be adjusted.
  The system likely has a gap. Increased the default Pulay mixing parameter (charge_mix_param). Value:   0.200000 .
  Kept the default occupation width. Value:   0.010000 eV.

  Total energy components:
  | Sum of eigenvalues            :        -327.38953230 Ha       -8908.72244482 eV
  | XC energy correction          :         -39.73841084 Ha       -1081.33717671 eV
  | XC potential correction       :          52.50062702 Ha        1428.61474846 eV
  | Free-atom electrostatic energy:        -263.25570304 Ha       -7163.55215730 eV
  | Hartree energy correction     :          -0.85410427 Ha         -23.24135966 eV
  | Entropy correction            :          -0.00000000 Ha          -0.00000000 eV
  | ---------------------------
  | Total energy                  :        -578.73712343 Ha      -15748.23839003 eV
  | Total energy, T -> 0          :        -578.73712343 Ha      -15748.23839003 eV  <-- do not rely on this value for anything but (periodic) metals
  | Electronic free energy        :        -578.73712343 Ha      -15748.23839003 eV

  Derived energy quantities:
  | Kinetic energy                :         579.87446146 Ha       15779.18693256 eV
  | Electrostatic energy          :       -1118.87317405 Ha      -30446.08814588 eV
  | Energy correction for multipole
  | error in Hartree potential    :           0.01417172 Ha           0.38563210 eV
  | Sum of eigenvalues per atom                           :       -4454.36122241 eV
  | Total energy (T->0) per atom                          :       -7874.11919501 eV  <-- do not rely on this value for anything but (periodic) metals
  | Electronic free energy per atom                       :       -7874.11919501 eV

  Self-consistency convergence accuracy:
  | Change of charge density      :  0.1012E+00
  | Change of sum of eigenvalues  :  0.2334E+02 eV
  | Change of total energy        :  0.1554E+00 eV

  End self-consistency iteration #     2       :  max(cpu_time)    wall_clock(cpu1)
  | Time for this iteration                    :        3.505 s           3.506 s
  | Charge density update                      :        1.143 s           1.144 s
  | Density mixing & preconditioning           :        0.045 s           0.045 s
  | Hartree multipole update                   :        0.001 s           0.001 s
  | Hartree multipole summation                :        0.451 s           0.450 s
  | Integration                                :        0.624 s           0.625 s
  | Solution of K.-S. eqns.                    :        1.240 s           1.240 s
  | Total energy evaluation                    :        0.000 s           0.000 s

  Partial memory accounting:
  | Current value for overall tracked memory usage on task 0  :          24.396 MB
  | Peak value for overall tracked memory usage on task 0     :          27.380 MB after allocating wave
  | Largest tracked array allocation on task 0 so far         :          23.639 MB  when allocating +KS_eigenvector_complex
  Note:  These values currently only include a subset of arrays which are explicitly tracked.
  The "true" memory usage will be greater.
------------------------------------------------------------

------------------------------------------------------------
          Begin self-consistency iteration #    3

  Date     :  20190513, Time     :  134811.615
------------------------------------------------------------
  Evaluating new KS density using the density matrix
  Evaluating density matrix
  Time summed over all CPUs for getting density from density matrix: real work        1.009 s, elapsed        1.009 s
  Integration grid: deviation in total charge (<rho> - N_e) =  -1.065814E-13
  Pulay mixing of updated and previous charge densities.

  Evaluating partitioned Hartree potential by multipole expansion.
  | Analytical far-field extrapolation by fixed multipoles:
  | Hartree multipole sum: apparent total charge =   0.884875E-02
  Summing up the Hartree potential.
  Time summed over all CPUs for potential: real work        0.458 s, elapsed        0.458 s
  | RMS charge density error from multipole expansion :   0.105987E-01
  | Average real-space part of the electrostatic potential :      0.33387159 eV

  Integrating Hamiltonian matrix: batch-based integration.
  Time summed over all CPUs for integration: real work        0.597 s, elapsed        0.597 s

  Updating Kohn-Sham eigenvalues, eigenvectors, occupation numbers, and Fermi level.
  Solving generalized eigenproblem

  Obtaining occupation numbers and chemical potential using ELSI.
  | Chemical potential (Fermi level):    -5.43732781eV
  What follows are estimated values for band gap, HOMO, LUMO, etc.
  | They are estimated on a discrete k-point grid and not necessarily exact.
  | For converged numbers, create a DOS and/or band structure plot on a denser k-grid.

  Highest occupied state (VBM) at     -5.81574041 eV (relative to internal zero)
  | Occupation number:      2.00000000
  | K-point:       1 at    0.000000    0.000000    0.000000 (in units of recip. lattice)

  Lowest unoccupied state (CBM) at    -5.37450699 eV (relative to internal zero)
  | Occupation number:      0.00000000
  | K-point:     105 at    0.000000    0.562500    0.562500 (in units of recip. lattice)

  ESTIMATED overall HOMO-LUMO gap:      0.44123342 eV between HOMO at k-point 1 and LUMO at k-point 105
  | This appears to be an indirect band gap.
  | Smallest direct gap :      2.55718913 eV for k_point 1 at    0.000000    0.562500    0.562500 (in units of recip. lattice)
  The gap value is above 0.2 eV. Unless you are using a very sparse k-point grid,
  this system is most likely an insulator or a semiconductor.

  Total energy components:
  | Sum of eigenvalues            :        -327.42985114 Ha       -8909.81957606 eV
  | XC energy correction          :         -39.73586860 Ha       -1081.26799888 eV
  | XC potential correction       :          52.49727347 Ha        1428.52349349 eV
  | Free-atom electrostatic energy:        -263.25570304 Ha       -7163.55215730 eV
  | Hartree energy correction     :          -0.81285390 Ha         -22.11887991 eV
  | Entropy correction            :          -0.00000000 Ha          -0.00000000 eV
  | ---------------------------
  | Total energy                  :        -578.73700321 Ha      -15748.23511866 eV
  | Total energy, T -> 0          :        -578.73700321 Ha      -15748.23511866 eV  <-- do not rely on this value for anything but (periodic) metals
  | Electronic free energy        :        -578.73700321 Ha      -15748.23511866 eV

  Derived energy quantities:
  | Kinetic energy                :         579.85878419 Ha       15778.76033220 eV
  | Electrostatic energy          :       -1118.85991880 Ha      -30445.72745198 eV
  | Energy correction for multipole
  | error in Hartree potential    :           0.01402961 Ha           0.38176519 eV
  | Sum of eigenvalues per atom                           :       -4454.90978803 eV
  | Total energy (T->0) per atom                          :       -7874.11755933 eV  <-- do not rely on this value for anything but (periodic) metals
  | Electronic free energy per atom                       :       -7874.11755933 eV

  Self-consistency convergence accuracy:
  | Change of charge density      :  0.1692E-01
  | Change of sum of eigenvalues  : -0.1097E+01 eV
  | Change of total energy        :  0.3271E-02 eV

  End self-consistency iteration #     3       :  max(cpu_time)    wall_clock(cpu1)
  | Time for this iteration                    :        3.562 s           3.562 s
  | Charge density update                      :        1.158 s           1.158 s
  | Density mixing & preconditioning           :        0.052 s           0.052 s
  | Hartree multipole update                   :        0.001 s           0.000 s
  | Hartree multipole summation                :        0.461 s           0.462 s
  | Integration                                :        0.597 s           0.597 s
  | Solution of K.-S. eqns.                    :        1.292 s           1.292 s
  | Total energy evaluation                    :        0.001 s           0.001 s

  Partial memory accounting:
  | Current value for overall tracked memory usage on task 0  :          24.396 MB
  | Peak value for overall tracked memory usage on task 0     :          27.380 MB after allocating wave
  | Largest tracked array allocation on task 0 so far         :          23.639 MB  when allocating +KS_eigenvector_complex
  Note:  These values currently only include a subset of arrays which are explicitly tracked.
  The "true" memory usage will be greater.
------------------------------------------------------------

------------------------------------------------------------
          Begin self-consistency iteration #    4

  Date     :  20190513, Time     :  134815.177
------------------------------------------------------------
  Evaluating new KS density using the density matrix
  Evaluating density matrix
  Time summed over all CPUs for getting density from density matrix: real work        1.071 s, elapsed        1.071 s
  Integration grid: deviation in total charge (<rho> - N_e) =  -7.105427E-15
  Pulay mixing of updated and previous charge densities.

  Evaluating partitioned Hartree potential by multipole expansion.
  | Analytical far-field extrapolation by fixed multipoles:
  | Hartree multipole sum: apparent total charge =   0.615397E-02
  Summing up the Hartree potential.
  Time summed over all CPUs for potential: real work        0.488 s, elapsed        0.488 s
  | RMS charge density error from multipole expansion :   0.112319E-01
  | Average real-space part of the electrostatic potential :      0.31709301 eV

  Integrating Hamiltonian matrix: batch-based integration.
  Time summed over all CPUs for integration: real work        0.623 s, elapsed        0.623 s

  Updating Kohn-Sham eigenvalues, eigenvectors, occupation numbers, and Fermi level.
  Solving generalized eigenproblem

  Obtaining occupation numbers and chemical potential using ELSI.
  | Chemical potential (Fermi level):    -5.46991869eV
  What follows are estimated values for band gap, HOMO, LUMO, etc.
  | They are estimated on a discrete k-point grid and not necessarily exact.
  | For converged numbers, create a DOS and/or band structure plot on a denser k-grid.

  Highest occupied state (VBM) at     -5.85266595 eV (relative to internal zero)
  | Occupation number:      2.00000000
  | K-point:       1 at    0.000000    0.000000    0.000000 (in units of recip. lattice)

  Lowest unoccupied state (CBM) at    -5.38046966 eV (relative to internal zero)
  | Occupation number:      0.00000000
  | K-point:     105 at    0.000000    0.562500    0.562500 (in units of recip. lattice)

  ESTIMATED overall HOMO-LUMO gap:      0.47219629 eV between HOMO at k-point 1 and LUMO at k-point 105
  | This appears to be an indirect band gap.
  | Smallest direct gap :      2.57048397 eV for k_point 1 at    0.000000    0.562500    0.562500 (in units of recip. lattice)
  The gap value is above 0.2 eV. Unless you are using a very sparse k-point grid,
  this system is most likely an insulator or a semiconductor.

  Total energy components:
  | Sum of eigenvalues            :        -327.54828467 Ha       -8913.04231654 eV
  | XC energy correction          :         -39.73124829 Ha       -1081.14227392 eV
  | XC potential correction       :          52.49116692 Ha        1428.35732582 eV
  | Free-atom electrostatic energy:        -263.25570304 Ha       -7163.55215730 eV
  | Hartree energy correction     :          -0.69264859 Ha         -18.84792720 eV
  | Entropy correction            :          -0.00000000 Ha          -0.00000000 eV
  | ---------------------------
  | Total energy                  :        -578.73671768 Ha      -15748.22734914 eV
  | Total energy, T -> 0          :        -578.73671768 Ha      -15748.22734914 eV  <-- do not rely on this value for anything but (periodic) metals
  | Electronic free energy        :        -578.73671768 Ha      -15748.22734914 eV

  Derived energy quantities:
  | Kinetic energy                :         579.80250066 Ha       15777.22877947 eV
  | Electrostatic energy          :       -1118.80797005 Ha      -30444.31385468 eV
  | Energy correction for multipole
  | error in Hartree potential    :           0.01499762 Ha           0.40810595 eV
  | Sum of eigenvalues per atom                           :       -4456.52115827 eV
  | Total energy (T->0) per atom                          :       -7874.11367457 eV  <-- do not rely on this value for anything but (periodic) metals
  | Electronic free energy per atom                       :       -7874.11367457 eV

  Self-consistency convergence accuracy:
  | Change of charge density      :  0.1457E-01
  | Change of sum of eigenvalues  : -0.3223E+01 eV
  | Change of total energy        :  0.7770E-02 eV

  End self-consistency iteration #     4       :  max(cpu_time)    wall_clock(cpu1)
  | Time for this iteration                    :        3.658 s           3.658 s
  | Charge density update                      :        1.238 s           1.238 s
  | Density mixing & preconditioning           :        0.047 s           0.047 s
  | Hartree multipole update                   :        0.001 s           0.001 s
  | Hartree multipole summation                :        0.492 s           0.492 s
  | Integration                                :        0.623 s           0.623 s
  | Solution of K.-S. eqns.                    :        1.256 s           1.256 s
  | Total energy evaluation                    :        0.001 s           0.001 s

  Partial memory accounting:
  | Current value for overall tracked memory usage on task 0  :          24.396 MB
  | Peak value for overall tracked memory usage on task 0     :          27.380 MB after allocating wave
  | Largest tracked array allocation on task 0 so far         :          23.639 MB  when allocating +KS_eigenvector_complex
  Note:  These values currently only include a subset of arrays which are explicitly tracked.
  The "true" memory usage will be greater.
------------------------------------------------------------

------------------------------------------------------------
          Begin self-consistency iteration #    5

  Date     :  20190513, Time     :  134818.835
------------------------------------------------------------
  Evaluating new KS density using the density matrix
  Evaluating density matrix
  Time summed over all CPUs for getting density from density matrix: real work        1.214 s, elapsed        1.214 s
  Integration grid: deviation in total charge (<rho> - N_e) =  -3.552714E-14
  Pulay mixing of updated and previous charge densities.

  Evaluating partitioned Hartree potential by multipole expansion.
  | Analytical far-field extrapolation by fixed multipoles:
  | Hartree multipole sum: apparent total charge =   0.513581E-02
  Summing up the Hartree potential.
  Time summed over all CPUs for potential: real work        0.540 s, elapsed        0.540 s
  | RMS charge density error from multipole expansion :   0.111902E-01
  | Average real-space part of the electrostatic potential :      0.31288946 eV

  Integrating Hamiltonian matrix: batch-based integration.
  Time summed over all CPUs for integration: real work        0.690 s, elapsed        0.690 s

  Updating Kohn-Sham eigenvalues, eigenvectors, occupation numbers, and Fermi level.
  Solving generalized eigenproblem

  Obtaining occupation numbers and chemical potential using ELSI.
  | Chemical potential (Fermi level):    -5.47786104eV
  What follows are estimated values for band gap, HOMO, LUMO, etc.
  | They are estimated on a discrete k-point grid and not necessarily exact.
  | For converged numbers, create a DOS and/or band structure plot on a denser k-grid.

  Highest occupied state (VBM) at     -5.86177360 eV (relative to internal zero)
  | Occupation number:      2.00000000
  | K-point:       1 at    0.000000    0.000000    0.000000 (in units of recip. lattice)

  Lowest unoccupied state (CBM) at    -5.38358344 eV (relative to internal zero)
  | Occupation number:      0.00000000
  | K-point:     105 at    0.000000    0.562500    0.562500 (in units of recip. lattice)

  ESTIMATED overall HOMO-LUMO gap:      0.47819017 eV between HOMO at k-point 1 and LUMO at k-point 105
  | This appears to be an indirect band gap.
  | Smallest direct gap :      2.57397027 eV for k_point 1 at    0.000000    0.562500    0.562500 (in units of recip. lattice)
  The gap value is above 0.2 eV. Unless you are using a very sparse k-point grid,
  this system is most likely an insulator or a semiconductor.

  Total energy components:
  | Sum of eigenvalues            :        -327.58653030 Ha       -8914.08303304 eV
  | XC energy correction          :         -39.72822410 Ha       -1081.05998139 eV
  | XC potential correction       :          52.48715885 Ha        1428.24826065 eV
  | Free-atom electrostatic energy:        -263.25570304 Ha       -7163.55215730 eV
  | Hartree energy correction     :          -0.65338137 Ha         -17.77941178 eV
  | Entropy correction            :          -0.00000000 Ha          -0.00000000 eV
  | ---------------------------
  | Total energy                  :        -578.73667997 Ha      -15748.22632286 eV
  | Total energy, T -> 0          :        -578.73667997 Ha      -15748.22632286 eV  <-- do not rely on this value for anything but (periodic) metals
  | Electronic free energy        :        -578.73667997 Ha      -15748.22632286 eV

  Derived energy quantities:
  | Kinetic energy                :         579.77484157 Ha       15776.47613731 eV
  | Electrostatic energy          :       -1118.78329744 Ha      -30443.64247879 eV
  | Energy correction for multipole
  | error in Hartree potential    :           0.01490444 Ha           0.40557048 eV
  | Sum of eigenvalues per atom                           :       -4457.04151652 eV
  | Total energy (T->0) per atom                          :       -7874.11316143 eV  <-- do not rely on this value for anything but (periodic) metals
  | Electronic free energy per atom                       :       -7874.11316143 eV

  Self-consistency convergence accuracy:
  | Change of charge density      :  0.8638E-02
  | Change of sum of eigenvalues  : -0.1041E+01 eV
  | Change of total energy        :  0.1026E-02 eV

  End self-consistency iteration #     5       :  max(cpu_time)    wall_clock(cpu1)
  | Time for this iteration                    :        3.936 s           3.936 s
  | Charge density update                      :        1.395 s           1.395 s
  | Density mixing & preconditioning           :        0.060 s           0.060 s
  | Hartree multipole update                   :        0.001 s           0.001 s
  | Hartree multipole summation                :        0.545 s           0.545 s
  | Integration                                :        0.690 s           0.690 s
  | Solution of K.-S. eqns.                    :        1.244 s           1.244 s
  | Total energy evaluation                    :        0.001 s           0.001 s

  Partial memory accounting:
  | Current value for overall tracked memory usage on task 0  :          24.396 MB
  | Peak value for overall tracked memory usage on task 0     :          27.380 MB after allocating wave
  | Largest tracked array allocation on task 0 so far         :          23.639 MB  when allocating +KS_eigenvector_complex
  Note:  These values currently only include a subset of arrays which are explicitly tracked.
  The "true" memory usage will be greater.
------------------------------------------------------------

------------------------------------------------------------
          Begin self-consistency iteration #    6

  Date     :  20190513, Time     :  134822.771
------------------------------------------------------------
  Evaluating new KS density using the density matrix
  Evaluating density matrix
  Time summed over all CPUs for getting density from density matrix: real work        0.995 s, elapsed        0.995 s
  Integration grid: deviation in total charge (<rho> - N_e) =  -8.526513E-14
  Pulay mixing of updated and previous charge densities.

  Evaluating partitioned Hartree potential by multipole expansion.
  | Analytical far-field extrapolation by fixed multipoles:
  | Hartree multipole sum: apparent total charge =   0.510303E-02
  Summing up the Hartree potential.
  Time summed over all CPUs for potential: real work        0.442 s, elapsed        0.442 s
  | RMS charge density error from multipole expansion :   0.112158E-01
  | Average real-space part of the electrostatic potential :      0.31265595 eV

  Integrating Hamiltonian matrix: batch-based integration.
  Time summed over all CPUs for integration: real work        0.600 s, elapsed        0.600 s

  Updating Kohn-Sham eigenvalues, eigenvectors, occupation numbers, and Fermi level.
  Solving generalized eigenproblem

  Obtaining occupation numbers and chemical potential using ELSI.
  | Chemical potential (Fermi level):    -5.47787400eV
  What follows are estimated values for band gap, HOMO, LUMO, etc.
  | They are estimated on a discrete k-point grid and not necessarily exact.
  | For converged numbers, create a DOS and/or band structure plot on a denser k-grid.

  Highest occupied state (VBM) at     -5.86169253 eV (relative to internal zero)
  | Occupation number:      2.00000000
  | K-point:       1 at    0.000000    0.000000    0.000000 (in units of recip. lattice)

  Lowest unoccupied state (CBM) at    -5.38353395 eV (relative to internal zero)
  | Occupation number:      0.00000000
  | K-point:     105 at    0.000000    0.562500    0.562500 (in units of recip. lattice)

  ESTIMATED overall HOMO-LUMO gap:      0.47815858 eV between HOMO at k-point 1 and LUMO at k-point 105
  | This appears to be an indirect band gap.
  | Smallest direct gap :      2.57379163 eV for k_point 1 at    0.000000    0.562500    0.562500 (in units of recip. lattice)
  The gap value is above 0.2 eV. Unless you are using a very sparse k-point grid,
  this system is most likely an insulator or a semiconductor.

  Total energy components:
  | Sum of eigenvalues            :        -327.59172109 Ha       -8914.22428171 eV
  | XC energy correction          :         -39.72771573 Ha       -1081.04614792 eV
  | XC potential correction       :          52.48648398 Ha        1428.22989660 eV
  | Free-atom electrostatic energy:        -263.25570304 Ha       -7163.55215730 eV
  | Hartree energy correction     :          -0.64801998 Ha         -17.63352087 eV
  | Entropy correction            :          -0.00000000 Ha          -0.00000000 eV
  | ---------------------------
  | Total energy                  :        -578.73667586 Ha      -15748.22621120 eV
  | Total energy, T -> 0          :        -578.73667586 Ha      -15748.22621120 eV  <-- do not rely on this value for anything but (periodic) metals
  | Electronic free energy        :        -578.73667586 Ha      -15748.22621120 eV

  Derived energy quantities:
  | Kinetic energy                :         579.76699460 Ha       15776.26261035 eV
  | Electrostatic energy          :       -1118.77595473 Ha      -30443.44267363 eV
  | Energy correction for multipole
  | error in Hartree potential    :           0.01492857 Ha           0.40622702 eV
  | Sum of eigenvalues per atom                           :       -4457.11214085 eV
  | Total energy (T->0) per atom                          :       -7874.11310560 eV  <-- do not rely on this value for anything but (periodic) metals
  | Electronic free energy per atom                       :       -7874.11310560 eV

  Self-consistency convergence accuracy:
  | Change of charge density      :  0.6922E-02
  | Change of sum of eigenvalues  : -0.1412E+00 eV
  | Change of total energy        :  0.1117E-03 eV

  End self-consistency iteration #     6       :  max(cpu_time)    wall_clock(cpu1)
  | Time for this iteration                    :        3.457 s           3.457 s
  | Charge density update                      :        1.148 s           1.148 s
  | Density mixing & preconditioning           :        0.045 s           0.045 s
  | Hartree multipole update                   :        0.001 s           0.001 s
  | Hartree multipole summation                :        0.446 s           0.445 s
  | Integration                                :        0.600 s           0.600 s
  | Solution of K.-S. eqns.                    :        1.217 s           1.217 s
  | Total energy evaluation                    :        0.001 s           0.000 s

  Partial memory accounting:
  | Current value for overall tracked memory usage on task 0  :          24.397 MB
  | Peak value for overall tracked memory usage on task 0     :          27.380 MB after allocating wave
  | Largest tracked array allocation on task 0 so far         :          23.639 MB  when allocating +KS_eigenvector_complex
  Note:  These values currently only include a subset of arrays which are explicitly tracked.
  The "true" memory usage will be greater.
------------------------------------------------------------

------------------------------------------------------------
          Begin self-consistency iteration #    7

  Date     :  20190513, Time     :  134826.228
------------------------------------------------------------
  Evaluating new KS density using the density matrix
  Evaluating density matrix
  Time summed over all CPUs for getting density from density matrix: real work        0.983 s, elapsed        0.983 s
  Integration grid: deviation in total charge (<rho> - N_e) =  -1.634248E-13
  Pulay mixing of updated and previous charge densities.

  Evaluating partitioned Hartree potential by multipole expansion.
  | Analytical far-field extrapolation by fixed multipoles:
  | Hartree multipole sum: apparent total charge =   0.512997E-02
  Summing up the Hartree potential.
  Time summed over all CPUs for potential: real work        0.448 s, elapsed        0.448 s
  | RMS charge density error from multipole expansion :   0.111785E-01
  | Average real-space part of the electrostatic potential :      0.30800508 eV

  Integrating Hamiltonian matrix: batch-based integration.
  Time summed over all CPUs for integration: real work        0.633 s, elapsed        0.633 s

  Updating Kohn-Sham eigenvalues, eigenvectors, occupation numbers, and Fermi level.
  Solving generalized eigenproblem

  Obtaining occupation numbers and chemical potential using ELSI.
  | Chemical potential (Fermi level):    -5.48260782eV
  What follows are estimated values for band gap, HOMO, LUMO, etc.
  | They are estimated on a discrete k-point grid and not necessarily exact.
  | For converged numbers, create a DOS and/or band structure plot on a denser k-grid.

  Highest occupied state (VBM) at     -5.86735647 eV (relative to internal zero)
  | Occupation number:      2.00000000
  | K-point:       1 at    0.000000    0.000000    0.000000 (in units of recip. lattice)

  Lowest unoccupied state (CBM) at    -5.38526026 eV (relative to internal zero)
  | Occupation number:      0.00000000
  | K-point:     105 at    0.000000    0.562500    0.562500 (in units of recip. lattice)

  ESTIMATED overall HOMO-LUMO gap:      0.48209621 eV between HOMO at k-point 1 and LUMO at k-point 105
  | This appears to be an indirect band gap.
  | Smallest direct gap :      2.57623540 eV for k_point 1 at    0.000000    0.562500    0.562500 (in units of recip. lattice)
  The gap value is above 0.2 eV. Unless you are using a very sparse k-point grid,
  this system is most likely an insulator or a semiconductor.

  Total energy components:
  | Sum of eigenvalues            :        -327.61500681 Ha       -8914.85791826 eV
  | XC energy correction          :         -39.72536198 Ha       -1080.98209930 eV
  | XC potential correction       :          52.48336724 Ha        1428.14508571 eV
  | Free-atom electrostatic energy:        -263.25570304 Ha       -7163.55215730 eV
  | Hartree energy correction     :          -0.62395434 Ha         -16.97866148 eV
  | Entropy correction            :          -0.00000000 Ha          -0.00000000 eV
  | ---------------------------
  | Total energy                  :        -578.73665894 Ha      -15748.22575062 eV
  | Total energy, T -> 0          :        -578.73665894 Ha      -15748.22575062 eV  <-- do not rely on this value for anything but (periodic) metals
  | Electronic free energy        :        -578.73665894 Ha      -15748.22575062 eV

  Derived energy quantities:
  | Kinetic energy                :         579.73928391 Ha       15775.50856431 eV
  | Electrostatic energy          :       -1118.75058087 Ha      -30442.75221564 eV
  | Energy correction for multipole
  | error in Hartree potential    :           0.01484682 Ha           0.40400257 eV
  | Sum of eigenvalues per atom                           :       -4457.42895913 eV
  | Total energy (T->0) per atom                          :       -7874.11287531 eV  <-- do not rely on this value for anything but (periodic) metals
  | Electronic free energy per atom                       :       -7874.11287531 eV

  Self-consistency convergence accuracy:
  | Change of charge density      :  0.6628E-02
  | Change of sum of eigenvalues  : -0.6336E+00 eV
  | Change of total energy        :  0.4606E-03 eV

  End self-consistency iteration #     7       :  max(cpu_time)    wall_clock(cpu1)
  | Time for this iteration                    :        3.566 s           3.566 s
  | Charge density update                      :        1.136 s           1.137 s
  | Density mixing & preconditioning           :        0.046 s           0.046 s
  | Hartree multipole update                   :        0.001 s           0.001 s
  | Hartree multipole summation                :        0.452 s           0.452 s
  | Integration                                :        0.633 s           0.633 s
  | Solution of K.-S. eqns.                    :        1.296 s           1.296 s
  | Total energy evaluation                    :        0.000 s           0.001 s

  Partial memory accounting:
  | Current value for overall tracked memory usage on task 0  :          24.397 MB
  | Peak value for overall tracked memory usage on task 0     :          27.380 MB after allocating wave
  | Largest tracked array allocation on task 0 so far         :          23.639 MB  when allocating +KS_eigenvector_complex
  Note:  These values currently only include a subset of arrays which are explicitly tracked.
  The "true" memory usage will be greater.
------------------------------------------------------------

------------------------------------------------------------
          Begin self-consistency iteration #    8

  Date     :  20190513, Time     :  134829.794
------------------------------------------------------------
  Evaluating new KS density using the density matrix
  Evaluating density matrix
  Time summed over all CPUs for getting density from density matrix: real work        1.083 s, elapsed        1.083 s
  Integration grid: deviation in total charge (<rho> - N_e) =  -3.907985E-14
  Pulay mixing of updated and previous charge densities.

  Evaluating partitioned Hartree potential by multipole expansion.
  | Analytical far-field extrapolation by fixed multipoles:
  | Hartree multipole sum: apparent total charge =   0.533360E-02
  Summing up the Hartree potential.
  Time summed over all CPUs for potential: real work        0.494 s, elapsed        0.494 s
  | RMS charge density error from multipole expansion :   0.111349E-01
  | Average real-space part of the electrostatic potential :      0.29992392 eV

  Integrating Hamiltonian matrix: batch-based integration.
  Time summed over all CPUs for integration: real work        0.683 s, elapsed        0.683 s

  Updating Kohn-Sham eigenvalues, eigenvectors, occupation numbers, and Fermi level.
  Solving generalized eigenproblem

  Obtaining occupation numbers and chemical potential using ELSI.
  | Chemical potential (Fermi level):    -5.48993938eV
  What follows are estimated values for band gap, HOMO, LUMO, etc.
  | They are estimated on a discrete k-point grid and not necessarily exact.
  | For converged numbers, create a DOS and/or band structure plot on a denser k-grid.

  Highest occupied state (VBM) at     -5.87612909 eV (relative to internal zero)
  | Occupation number:      2.00000000
  | K-point:       1 at    0.000000    0.000000    0.000000 (in units of recip. lattice)

  Lowest unoccupied state (CBM) at    -5.38782947 eV (relative to internal zero)
  | Occupation number:      0.00000000
  | K-point:     105 at    0.000000    0.562500    0.562500 (in units of recip. lattice)

  ESTIMATED overall HOMO-LUMO gap:      0.48829962 eV between HOMO at k-point 1 and LUMO at k-point 105
  | This appears to be an indirect band gap.
  | Smallest direct gap :      2.57999100 eV for k_point 1 at    0.000000    0.562500    0.562500 (in units of recip. lattice)
  The gap value is above 0.2 eV. Unless you are using a very sparse k-point grid,
  this system is most likely an insulator or a semiconductor.

  Total energy components:
  | Sum of eigenvalues            :        -327.65354214 Ha       -8915.90651794 eV
  | XC energy correction          :         -39.72142362 Ha       -1080.87493091 eV
  | XC potential correction       :          52.47815235 Ha        1428.00318152 eV
  | Free-atom electrostatic energy:        -263.25570304 Ha       -7163.55215730 eV
  | Hartree energy correction     :          -0.58411981 Ha         -15.89470863 eV
  | Entropy correction            :          -0.00000000 Ha          -0.00000000 eV
  | ---------------------------
  | Total energy                  :        -578.73663625 Ha      -15748.22513326 eV
  | Total energy, T -> 0          :        -578.73663625 Ha      -15748.22513326 eV  <-- do not rely on this value for anything but (periodic) metals
  | Electronic free energy        :        -578.73663625 Ha      -15748.22513326 eV

  Derived energy quantities:
  | Kinetic energy                :         579.69196994 Ha       15774.22108557 eV
  | Electrostatic energy          :       -1118.70718257 Ha      -30441.57128791 eV
  | Energy correction for multipole
  | error in Hartree potential    :           0.01473437 Ha           0.40094264 eV
  | Sum of eigenvalues per atom                           :       -4457.95325897 eV
  | Total energy (T->0) per atom                          :       -7874.11256663 eV  <-- do not rely on this value for anything but (periodic) metals
  | Electronic free energy per atom                       :       -7874.11256663 eV

  Self-consistency convergence accuracy:
  | Change of charge density      :  0.5206E-02
  | Change of sum of eigenvalues  : -0.1049E+01 eV
  | Change of total energy        :  0.6174E-03 eV

  End self-consistency iteration #     8       :  max(cpu_time)    wall_clock(cpu1)
  | Time for this iteration                    :        3.776 s           3.776 s
  | Charge density update                      :        1.239 s           1.239 s
  | Density mixing & preconditioning           :        0.048 s           0.048 s
  | Hartree multipole update                   :        0.001 s           0.001 s
  | Hartree multipole summation                :        0.497 s           0.497 s
  | Integration                                :        0.683 s           0.683 s
  | Solution of K.-S. eqns.                    :        1.308 s           1.308 s
  | Total energy evaluation                    :        0.000 s           0.000 s

  Partial memory accounting:
  | Current value for overall tracked memory usage on task 0  :          24.397 MB
  | Peak value for overall tracked memory usage on task 0     :          27.380 MB after allocating wave
  | Largest tracked array allocation on task 0 so far         :          23.639 MB  when allocating +KS_eigenvector_complex
  Note:  These values currently only include a subset of arrays which are explicitly tracked.
  The "true" memory usage will be greater.
------------------------------------------------------------

------------------------------------------------------------
          Begin self-consistency iteration #    9

  Date     :  20190513, Time     :  134833.570
------------------------------------------------------------
  Evaluating new KS density using the density matrix
  Evaluating density matrix
  Time summed over all CPUs for getting density from density matrix: real work        1.024 s, elapsed        1.024 s
  Integration grid: deviation in total charge (<rho> - N_e) =  -4.618528E-14
  Pulay mixing of updated and previous charge densities.

  Evaluating partitioned Hartree potential by multipole expansion.
  | Analytical far-field extrapolation by fixed multipoles:
  | Hartree multipole sum: apparent total charge =   0.535362E-02
  Summing up the Hartree potential.
  Time summed over all CPUs for potential: real work        0.449 s, elapsed        0.449 s
  | RMS charge density error from multipole expansion :   0.111219E-01
  | Average real-space part of the electrostatic potential :      0.29814571 eV

  Integrating Hamiltonian matrix: batch-based integration.
  Time summed over all CPUs for integration: real work        0.601 s, elapsed        0.601 s

  Updating Kohn-Sham eigenvalues, eigenvectors, occupation numbers, and Fermi level.
  Solving generalized eigenproblem

  Obtaining occupation numbers and chemical potential using ELSI.
  | Chemical potential (Fermi level):    -5.49168078eV
  What follows are estimated values for band gap, HOMO, LUMO, etc.
  | They are estimated on a discrete k-point grid and not necessarily exact.
  | For converged numbers, create a DOS and/or band structure plot on a denser k-grid.

  Highest occupied state (VBM) at     -5.87821774 eV (relative to internal zero)
  | Occupation number:      2.00000000
  | K-point:       1 at    0.000000    0.000000    0.000000 (in units of recip. lattice)

  Lowest unoccupied state (CBM) at    -5.38845745 eV (relative to internal zero)
  | Occupation number:      0.00000000
  | K-point:     105 at    0.000000    0.562500    0.562500 (in units of recip. lattice)

  ESTIMATED overall HOMO-LUMO gap:      0.48976029 eV between HOMO at k-point 1 and LUMO at k-point 105
  | This appears to be an indirect band gap.
  | Smallest direct gap :      2.58089207 eV for k_point 1 at    0.000000    0.562500    0.562500 (in units of recip. lattice)
  The gap value is above 0.2 eV. Unless you are using a very sparse k-point grid,
  this system is most likely an insulator or a semiconductor.

  Total energy components:
  | Sum of eigenvalues            :        -327.66222153 Ha       -8916.14269627 eV
  | XC energy correction          :         -39.72054379 Ha       -1080.85098956 eV
  | XC potential correction       :          52.47698730 Ha        1427.97147872 eV
  | Free-atom electrostatic energy:        -263.25570304 Ha       -7163.55215730 eV
  | Hartree energy correction     :          -0.57515110 Ha         -15.65065784 eV
  | Entropy correction            :          -0.00000000 Ha          -0.00000000 eV
  | ---------------------------
  | Total energy                  :        -578.73663217 Ha      -15748.22502226 eV
  | Total energy, T -> 0          :        -578.73663217 Ha      -15748.22502226 eV  <-- do not rely on this value for anything but (periodic) metals
  | Electronic free energy        :        -578.73663217 Ha      -15748.22502226 eV

  Derived energy quantities:
[...]
  | Total energy evaluation                    :        0.000 s           0.000 s

  Partial memory accounting:
  | Current value for overall tracked memory usage on task 0  :          24.398 MB
  | Peak value for overall tracked memory usage on task 0     :          27.380 MB after allocating wave
  | Largest tracked array allocation on task 0 so far         :          23.639 MB  when allocating +KS_eigenvector_complex
  Note:  These values currently only include a subset of arrays which are explicitly tracked.
  The "true" memory usage will be greater.
------------------------------------------------------------

------------------------------------------------------------
          Begin self-consistency iteration #   11

  Date     :  20190513, Time     :  134840.646
------------------------------------------------------------
  Evaluating new KS density using the density matrix
  Evaluating density matrix
  Time summed over all CPUs for getting density from density matrix: real work        1.030 s, elapsed        1.030 s
  Integration grid: deviation in total charge (<rho> - N_e) =   4.263256E-14
  Pulay mixing of updated and previous charge densities.

  Evaluating partitioned Hartree potential by multipole expansion.
  | Analytical far-field extrapolation by fixed multipoles:
  | Hartree multipole sum: apparent total charge =   0.533543E-02
  Summing up the Hartree potential.
  Time summed over all CPUs for potential: real work        0.437 s, elapsed        0.437 s
  | RMS charge density error from multipole expansion :   0.110797E-01
  | Average real-space part of the electrostatic potential :      0.29122781 eV

  Integrating Hamiltonian matrix: batch-based integration.
  Time summed over all CPUs for integration: real work        0.595 s, elapsed        0.595 s

  Updating Kohn-Sham eigenvalues, eigenvectors, occupation numbers, and Fermi level.
  Solving generalized eigenproblem

  Obtaining occupation numbers and chemical potential using ELSI.
  | Chemical potential (Fermi level):    -5.49866817eV
  What follows are estimated values for band gap, HOMO, LUMO, etc.
  | They are estimated on a discrete k-point grid and not necessarily exact.
  | For converged numbers, create a DOS and/or band structure plot on a denser k-grid.

  Highest occupied state (VBM) at     -5.88656060 eV (relative to internal zero)
  | Occupation number:      2.00000000
  | K-point:       1 at    0.000000    0.000000    0.000000 (in units of recip. lattice)

  Lowest unoccupied state (CBM) at    -5.39098210 eV (relative to internal zero)
  | Occupation number:      0.00000000
  | K-point:     105 at    0.000000    0.562500    0.562500 (in units of recip. lattice)

  ESTIMATED overall HOMO-LUMO gap:      0.49557850 eV between HOMO at k-point 1 and LUMO at k-point 105
  | This appears to be an indirect band gap.
  | Smallest direct gap :      2.58442327 eV for k_point 1 at    0.000000    0.562500    0.562500 (in units of recip. lattice)
  The gap value is above 0.2 eV. Unless you are using a very sparse k-point grid,
  this system is most likely an insulator or a semiconductor.

  Total energy components:
  | Sum of eigenvalues            :        -327.69860997 Ha       -8917.13287604 eV
  | XC energy correction          :         -39.71690359 Ha       -1080.75193464 eV
  | XC potential correction       :          52.47216583 Ha        1427.84027996 eV
  | Free-atom electrostatic energy:        -263.25570304 Ha       -7163.55215730 eV
  | Hartree energy correction     :          -0.53756780 Ha         -14.62796421 eV
  | Entropy correction            :          -0.00000000 Ha          -0.00000000 eV
  | ---------------------------
  | Total energy                  :        -578.73661857 Ha      -15748.22465222 eV
  | Total energy, T -> 0          :        -578.73661857 Ha      -15748.22465222 eV  <-- do not rely on this value for anything but (periodic) metals
  | Electronic free energy        :        -578.73661857 Ha      -15748.22465222 eV

  Derived energy quantities:
  | Kinetic energy                :         579.63690722 Ha       15772.72275274 eV
  | Electrostatic energy          :       -1118.65662221 Ha      -30440.19547033 eV
  | Energy correction for multipole
  | error in Hartree potential    :           0.01459612 Ha           0.39718072 eV
  | Sum of eigenvalues per atom                           :       -4458.56643802 eV
  | Total energy (T->0) per atom                          :       -7874.11232611 eV  <-- do not rely on this value for anything but (periodic) metals
  | Electronic free energy per atom                       :       -7874.11232611 eV

  Self-consistency convergence accuracy:
  | Change of charge density      :  0.1625E-05
  | Change of sum of eigenvalues  : -0.4180E-03 eV
  | Change of total energy        :  0.1246E-06 eV

  End self-consistency iteration #    11       :  max(cpu_time)    wall_clock(cpu1)
  | Time for this iteration                    :        3.502 s           3.501 s
  | Charge density update                      :        1.185 s           1.185 s
  | Density mixing & preconditioning           :        0.044 s           0.044 s
  | Hartree multipole update                   :        0.001 s           0.000 s
  | Hartree multipole summation                :        0.440 s           0.441 s
  | Integration                                :        0.596 s           0.595 s
  | Solution of K.-S. eqns.                    :        1.235 s           1.235 s
  | Total energy evaluation                    :        0.000 s           0.000 s

  Partial memory accounting:
  | Current value for overall tracked memory usage on task 0  :          24.398 MB
  | Peak value for overall tracked memory usage on task 0     :          27.380 MB after allocating wave
  | Largest tracked array allocation on task 0 so far         :          23.639 MB  when allocating +KS_eigenvector_complex
  Note:  These values currently only include a subset of arrays which are explicitly tracked.
  The "true" memory usage will be greater.
------------------------------------------------------------

------------------------------------------------------------
          Begin self-consistency iteration #   12

  Date     :  20190513, Time     :  134844.147
------------------------------------------------------------
  Evaluating new KS density using the density matrix
  Evaluating density matrix
  Time summed over all CPUs for getting density from density matrix: real work        1.026 s, elapsed        1.026 s
  Integration grid: deviation in total charge (<rho> - N_e) =  -4.973799E-14
  Pulay mixing of updated and previous charge densities.

  Evaluating partitioned Hartree potential by multipole expansion.
  | Analytical far-field extrapolation by fixed multipoles:
  | Hartree multipole sum: apparent total charge =   0.533560E-02
  Summing up the Hartree potential.
  Time summed over all CPUs for potential: real work        0.447 s, elapsed        0.447 s
  | RMS charge density error from multipole expansion :   0.110797E-01
  | Average real-space part of the electrostatic potential :      0.29122619 eV

  Integrating Hamiltonian matrix: batch-based integration.
  Time summed over all CPUs for integration: real work        0.638 s, elapsed        0.638 s

  Updating Kohn-Sham eigenvalues, eigenvectors, occupation numbers, and Fermi level.
  Solving generalized eigenproblem

  Obtaining occupation numbers and chemical potential using ELSI.
  | Chemical potential (Fermi level):    -5.49866898eV
  What follows are estimated values for band gap, HOMO, LUMO, etc.
  | They are estimated on a discrete k-point grid and not necessarily exact.
  | For converged numbers, create a DOS and/or band structure plot on a denser k-grid.

  Highest occupied state (VBM) at     -5.88656162 eV (relative to internal zero)
  | Occupation number:      2.00000000
  | K-point:       1 at    0.000000    0.000000    0.000000 (in units of recip. lattice)

  Lowest unoccupied state (CBM) at    -5.39098258 eV (relative to internal zero)
  | Occupation number:      0.00000000
  | K-point:     105 at    0.000000    0.562500    0.562500 (in units of recip. lattice)

  ESTIMATED overall HOMO-LUMO gap:      0.49557904 eV between HOMO at k-point 1 and LUMO at k-point 105
  | This appears to be an indirect band gap.
  | Smallest direct gap :      2.58442378 eV for k_point 1 at    0.000000    0.562500    0.562500 (in units of recip. lattice)
  The gap value is above 0.2 eV. Unless you are using a very sparse k-point grid,
  this system is most likely an insulator or a semiconductor.

  Total energy components:
  | Sum of eigenvalues            :        -327.69861645 Ha       -8917.13305232 eV
  | XC energy correction          :         -39.71690265 Ha       -1080.75190919 eV
  | XC potential correction       :          52.47216459 Ha        1427.84024626 eV
  | Free-atom electrostatic energy:        -263.25570304 Ha       -7163.55215730 eV
  | Hartree energy correction     :          -0.53756102 Ha         -14.62777973 eV
  | Entropy correction            :          -0.00000000 Ha          -0.00000000 eV
  | ---------------------------
  | Total energy                  :        -578.73661858 Ha      -15748.22465228 eV
  | Total energy, T -> 0          :        -578.73661858 Ha      -15748.22465228 eV  <-- do not rely on this value for anything but (periodic) metals
  | Electronic free energy        :        -578.73661858 Ha      -15748.22465228 eV

  Derived energy quantities:
  | Kinetic energy                :         579.63689685 Ha       15772.72247067 eV
  | Electrostatic energy          :       -1118.65661278 Ha      -30440.19521376 eV
  | Energy correction for multipole
  | error in Hartree potential    :           0.01459606 Ha           0.39717894 eV
  | Sum of eigenvalues per atom                           :       -4458.56652616 eV
  | Total energy (T->0) per atom                          :       -7874.11232614 eV  <-- do not rely on this value for anything but (periodic) metals
  | Electronic free energy per atom                       :       -7874.11232614 eV

  Self-consistency convergence accuracy:
  | Change of charge density      :  0.6186E-06
  | Change of sum of eigenvalues  : -0.1763E-03 eV
  | Change of total energy        : -0.5479E-07 eV

  Preliminary charge convergence reached. Turning off preconditioner.

  Writing Kohn-Sham eigenvalues.
  K-point:       1 at    0.000000    0.000000    0.000000 (in units of recip. lattice)

  State    Occupation    Eigenvalue [Ha]    Eigenvalue [eV]
      1       2.00000         -65.488912        -1782.04396
      2       2.00000         -65.488912        -1782.04396
      3       2.00000          -5.096860         -138.69261
      4       2.00000          -5.096534         -138.68376
      5       2.00000          -3.510269          -95.51927
      6       2.00000          -3.510269          -95.51927
      7       2.00000          -3.510269          -95.51927
      8       2.00000          -3.509591          -95.50083
      9       2.00000          -3.509591          -95.50083
     10       2.00000          -3.509591          -95.50083
     11       2.00000          -0.660264          -17.96670
     12       2.00000          -0.216327           -5.88656
     13       2.00000          -0.216327           -5.88656
     14       2.00000          -0.216327           -5.88656
     15       0.00000          -0.121351           -3.30214
     16       0.00000          -0.121351           -3.30214
     17       0.00000          -0.121351           -3.30214
     18       0.00000          -0.086759           -2.36083
     19       0.00000           0.073915            2.01133
     20       0.00000           0.073915            2.01133

  What follows are estimated values for band gap, HOMO, LUMO, etc.
  | They are estimated on a discrete k-point grid and not necessarily exact.
  | For converged numbers, create a DOS and/or band structure plot on a denser k-grid.

  Highest occupied state (VBM) at     -5.88656162 eV (relative to internal zero)
  | Occupation number:      2.00000000
  | K-point:       1 at    0.000000    0.000000    0.000000 (in units of recip. lattice)

  Lowest unoccupied state (CBM) at    -5.39098258 eV (relative to internal zero)
  | Occupation number:      0.00000000
  | K-point:     105 at    0.000000    0.562500    0.562500 (in units of recip. lattice)

  ESTIMATED overall HOMO-LUMO gap:      0.49557904 eV between HOMO at k-point 1 and LUMO at k-point 105
  | This appears to be an indirect band gap.
  | Smallest direct gap :      2.58442378 eV for k_point 1 at    0.000000    0.562500    0.562500 (in units of recip. lattice)
  The gap value is above 0.2 eV. Unless you are using a very sparse k-point grid,
  this system is most likely an insulator or a semiconductor.

  Self-consistency cycle converged.

  End self-consistency iteration #    12       :  max(cpu_time)    wall_clock(cpu1)
  | Time for this iteration                    :        3.536 s           3.536 s
  | Charge density update                      :        1.174 s           1.175 s
  | Density mixing                             :        0.047 s           0.047 s
  | Hartree multipole update                   :        0.001 s           0.001 s
  | Hartree multipole summation                :        0.451 s           0.450 s
  | Integration                                :        0.638 s           0.638 s
  | Solution of K.-S. eqns.                    :        1.224 s           1.224 s
  | Total energy evaluation                    :        0.000 s           0.000 s

  Partial memory accounting:
  | Current value for overall tracked memory usage on task 0  :          24.398 MB
  | Peak value for overall tracked memory usage on task 0     :          27.380 MB after allocating wave
  | Largest tracked array allocation on task 0 so far         :          23.639 MB  when allocating +KS_eigenvector_complex
  Note:  These values currently only include a subset of arrays which are explicitly tracked.
  The "true" memory usage will be greater.
------------------------------------------------------------

  Energy and forces in a compact form:
  | Total energy uncorrected      :         -0.157482246522764E+05 eV
  | Total energy corrected        :         -0.157482246522764E+05 eV  <-- do not rely on this value for anything but (periodic) metals
  | Electronic free energy        :         -0.157482246522764E+05 eV

  ------------------------------------ 
  Start decomposition of the XC Energy 
  ------------------------------------ 
  X and C from original XC functional choice 
  Hartree-Fock Energy :          0.000000000 Ha              0.000000000 eV
  X Energy            :        -37.570787154 Ha          -1022.353135215 eV
  C Energy            :         -2.146115497 Ha            -58.398773971 eV
  Total XC Energy     :        -39.716902651 Ha          -1080.751909186 eV
  ------------------------------------ 
  LDA X and C from self-consistent density 
  X Energy LDA        :        -37.570787154 Ha          -1022.353135215 eV
  C Energy LDA        :         -2.146115497 Ha            -58.398773971 eV
  ------------------------------------ 
  End decomposition of the XC Energy 
  ------------------------------------ 

------------------------------------------------------------

------------------------------------------------------------------------------
  Final output of selected total energy values:

  The following output summarizes some interesting total energy values
  at the end of a run (AFTER all relaxation, molecular dynamics, etc.).

  | Total energy of the DFT / Hartree-Fock s.c.f. calculation      :         -15748.224652276 eV
  | Final zero-broadening corrected energy (caution - metals only) :         -15748.224652276 eV
  | For reference only, the value of 1 Hartree used in FHI-aims is :             27.211384500 eV

  Before relying on these values, please be sure to understand exactly which
  total energy value is referred to by a given number. Different objects may
  all carry the same name 'total energy'. Definitions:

  Total energy of the DFT / Hartree-Fock s.c.f. calculation:
  | Note that this energy does not include ANY quantities calculated after the
  | s.c.f. cycle, in particular not ANY RPA, MP2, etc. many-body perturbation terms.

  Final zero-broadening corrected energy:
  | For metallic systems only, a broadening of the occupation numbers at the Fermi
  | level can be extrapolated back to zero broadening by an electron-gas inspired
  | formula. For all systems that are not real metals, this value can be
  | meaningless and should be avoided.

------------------------------------------------------------------------------
  Methods described in the following list of references were used in this FHI-aims run.
  If you publish the results, please make sure to cite these reference if they apply.
  FHI-aims is an academic code, and for our developers (often, Ph.D. students
  and postdocs), scientific credit in the community is essential.
  Thank you for helping us!

  For any use of FHI-aims, please cite:

    Volker Blum, Ralf Gehrke, Felix Hanke, Paula Havu, Ville Havu,
    Xinguo Ren, Karsten Reuter, and Matthias Scheffler
    'Ab initio molecular simulations with numeric atom-centered orbitals'
    Computer Physics Communications 180, 2175-2196 (2009)
    http://dx.doi.org/10.1016/j.cpc.2009.06.022


  For the real-space grid partitioning and parallelization used in this calculation, please cite:

    Ville Havu, Volker Blum, Paula Havu, and Matthias Scheffler,
    'Efficient O(N) integration for all-electron electronic structure calculation'
    'using numerically tabulated basis functions'
    Journal of Computational Physics 228, 8367-8379 (2009).
    http://dx.doi.org/10.1016/j.jcp.2009.08.008

  Of course, there are many other important community references, e.g., those cited in the
  above references. Our list is limited to references that describe implementations in the
  FHI-aims code. The reason is purely practical (length of this list) - please credit others as well.

------------------------------------------------------------
          Leaving FHI-aims.
          Date     :  20190513, Time     :  134847.691

          Computational steps:
          | Number of self-consistency cycles          :           12
          | Number of SCF (re)initializations          :            1

          Detailed time accounting                     :  max(cpu_time)    wall_clock(cpu1)
          | Total time                                 :       47.104 s          47.105 s
          | Preparation time                           :        0.100 s           0.100 s
          | Boundary condition initalization           :        0.051 s           0.051 s
          | Grid partitioning                          :        0.035 s           0.034 s
          | Preloading free-atom quantities on grid    :        0.001 s           0.001 s
          | Free-atom superposition energy             :        0.030 s           0.030 s
          | Total time for integrations                :        8.714 s           8.714 s
          | Total time for solution of K.-S. equations :       17.460 s          17.460 s
          | Total time for density update              :       14.396 s          14.398 s
          | Total time for mixing & preconditioning    :        0.574 s           0.573 s
          | Total time for Hartree multipole update    :        0.010 s           0.010 s
          | Total time for Hartree multipole sum       :        5.537 s           5.537 s
          | Total time for total energy evaluation     :        0.007 s           0.005 s
          | Total time for scaled ZORA corrections     :        0.000 s           0.000 s

 This is a stub MPI_ALLREDUCE call.
 You should not be here. Check your
 setting on the use_mpi variable, or
 link against true MPI-libraries.
