------------------------------------------------------------
          Invoking FHI-aims ...
          Version 171221_1
          Compiled on 2019/05/06 at 14:26:40 on host ffph0xx.

          When using FHI-aims, please cite the following reference:

          Volker Blum, Ralf Gehrke, Felix Hanke, Paula Havu,
          Ville Havu, Xinguo Ren, Karsten Reuter, and Matthias Scheffler,
          'Ab Initio Molecular Simulations with Numeric Atom-Centered Orbitals',
          Computer Physics Communications 180, 2175-2196 (2009)

          For any questions about FHI-aims, please visit the aimsclub website
          with its forums and wiki. Contributions to both the forums and the
          wiki are warmly encouraged - they are for you, and everyone is welcome there.

------------------------------------------------------------



  Date     :  20190514, Time     :  123539.901
  Time zero on CPU 1             :   0.618000000000000E-03  s.
  Internal wall clock time zero  :           327069339.901  s.

  FHI-aims created a unique identifier for this run for later identification
  aims_uuid : CD9DCDC9-B53F-4C32-AFFE-59EE841CDD44


  Performing system and environment tests:
  *** Environment variable OMP_NUM_THREADS is not set
  *** For performance reasons you might want to set it to 1
  | Stacksize not measured: no C compiler

  Obtaining array dimensions for all initial allocations:
  
  -----------------------------------------------------------------------
  Parsing control.in (first pass over file, find array dimensions only).
  The contents of control.in will be repeated verbatim below
  unless switched off by setting 'verbatim_writeout .false.' .
  in the first line of control.in .
  -----------------------------------------------------------------------
  
  #--- method ---
  xc pw-lda
  spin none
  relativistic atomic_zora scalar
  #---
  
  #--- k-grid settings ---
  k_grid 12 12 12
  #---
  
  
  
  
  
  
  
  
  
  
  
  #-------------------------------------------------------------------------------
  #--- Species defaults for Si
  #-------------------------------------------------------------------------------
  
  ################################################################################
  #
  #  FHI-aims code project
  #  VB, Fritz-Haber Institut, 2009
  #
  #  Suggested "light" defaults for Si atom (to be pasted into control.in file)
  #  Be sure to double-check any results obtained with these settings for post-processing,
  #  e.g., with the "tight" defaults and larger basis sets.
  #
  ################################################################################
    species        Si
  #     global species definitions
      nucleus             14
      mass                28.0855
  #
      l_hartree           4
  #
      cut_pot             3.5          1.5  1.0
      basis_dep_cutoff    1e-4
  #
      radial_base         42 5.0
      radial_multiplier   1
      angular_grids       specified
        division   0.5866   50
        division   0.9616  110
        division   1.2249  194
        division   1.3795  302
  #      division   1.4810  434
  #      division   1.5529  590
  #      division   1.6284  770
  #      division   1.7077  974
  #      division   2.4068 1202
  #      outer_grid   974
        outer_grid 302
  ################################################################################
  #
  #  Definition of "minimal" basis
  #
  ################################################################################
  #     valence basis states
      valence      3  s   2.
      valence      3  p   2.
  #     ion occupancy
      ion_occ      3  s   1.
      ion_occ      3  p   1.
  ################################################################################
  #
  #  Suggested additional basis functions. For production calculations,
  #  uncomment them one after another (the most important basis functions are
  #  listed first).
  #
  #  Constructed for dimers: 1.75 A, 2.0 A, 2.25 A, 2.75 A, 3.75 A
  #
  ################################################################################
  #  "First tier" - improvements: -571.96 meV to -37.03 meV
       hydro 3 d 4.2
       hydro 2 p 1.4
  #     hydro 4 f 6.2
       ionic 3 s auto
  #  "Second tier" - improvements: -16.76 meV to -3.03 meV
  #     hydro 3 d 9
  #     hydro 5 g 9.4
  #     hydro 4 p 4
  #     hydro 1 s 0.65
  #  "Third tier" - improvements: -3.89 meV to -0.60 meV
  #     ionic 3 d auto
  #     hydro 3 s 2.6
  #     hydro 4 f 8.4
  #     hydro 3 d 3.4
  #     hydro 3 p 7.8
  #  "Fourth tier" - improvements: -0.33 meV to -0.11 meV
  #     hydro 2 p 1.6
  #     hydro 5 g 10.8
  #     hydro 5 f 11.2
  #     hydro 3 d 1
  #     hydro 4 s 4.5
  #  Further basis functions that fell out of the optimization - noise
  #  level... < -0.08 meV
  #     hydro 4 d 6.6
  #     hydro 5 g 16.4
  #     hydro 4 d 9
  
  -----------------------------------------------------------------------
  Completed first pass over input file control.in .
  -----------------------------------------------------------------------
  
  
  -----------------------------------------------------------------------
  Parsing geometry.in (first pass over file, find array dimensions only).
  The contents of geometry.in will be repeated verbatim below
  unless switched off by setting 'verbatim_writeout .false.' .
  in the first line of geometry.in .
  -----------------------------------------------------------------------
  
  lattice_vector   0.000000   2.500000   2.500000
  lattice_vector   2.500000   0.000000   2.500000
  lattice_vector   2.500000   2.500000   0.000000
  atom_frac   0.000000   0.000000   0.000000 Si
  
  -----------------------------------------------------------------------
  Completed first pass over input file geometry.in .
  -----------------------------------------------------------------------
  

  Basic array size parameters:
  | Number of species                 :        1
  | Number of atoms                   :        1
  | Number of lattice vectors         :        3
  | Max. basis fn. angular momentum   :        2
  | Max. atomic/ionic basis occupied n:        3
  | Max. number of basis fn. types    :        3
  | Max. radial fns per species/type  :        5
  | Max. logarithmic grid size        :     1346
  | Max. radial integration grid size :       42
  | Max. angular integration grid size:      302
  | Max. angular grid division number :        8
  | Radial grid for Hartree potential :     1346
  | Number of spin channels           :        1

------------------------------------------------------------
          Reading file control.in.
------------------------------------------------------------
  XC: Using Perdew-Wang parametrisation of Ceperley-Alder LDA.
  Spin treatment: No spin polarisation.
  Scalar relativistic treatment of kinetic energy: on-site free-atom approximation to ZORA.
  Found k-point grid:        12        12        12

  Reading configuration options for species Si                  .
  | Found nuclear charge :  14.0000
  | Found atomic mass :    28.085500000000000      amu
  | Found l_max for Hartree potential  :   4
  | Found cutoff potl. onset [A], width [A], scale factor :    3.50000    1.50000    1.00000
  | Threshold for basis-dependent cutoff potential is   0.100000E-03
  | Found data for basic radial integration grid :    42 points, outermost radius =    5.000 A
  | Found multiplier for basic radial grid :   1
  | Found angular grid specification: user-specified.
  | Specified grid contains     5 separate shells.
  | Check grid settings after all constraints further below.
  | Found free-atom valence shell :  3 s   2.000
  | Found free-atom valence shell :  3 p   2.000
  | Found free-ion valence shell :  3 s   1.000
  | Found free-ion valence shell :  3 p   1.000
  | Found hydrogenic basis function :  3 d   4.200
  | Found hydrogenic basis function :  2 p   1.400
  | Found ionic basis function :  3 s , default cutoff radius.
  Species Si                  : Missing cutoff potential type.
  Defaulting to exp(1/x)/(1-x)^2 type cutoff potential.
  Species Si: No 'logarithmic' tag. Using default grid for free atom:
  | Default logarithmic grid data [bohr] : 0.1000E-03 0.1000E+03 0.1012E+01
  | Will include ionic basis functions of  2.0-fold positive Si                   ion.
  Species Si: On-site basis accuracy parameter (for Gram-Schmidt orthonormalisation) not specified.
  Using default value basis_acc =  0.1000000E-03.
  Species Si                  : Using default innermost maximum threshold i_radial=  2 for radial functions.
  Species Si                  : Default cutoff onset for free atom density etc. : 0.35000000E+01 AA.
  Species Si                  : Basic radial grid will be enhanced according to radial_multiplier =   1, to contain    42 grid points.

  Finished reading input file 'control.in'. Consistency checks are next.

  MPI_IN_PLACE appears to work with this MPI implementation.
  | Keeping use_mpi_in_place .true. (see manual).
  Target number of points in a grid batch is not set. Defaulting to  100
  Method for grid partitioning is not set. Defaulting to 'maxmin' partitioning.
  Batch size limit is not set. Defaulting to    200
  By default, will store active basis functions for each batch.
  If in need of memory, prune_basis_once .false. can be used to disable this option.
  communication_type for Hartree potential was not specified.
  Defaulting to calc_hartree .
 * Attention: 
 * You may want to set distributed_spline_storage to .true. in order to save memory.
 * This doesn't harm performance and is perfectly ok unless:
 * - you get error messages in postprocessing (about missing atoms in get_rho_multipole_spl)
 * - you need full spline storage in hirshfeld_analysis
  Defaulting to Pulay charge density mixer.
  Pulay mixer: Number of relevant iterations not set.
  Defaulting to    8 iterations.
  Pulay mixer: Number of initial linear mixing iterations not set.
  Defaulting to    0 iterations.
  Work space size for distributed Hartree potential not set.
  Defaulting to   0.200000E+03 MB.
  Mixing parameter for charge density mixing has not been set.
  Using default: charge_mix_param =     0.0500.
  The mixing parameter will be adjusted in iteration number     2 of the first full s.c.f. cycle only.
  Algorithm-dependent basis array size parameters:
  | n_max_pulay                         :        8
 * Notice: The s.c.f. convergence criterion sc_accuracy_rho was not provided.
 * We used to stop in this case, and ask the user to provide reasonable
 * scf convergence criteria. However, this led some users to employ criteria
 * that led to extremely long run times, e.g., for simple relaxation.
 * We now preset a default value for sc_accuracy_rho if it is not set.
 * You may still wish to check if this setting is too tight or too loose for your needs.
 * Based on n_atoms, FHI-aims chose sc_accuracy_rho =  0.100000E-05 .
  Maximum number of self-consistency iterations not provided.
  Presetting  1000 iterations.
  Presetting      1001 iterations before the initial mixing cycle
  is restarted anyway using the sc_init_iter criterion / keyword.
  Presetting a factor      1.000 between actual scf density residual
  and density convergence criterion sc_accuracy_rho below which sc_init_iter
  takes no effect.
 * No s.c.f. convergence criteria (sc_accuracy_*) were provided in control.in.
 * The run will proceed with a reasonable default guess, but please check whether.
 * the s.c.f. cycles seem to take too much or too little time.
  Calculation of forces was not defined in control.in. No forces will be calculated.
  Geometry relaxation not requested: no relaxation will be performed.
  No accuracy limit for integral partition fn. given. Defaulting to  0.1000E-14.
  No threshold value for u(r) in integrations given. Defaulting to  0.1000E-05.
  No occupation type (smearing scheme) given. Defaulting to Gaussian broadening, width =  0.1000E-01 eV.
  The width will be adjusted in iteration number     2 of the first full s.c.f. cycle only.
  S.C.F. convergence parameters will be adjusted in iteration number     2 of the first full s.c.f. cycle only.
  No accuracy for occupation numbers given. Defaulting to  0.1000E-12.
  No threshold value for occupation numbers given. Defaulting to  0.0000E+00.
  No accuracy for fermi level given. Defaulting to  0.1000E-19.
  Maximum # of iterations to find E_F not set. Defaulting to  200.
  Preferred method for the eigenvalue solver ('KS_method') not specified in 'control.in'.
  Defaulting to serial version, 'lapack_fast'.
  Will not use alltoall communication since running on < 1024 CPUs.
  Threshold for basis singularities not set.
  Default threshold for basis singularities:  0.1000E-04
  partition_type (choice of integration weights) for integrals was not specified.
  | Using a version of the partition function of Stratmann and coworkers ('stratmann_smoother').
  | At each grid point, the set of atoms used to build the partition table is smoothly restricted to
  | only those atoms whose free-atom density would be non-zero at that grid point.
  Partitioning for Hartree potential was not defined. Using partition_type for integrals.
  | Adjusted default value of keyword multip_moments_threshold to:       0.10000000E-11
  | This value may affect high angular momentum components of the Hartree potential in periodic systems.
  Angular momentum expansion for Kerker preconditioner not set explicitly.
  | Using default value of   0
  No explicit requirement for turning off preconditioner.
  | By default, it will be turned off when the charge convergence reaches
  | sc_accuracy_rho  =   0.100000E-05
  No special mixing parameter while Kerker preconditioner is on.
  Using default: charge_mix_param =     0.0500.
  No q(lm)/r^(l+1) cutoff set for long-range Hartree potential.
  | Using default value of  0.100000E-09 .
  | Verify using the multipole_threshold keyword.
  Defaulting to new monopole extrapolation.
  Density update method: automatic selection selected.
  Using density matrix based charge density update.
  Using density matrix based charge density update.
  Using packed matrix style: index .
  Defaulting to use time-reversal symmetry for k-point grid.
------------------------------------------------------------


------------------------------------------------------------
          Reading geometry description geometry.in.
------------------------------------------------------------
  Input structure read successfully.
  The structure contains        1 atoms,  and a total of         14.000 electrons.

  Input geometry:
  | Unit cell:
  |        0.00000000        2.50000000        2.50000000
  |        2.50000000        0.00000000        2.50000000
  |        2.50000000        2.50000000        0.00000000
  | Atomic structure:
  |       Atom                x [A]            y [A]            z [A]
  |    1: Species Si            0.00000000        0.00000000        0.00000000

  Lattice parameters for 3D lattice (in Angstroms) :     3.535534    3.535534    3.535534
  Angle(s) between unit vectors (in degrees)      :    60.000000   60.000000   60.000000

  |

  | The smallest distance between any two atoms is         3.53553391 AA.
  |
  | The first atom of this pair is atom number                      1 .
  | The second atom of this pair is atom number                     1 .
  | Wigner-Seitz cell of the first atom image          -1     0     1 .
  | (The Wigner-Seitz cell of the second atom is 0 0 0  by definition.)

  Quantities derived from the lattice vectors:
  | Reciprocal lattice vector 1: -1.256637  1.256637  1.256637
  | Reciprocal lattice vector 2:  1.256637 -1.256637  1.256637
  | Reciprocal lattice vector 3:  1.256637  1.256637 -1.256637
  | Unit cell volume                               :   0.312500E+02  A^3

  Range separation radius for Ewald summation (hartree_convergence_parameter):      4.56556661 bohr.

  Fractional coordinates:
                         L1                L2                L3
       atom_frac         0.00000000        0.00000000        0.00000000  Si

  Number of empty states per atom not set in control.in - providing a guess from actual geometry.
  | Total number of empty states used during s.c.f. cycle:        3
  If you use a very high smearing, use empty_states (per atom!) in control.in to increase this value.

  Structure-dependent array size parameters: 
  | Maximum number of distinct radial functions  :        8
  | Maximum number of basis functions            :       18
  | Number of Kohn-Sham states (occupied + empty):       10
------------------------------------------------------------

------------------------------------------------------------
          Preparing all fixed parts of the calculation.
------------------------------------------------------------
  Determining machine precision:
     2.2250738585072014E-308
  Setting up grids for atomic and cluster calculations.

  Creating wave function, potential, and density for free atoms.

  Species: Si

  List of occupied orbitals and eigenvalues:
    n    l              occ      energy [Ha]    energy [eV]
    1    0           2.0000       -65.491668     -1782.1190
    2    0           2.0000        -5.087967      -138.4506
    3    0           2.0000        -0.391471       -10.6525
    2    1           6.0000        -3.502246       -95.3010
    3    1           2.0000        -0.143943        -3.9169

  Creating fixed part of basis set: Ionic, confined, hydrogenic.

  Si                   ion:

  List of free ionic orbitals and eigenvalues:
    n    l      energy [Ha]    energy [eV]
    1    0       -66.364436     -1805.8682
    2    0        -5.935799      -161.5213
    3    0        -1.078166       -29.3384
    2    1        -4.351123      -118.4001
    3    1        -0.781733       -21.2720


  List of ionic basis orbitals and eigenvalues:
    n    l      energy [Ha]    energy [eV]    outer radius [A]
    3    0        -1.078146       -29.3378       4.214062


  Si                   hydrogenic:

  List of hydrogenic basis orbitals: 
    n    l      effective z      eigenvalue [eV]  inner max. [A]     outer max. [A]     outer radius [A]   
    3    2         4.200000       -26.6624           1.139231           1.139231           4.534782
    2    1         1.400000        -6.4613           1.472672           1.472672           4.590560


  Adding cutoff potential to free-atom effective potential.
  Creating atomic-like basis functions for current effective potential.

  Species Si                  :

  List of atomic basis orbitals and eigenvalues:
    n    l      energy [Ha]    energy [eV]    outer radius [A]
    1    0       -65.491668     -1782.1190       0.789468
    2    0        -5.087967      -138.4506       2.815114
    3    0        -0.391471       -10.6525       4.534782
    2    1        -3.502246       -95.3010       3.259919
    3    1        -0.143943        -3.9169       4.590560

  Assembling full basis from fixed parts.
  | Species Si :   atomic orbital   1 s accepted.
  | Species Si :   atomic orbital   2 s accepted.
  | Species Si :    ionic orbital   3 s accepted.
  | Species Si :   atomic orbital   3 s accepted.
  | Species Si :   atomic orbital   2 p accepted.
  | Species Si :   atomic orbital   3 p accepted.
  | Species Si :    hydro orbital   2 p accepted.
  | Species Si :    hydro orbital   3 d accepted.

  Basis size parameters after reduction:
  | Total number of radial functions:        8
  | Total number of basis functions :       18

  Per-task memory consumption for arrays in subroutine allocate_ext:
  |           2.757468MB.
  Testing on-site integration grid accuracy.
  |  Species  Function  <phi|h_atom|phi> (log., in eV)  <phi|h_atom|phi> (rad., in eV)
           1        1              -1782.1189727076              -1782.1182429251
           1        2               -138.4506350693               -138.4506310079
           1        3                -10.3030408815                -10.3029120678
           1        4                  5.0238999146                  4.9457540310 ***
           1        5                -95.3009689499                -95.3009689315
           1        6                 -3.9266496564                 -3.9420918374
           1        7                  6.3453628447                  6.1632372158 ***
           1        8                  6.2883050744                  6.2861881409
 * Note: Onsite integrals marked "***" above are less accurate than
 * onsite_accuracy_threshold =    0.03000 eV. Usually, this is harmless.
 * When in doubt, tighten the "radial" and/or "radial_multiplier" flags to check.

  Preparing densities etc. for the partition functions (integrals / Hartree potential).

  Preparations completed.
  max(cpu_time)          :      0.097 s.
  Wall clock time (cpu1) :      0.097 s.
------------------------------------------------------------

------------------------------------------------------------
          Begin self-consistency loop: Initialization.

          Date     :  20190514, Time     :  123539.999
------------------------------------------------------------

  Initializing index lists of integration centers etc. from given atomic structure:
  Mapping all atomic coordinates to central unit cell.

  Initializing the k-points
          Using symmetry for reducing the k-points
  | k-points reduced from:     1728 to      868
  | Number of k-points                             :       868
  The eigenvectors in the calculations are COMPLEX.
  | K-points in task   0:       868
  | Number of basis functions in the Hamiltonian integrals :       764
  | Number of basis functions in a single unit cell        :        18
  | Number of centers in hartree potential         :       555
  | Number of centers in hartree multipole         :       177
  | Number of centers in electron density summation:       135
  | Number of centers in basis integrals           :       135
  | Number of centers in integrals                 :        51
  | Number of centers in hamiltonian               :       135
  | Consuming       1844 KiB for k_phase.
  | Number of super-cells (origin) [n_cells]                     :        3375
  | Number of super-cells (after PM_index) [n_cells]             :         136
  | Number of super-cells in hamiltonian [n_cells_in_hamiltonian]:         136
  | Size of matrix packed + index [n_hamiltonian_matrix_size] :       16116
  Partitioning the integration grid into batches with maxmin method.
  | Maximal weight for a single point:     1.000
  | Minimal weight for a single point:     0.677
  | Number of batches:       64
  | Maximal batch size:      90
  | Minimal batch size:      85
  | Average batch size:      87.562
  | Standard deviation of batch sizes:       1.499
  Initializing partition tables, free-atom densities, potentials, etc. across the integration grid (initialize_grid_storage).
  | initialize_grid_storage: Actual outermost partition radius vs. multipole_radius_free
  | (-- VB: in principle, multipole_radius_free should be larger, hence this output)
  | Species        1: Confinement radius =              4.999999999999999 AA, multipole_radius_free =              5.000694715736543 AA.
  | Species        1: outer_partition_radius set to              5.000694715736543 AA .
  | Original list of interatomic distances with         135 x        135 entries is created.
  | Net number of integration points:     5604
  | of which are non-zero points    :     5094
  | Numerical average free-atom electrostatic potential    :     -8.41822520 eV
  Renormalizing the initial density to the exact electron count on the 3D integration grid.
  | Initial density: Formal number of electrons (from input files) :      14.0000000000
  | Integrated number of electrons on 3D grid     :      14.0001801917
  | Charge integration error                      :       0.0001801917
  | Normalization factor for density and gradient :       0.9999871293
  Obtaining max. number of non-zero basis functions in each batch (get_n_compute_maxes).
  | Maximal number of non-zero basis functions:      331 in task     0
  Allocating        2.500 MB for KS_eigenvector_complex
  Integrating Hamiltonian matrix: batch-based integration.
  Time summed over all CPUs for integration: real work        0.137 s, elapsed        0.137 s
  Integrating overlap matrix.
  Time summed over all CPUs for integration: real work        0.097 s, elapsed        0.097 s
  Decreasing sparse matrix size:
   Tolerance:   9.9999998245167004E-014
   Hamiltonian matrix
  | Array has     8467 nonzero elements out of    16116 elements
  | Sparsity factor is 0.475
   Overlap matrix
  | Array has     8017 nonzero elements out of    16116 elements
  | Sparsity factor is 0.503
  New size of hamiltonian matrix:        8606

  Updating Kohn-Sham eigenvalues, eigenvectors, occupation numbers, and Fermi level.
  Solving generalized eigenproblem
  Transforming overlap matrix and checking for singularities.
  Overlap matrix is nonsingular at first k-point:
  | Lowest eigenvalue:  0.551817E-02

  Obtaining occupation numbers and chemical potential using ELSI.
  | Chemical potential (Fermi level):    -4.80097984eV
  Writing Kohn-Sham eigenvalues.
  K-point:       1 at    0.000000    0.000000    0.000000 (in units of recip. lattice)

  State    Occupation    Eigenvalue [Ha]    Eigenvalue [eV]
      1       2.00000         -65.491886        -1782.12488
      2       2.00000          -5.088501         -138.46515
      3       2.00000          -3.502771          -95.31526
      4       2.00000          -3.502771          -95.31526
      5       2.00000          -3.502771          -95.31526
      6       2.00000          -0.510722          -13.89745
      7       0.00000          -0.007546           -0.20534
      8       0.00000          -0.007546           -0.20534
      9       0.00000          -0.007546           -0.20534
     10       0.00000           0.199524            5.42932

  What follows are estimated values for band gap, HOMO, LUMO, etc.
  | They are estimated on a discrete k-point grid and not necessarily exact.
  | For converged numbers, create a DOS and/or band structure plot on a denser k-grid.

  Highest occupied state (VBM) at     -4.80134174 eV (relative to internal zero)
  | Occupation number:      1.04081765
  | K-point:     760 at    0.666667    0.916667    0.916667 (in units of recip. lattice)

  Lowest unoccupied state (CBM) at    -4.80060969 eV (relative to internal zero)
  | Occupation number:      0.95825169
  | K-point:     535 at    0.416667    0.250000    0.166667 (in units of recip. lattice)

  ESTIMATED overall HOMO-LUMO gap:      0.00073205 eV between HOMO at k-point 760 and LUMO at k-point 535
  | This appears to be an indirect band gap.
  | Smallest direct gap :      0.54348642 eV for k_point 493 at    0.416667    0.250000    0.166667 (in units of recip. lattice)
  However, this system has fractional occupation numbers. Since we use a finite k-point grid,
  this material is metallic within the approximate finite broadening function (occupation_type)
  applied to determine the occupation numbers.
  Calculating total energy contributions from superposition of free atom densities.

  Total energy components:
  | Sum of eigenvalues            :        -163.46042339 Ha       -4447.98443135 eV
  | XC energy correction          :         -19.69555037 Ha        -535.94319418 eV
  | XC potential correction       :          26.02215951 Ha         708.09898790 eV
  | Free-atom electrostatic energy:        -132.16381182 Ha       -3596.36030054 eV
  | Hartree energy correction     :          -0.00000000 Ha          -0.00000000 eV
  | Entropy correction            :          -0.00000324 Ha          -0.00008819 eV
  | ---------------------------
  | Total energy                  :        -289.29762608 Ha       -7872.18893817 eV
  | Total energy, T -> 0          :        -289.29762932 Ha       -7872.18902636 eV  <-- do not rely on this value for anything but (periodic) metals
  | Electronic free energy        :        -289.29763256 Ha       -7872.18911456 eV

  Derived energy quantities:
  | Kinetic energy                :         289.57953761 Ha        7879.86014130 eV
  | Electrostatic energy          :        -559.18161332 Ha      -15216.10588529 eV
  | Energy correction for multipole
  | error in Hartree potential    :           0.00000000 Ha           0.00000000 eV
  | Sum of eigenvalues per atom                           :       -4447.98443135 eV
  | Total energy (T->0) per atom                          :       -7872.18902636 eV  <-- do not rely on this value for anything but (periodic) metals
  | Electronic free energy per atom                       :       -7872.18911456 eV
  Initialize hartree_potential_storage
  Max. number of atoms included in rho_multipole:            1

  End scf initialization - timings             :  max(cpu_time)    wall_clock(cpu1)
  | Time for scf. initialization               :        0.565 s           0.565 s
  | Boundary condition initialization          :        0.030 s           0.030 s
  | Integration                                :        0.234 s           0.234 s
  | Solution of K.-S. eqns.                    :        0.239 s           0.239 s
  | Grid partitioning                          :        0.010 s           0.010 s
  | Preloading free-atom quantities on grid    :        0.001 s           0.001 s
  | Free-atom superposition energy             :        0.011 s           0.011 s
  | Total energy evaluation                    :        0.000 s           0.000 s

  Partial memory accounting:
  | Current value for overall tracked memory usage on task 0  :           2.672 MB
  | Peak value for overall tracked memory usage on task 0     :           4.414 MB after allocating wave
  | Largest tracked array allocation on task 0 so far         :           2.500 MB  when allocating +KS_eigenvector_complex
  Note:  These values currently only include a subset of arrays which are explicitly tracked.
  The "true" memory usage will be greater.
------------------------------------------------------------

------------------------------------------------------------
          Begin self-consistency iteration #    1

  Date     :  20190514, Time     :  123540.564
------------------------------------------------------------
  Evaluating new KS density using the density matrix
  Evaluating density matrix
  Time summed over all CPUs for getting density from density matrix: real work        0.222 s, elapsed        0.222 s
  Integration grid: deviation in total charge (<rho> - N_e) =  -3.037570E-13
  Pulay mixing of updated and previous charge densities.

  Evaluating partitioned Hartree potential by multipole expansion.
  | Analytical far-field extrapolation by fixed multipoles:
  | Hartree multipole sum: apparent total charge =   0.641625E-04
  Summing up the Hartree potential.
  | Estimated reciprocal-space cutoff momentum G_max:         2.02886269 bohr^-1 .
  | Reciprocal lattice points for long-range Hartree potential:      26
  Time summed over all CPUs for potential: real work        0.100 s, elapsed        0.100 s
  | RMS charge density error from multipole expansion :   0.867903E-04
  | Average real-space part of the electrostatic potential :     -0.01160518 eV

  Integrating Hamiltonian matrix: batch-based integration.
  Time summed over all CPUs for integration: real work        0.143 s, elapsed        0.143 s

  Updating Kohn-Sham eigenvalues, eigenvectors, occupation numbers, and Fermi level.
  Solving generalized eigenproblem

  Obtaining occupation numbers and chemical potential using ELSI.
  | Chemical potential (Fermi level):    -4.80828412eV
  Writing Kohn-Sham eigenvalues.
  K-point:       1 at    0.000000    0.000000    0.000000 (in units of recip. lattice)

  State    Occupation    Eigenvalue [Ha]    Eigenvalue [eV]
      1       2.00000         -65.494360        -1782.19222
      2       2.00000          -5.090100         -138.50866
      3       2.00000          -3.504428          -95.36034
      4       2.00000          -3.504428          -95.36034
      5       2.00000          -3.504428          -95.36034
      6       2.00000          -0.510980          -13.90448
      7       0.00000          -0.007942           -0.21610
      8       0.00000          -0.007942           -0.21610
      9       0.00000          -0.007942           -0.21610
     10       0.00000           0.199290            5.42296

  What follows are estimated values for band gap, HOMO, LUMO, etc.
  | They are estimated on a discrete k-point grid and not necessarily exact.
  | For converged numbers, create a DOS and/or band structure plot on a denser k-grid.

  Highest occupied state (VBM) at     -4.80832604 eV (relative to internal zero)
  | Occupation number:      1.00473022
  | K-point:     167 at    0.083333    0.833333    0.250000 (in units of recip. lattice)

  Lowest unoccupied state (CBM) at    -4.79300759 eV (relative to internal zero)
  | Occupation number:      0.03073955
  | K-point:     586 at    0.416667    0.666667    0.833333 (in units of recip. lattice)

  ESTIMATED overall HOMO-LUMO gap:      0.01531845 eV between HOMO at k-point 167 and LUMO at k-point 586
  | This appears to be an indirect band gap.
  | Smallest direct gap :      0.54408598 eV for k_point 656 at    0.416667    0.666667    0.833333 (in units of recip. lattice)
  However, this system has fractional occupation numbers. Since we use a finite k-point grid,
  this material is metallic within the approximate finite broadening function (occupation_type)
  applied to determine the occupation numbers.

  Total energy components:
  | Sum of eigenvalues            :        -163.47960821 Ha       -4448.50647684 eV
  | XC energy correction          :         -19.69409631 Ha        -535.90362713 eV
  | XC potential correction       :          26.02023861 Ha         708.04671755 eV
  | Free-atom electrostatic energy:        -132.16381182 Ha       -3596.36030054 eV
  | Hartree energy correction     :           0.01973115 Ha           0.53691193 eV
  | Entropy correction            :          -0.00000316 Ha          -0.00008595 eV
  | ---------------------------
  | Total energy                  :        -289.29754658 Ha       -7872.18677502 eV
  | Total energy, T -> 0          :        -289.29754974 Ha       -7872.18686097 eV  <-- do not rely on this value for anything but (periodic) metals
  | Electronic free energy        :        -289.29755290 Ha       -7872.18694691 eV

  Derived energy quantities:
  | Kinetic energy                :         289.55971439 Ha        7879.32072386 eV
  | Electrostatic energy          :        -559.16316466 Ha      -15215.60387175 eV
  | Energy correction for multipole
  | error in Hartree potential    :           0.00000949 Ha           0.00025835 eV
  | Sum of eigenvalues per atom                           :       -4448.50647684 eV
  | Total energy (T->0) per atom                          :       -7872.18686097 eV  <-- do not rely on this value for anything but (periodic) metals
  | Electronic free energy per atom                       :       -7872.18694691 eV

  Self-consistency convergence accuracy:
  | Change of charge density      :  0.2640E-01
  | Change of sum of eigenvalues  : -0.5220E+00 eV
  | Change of total energy        :  0.2163E-02 eV

  End self-consistency iteration #     1       :  max(cpu_time)    wall_clock(cpu1)
  | Time for this iteration                    :        0.618 s           0.619 s
  | Charge density update                      :        0.240 s           0.241 s
  | Density mixing & preconditioning           :        0.019 s           0.019 s
  | Hartree multipole update                   :        0.000 s           0.000 s
  | Hartree multipole summation                :        0.102 s           0.102 s
  | Integration                                :        0.143 s           0.143 s
  | Solution of K.-S. eqns.                    :        0.113 s           0.113 s
  | Total energy evaluation                    :        0.000 s           0.000 s

  Partial memory accounting:
  | Current value for overall tracked memory usage on task 0  :           2.672 MB
  | Peak value for overall tracked memory usage on task 0     :           4.414 MB after allocating wave
  | Largest tracked array allocation on task 0 so far         :           2.500 MB  when allocating +KS_eigenvector_complex
  Note:  These values currently only include a subset of arrays which are explicitly tracked.
  The "true" memory usage will be greater.
------------------------------------------------------------

------------------------------------------------------------
          Begin self-consistency iteration #    2

  Date     :  20190514, Time     :  123541.183
------------------------------------------------------------
  Evaluating new KS density using the density matrix
  Evaluating density matrix
  Time summed over all CPUs for getting density from density matrix: real work        0.224 s, elapsed        0.224 s
  Integration grid: deviation in total charge (<rho> - N_e) =  -2.735590E-13
  Pulay mixing of updated and previous charge densities.

  Evaluating partitioned Hartree potential by multipole expansion.
  | Analytical far-field extrapolation by fixed multipoles:
  | Hartree multipole sum: apparent total charge =  -0.200074E-02
  Summing up the Hartree potential.
  Time summed over all CPUs for potential: real work        0.132 s, elapsed        0.132 s
  | RMS charge density error from multipole expansion :   0.162594E-02
  | Average real-space part of the electrostatic potential :     -0.19237241 eV

  Integrating Hamiltonian matrix: batch-based integration.
  Time summed over all CPUs for integration: real work        0.138 s, elapsed        0.138 s

  Updating Kohn-Sham eigenvalues, eigenvectors, occupation numbers, and Fermi level.
  Solving generalized eigenproblem

  Obtaining occupation numbers and chemical potential using ELSI.
  | Chemical potential (Fermi level):    -4.93174559eV
  What follows are estimated values for band gap, HOMO, LUMO, etc.
  | They are estimated on a discrete k-point grid and not necessarily exact.
  | For converged numbers, create a DOS and/or band structure plot on a denser k-grid.

  Highest occupied state (VBM) at     -4.93714560 eV (relative to internal zero)
  | Occupation number:      1.55494027
  | K-point:     230 at    0.166667    0.416667    0.250000 (in units of recip. lattice)

  Lowest unoccupied state (CBM) at    -4.92728733 eV (relative to internal zero)
  | Occupation number:      0.52837259
  | K-point:     428 at    0.333333    0.250000    0.250000 (in units of recip. lattice)

  ESTIMATED overall HOMO-LUMO gap:      0.00985827 eV between HOMO at k-point 230 and LUMO at k-point 428
  | This appears to be an indirect band gap.
  | Smallest direct gap :      0.55372079 eV for k_point 493 at    0.333333    0.250000    0.250000 (in units of recip. lattice)
  However, this system has fractional occupation numbers. Since we use a finite k-point grid,
  this material is metallic within the approximate finite broadening function (occupation_type)
  applied to determine the occupation numbers.

  Checking to see if s.c.f. parameters should be adjusted.
  Adjusted the Pulay mixing parameter (charge_mix_param) for an expected low-gap system. New value:   0.020000 .
  Adjusted the occupation broadening width for an expected low-gap system. New value:      0.05000000 eV.

  Total energy components:
  | Sum of eigenvalues            :        -163.77711039 Ha       -4456.60192310 eV
  | XC energy correction          :         -19.66895877 Ha        -535.21959973 eV
  | XC potential correction       :          25.98703000 Ha         707.14306546 eV
  | Free-atom electrostatic energy:        -132.16381182 Ha       -3596.36030054 eV
  | Hartree energy correction     :           0.32607200 Ha           8.87287070 eV
  | Entropy correction            :          -0.00003509 Ha          -0.00095474 eV
  | ---------------------------
  | Total energy                  :        -289.29677897 Ha       -7872.16588722 eV
  | Total energy, T -> 0          :        -289.29681406 Ha       -7872.16684196 eV  <-- do not rely on this value for anything but (periodic) metals
  | Electronic free energy        :        -289.29684914 Ha       -7872.16779671 eV

  Derived energy quantities:
  | Kinetic energy                :         289.31017836 Ha        7872.53050302 eV
  | Electrostatic energy          :        -558.93799856 Ha      -15209.47679051 eV
  | Energy correction for multipole
  | error in Hartree potential    :           0.00018989 Ha           0.00516717 eV
  | Sum of eigenvalues per atom                           :       -4456.60192310 eV
  | Total energy (T->0) per atom                          :       -7872.16684196 eV  <-- do not rely on this value for anything but (periodic) metals
  | Electronic free energy per atom                       :       -7872.16779671 eV

  Self-consistency convergence accuracy:
  | Change of charge density      :  0.2507E-01
  | Change of sum of eigenvalues  : -0.8095E+01 eV
  | Change of total energy        :  0.2089E-01 eV

  End self-consistency iteration #     2       :  max(cpu_time)    wall_clock(cpu1)
  | Time for this iteration                    :        0.646 s           0.646 s
  | Charge density update                      :        0.241 s           0.241 s
  | Density mixing & preconditioning           :        0.020 s           0.020 s
  | Hartree multipole update                   :        0.000 s           0.001 s
  | Hartree multipole summation                :        0.133 s           0.133 s
  | Integration                                :        0.139 s           0.138 s
  | Solution of K.-S. eqns.                    :        0.113 s           0.113 s
  | Total energy evaluation                    :        0.000 s           0.000 s

  Partial memory accounting:
  | Current value for overall tracked memory usage on task 0  :           2.673 MB
  | Peak value for overall tracked memory usage on task 0     :           4.414 MB after allocating wave
  | Largest tracked array allocation on task 0 so far         :           2.500 MB  when allocating +KS_eigenvector_complex
  Note:  These values currently only include a subset of arrays which are explicitly tracked.
  The "true" memory usage will be greater.
------------------------------------------------------------

------------------------------------------------------------
          Begin self-consistency iteration #    3

  Date     :  20190514, Time     :  123541.829
------------------------------------------------------------
  Evaluating new KS density using the density matrix
  Evaluating density matrix
  Time summed over all CPUs for getting density from density matrix: real work        0.224 s, elapsed        0.224 s
  Integration grid: deviation in total charge (<rho> - N_e) =  -2.113865E-13
  Pulay mixing of updated and previous charge densities.

  Evaluating partitioned Hartree potential by multipole expansion.
  | Analytical far-field extrapolation by fixed multipoles:
  | Hartree multipole sum: apparent total charge =  -0.289244E-02
  Summing up the Hartree potential.
  Time summed over all CPUs for potential: real work        0.130 s, elapsed        0.130 s
  | RMS charge density error from multipole expansion :   0.225470E-02
  | Average real-space part of the electrostatic potential :     -0.26930814 eV

  Integrating Hamiltonian matrix: batch-based integration.
  Time summed over all CPUs for integration: real work        0.141 s, elapsed        0.141 s

  Updating Kohn-Sham eigenvalues, eigenvectors, occupation numbers, and Fermi level.
  Solving generalized eigenproblem

  Obtaining occupation numbers and chemical potential using ELSI.
  | Chemical potential (Fermi level):    -4.97870465eV
  What follows are estimated values for band gap, HOMO, LUMO, etc.
  | They are estimated on a discrete k-point grid and not necessarily exact.
  | For converged numbers, create a DOS and/or band structure plot on a denser k-grid.

  Highest occupied state (VBM) at     -4.98933309 eV (relative to internal zero)
  | Occupation number:      1.23629401
  | K-point:     230 at    0.166667    0.416667    0.250000 (in units of recip. lattice)

  Lowest unoccupied state (CBM) at    -4.97553278 eV (relative to internal zero)
  | Occupation number:      0.92851451
  | K-point:     760 at    0.666667    0.916667    0.916667 (in units of recip. lattice)

  ESTIMATED overall HOMO-LUMO gap:      0.01380031 eV between HOMO at k-point 230 and LUMO at k-point 760
  | This appears to be an indirect band gap.
  | Smallest direct gap :      0.55753854 eV for k_point 493 at    0.666667    0.916667    0.916667 (in units of recip. lattice)
  However, this system has fractional occupation numbers. Since we use a finite k-point grid,
  this material is metallic within the approximate finite broadening function (occupation_type)
  applied to determine the occupation numbers.

  Total energy components:
  | Sum of eigenvalues            :        -163.88423921 Ha       -4459.51704665 eV
  | XC energy correction          :         -19.66094010 Ha        -535.00140082 eV
  | XC potential correction       :          25.97645228 Ha         706.85523097 eV
  | Free-atom electrostatic energy:        -132.16381182 Ha       -3596.36030054 eV
  | Hartree energy correction     :           0.43582823 Ha          11.85948952 eV
  | Entropy correction            :          -0.00003581 Ha          -0.00097438 eV
  | ---------------------------
  | Total energy                  :        -289.29671063 Ha       -7872.16402752 eV
  | Total energy, T -> 0          :        -289.29674644 Ha       -7872.16500190 eV  <-- do not rely on this value for anything but (periodic) metals
  | Electronic free energy        :        -289.29678224 Ha       -7872.16597628 eV

  Derived energy quantities:
  | Kinetic energy                :         289.24917486 Ha        7870.87051347 eV
  | Electrostatic energy          :        -558.88494539 Ha      -15208.03314017 eV
  | Energy correction for multipole
  | error in Hartree potential    :           0.00027566 Ha           0.00750111 eV
  | Sum of eigenvalues per atom                           :       -4459.51704665 eV
  | Total energy (T->0) per atom                          :       -7872.16500190 eV  <-- do not rely on this value for anything but (periodic) metals
  | Electronic free energy per atom                       :       -7872.16597628 eV

  Self-consistency convergence accuracy:
  | Change of charge density      :  0.6293E-02
  | Change of sum of eigenvalues  : -0.2915E+01 eV
  | Change of total energy        :  0.1860E-02 eV

  End self-consistency iteration #     3       :  max(cpu_time)    wall_clock(cpu1)
  | Time for this iteration                    :        0.648 s           0.648 s
  | Charge density update                      :        0.241 s           0.242 s
  | Density mixing & preconditioning           :        0.018 s           0.018 s
  | Hartree multipole update                   :        0.000 s           0.000 s
  | Hartree multipole summation                :        0.132 s           0.132 s
  | Integration                                :        0.141 s           0.141 s
  | Solution of K.-S. eqns.                    :        0.115 s           0.115 s
  | Total energy evaluation                    :        0.000 s           0.000 s

  Partial memory accounting:
  | Current value for overall tracked memory usage on task 0  :           2.674 MB
  | Peak value for overall tracked memory usage on task 0     :           4.414 MB after allocating wave
  | Largest tracked array allocation on task 0 so far         :           2.500 MB  when allocating +KS_eigenvector_complex
  Note:  These values currently only include a subset of arrays which are explicitly tracked.
  The "true" memory usage will be greater.
------------------------------------------------------------

------------------------------------------------------------
          Begin self-consistency iteration #    4

  Date     :  20190514, Time     :  123542.478
------------------------------------------------------------
  Evaluating new KS density using the density matrix
  Evaluating density matrix
  Time summed over all CPUs for getting density from density matrix: real work        0.225 s, elapsed        0.225 s
  Integration grid: deviation in total charge (<rho> - N_e) =  -2.966516E-13
  Pulay mixing of updated and previous charge densities.

  Evaluating partitioned Hartree potential by multipole expansion.
  | Analytical far-field extrapolation by fixed multipoles:
  | Hartree multipole sum: apparent total charge =  -0.259015E-02
  Summing up the Hartree potential.
  Time summed over all CPUs for potential: real work        0.119 s, elapsed        0.119 s
  | RMS charge density error from multipole expansion :   0.200876E-02
  | Average real-space part of the electrostatic potential :     -0.24591511 eV

  Integrating Hamiltonian matrix: batch-based integration.
  Time summed over all CPUs for integration: real work        0.139 s, elapsed        0.139 s

  Updating Kohn-Sham eigenvalues, eigenvectors, occupation numbers, and Fermi level.
  Solving generalized eigenproblem

  Obtaining occupation numbers and chemical potential using ELSI.
  | Chemical potential (Fermi level):    -4.96102513eV
  What follows are estimated values for band gap, HOMO, LUMO, etc.
  | They are estimated on a discrete k-point grid and not necessarily exact.
  | For converged numbers, create a DOS and/or band structure plot on a denser k-grid.

  Highest occupied state (VBM) at     -4.96879685 eV (relative to internal zero)
  | Occupation number:      1.17398667
  | K-point:     230 at    0.166667    0.416667    0.250000 (in units of recip. lattice)

  Lowest unoccupied state (CBM) at    -4.95668099 eV (relative to internal zero)
  | Occupation number:      0.90220943
  | K-point:      15 at    0.000000    0.083333    0.750000 (in units of recip. lattice)

  ESTIMATED overall HOMO-LUMO gap:      0.01211586 eV between HOMO at k-point 230 and LUMO at k-point 15
  | This appears to be an indirect band gap.
  | Smallest direct gap :      0.55623469 eV for k_point 493 at    0.000000    0.083333    0.750000 (in units of recip. lattice)
  However, this system has fractional occupation numbers. Since we use a finite k-point grid,
  this material is metallic within the approximate finite broadening function (occupation_type)
  applied to determine the occupation numbers.

  Total energy components:
  | Sum of eigenvalues            :        -163.80877887 Ha       -4457.46366619 eV
  | XC energy correction          :         -19.66879864 Ha        -535.21524257 eV
  | XC potential correction       :          25.98686683 Ha         707.13862532 eV
  | Free-atom electrostatic energy:        -132.16381182 Ha       -3596.36030054 eV
  | Hartree energy correction     :           0.35782408 Ha           9.73688849 eV
  | Entropy correction            :          -0.00003559 Ha          -0.00096838 eV
  | ---------------------------
  | Total energy                  :        -289.29669843 Ha       -7872.16369550 eV
  | Total energy, T -> 0          :        -289.29673402 Ha       -7872.16466388 eV  <-- do not rely on this value for anything but (periodic) metals
  | Electronic free energy        :        -289.29676960 Ha       -7872.16563226 eV

  Derived energy quantities:
  | Kinetic energy                :         289.36786137 Ha        7874.10013774 eV
  | Electrostatic energy          :        -558.99576116 Ha      -15211.04859066 eV
  | Energy correction for multipole
  | error in Hartree potential    :           0.00025407 Ha           0.00691369 eV
  | Sum of eigenvalues per atom                           :       -4457.46366619 eV
  | Total energy (T->0) per atom                          :       -7872.16466388 eV  <-- do not rely on this value for anything but (periodic) metals
  | Electronic free energy per atom                       :       -7872.16563226 eV

  Self-consistency convergence accuracy:
  | Change of charge density      :  0.7623E-02
  | Change of sum of eigenvalues  :  0.2053E+01 eV
  | Change of total energy        :  0.3320E-03 eV

  End self-consistency iteration #     4       :  max(cpu_time)    wall_clock(cpu1)
  | Time for this iteration                    :        0.636 s           0.636 s
  | Charge density update                      :        0.243 s           0.242 s
  | Density mixing & preconditioning           :        0.018 s           0.018 s
  | Hartree multipole update                   :        0.000 s           0.000 s
  | Hartree multipole summation                :        0.121 s           0.122 s
  | Integration                                :        0.140 s           0.139 s
  | Solution of K.-S. eqns.                    :        0.114 s           0.114 s
  | Total energy evaluation                    :        0.000 s           0.001 s

  Partial memory accounting:
  | Current value for overall tracked memory usage on task 0  :           2.674 MB
  | Peak value for overall tracked memory usage on task 0     :           4.414 MB after allocating wave
  | Largest tracked array allocation on task 0 so far         :           2.500 MB  when allocating +KS_eigenvector_complex
  Note:  These values currently only include a subset of arrays which are explicitly tracked.
  The "true" memory usage will be greater.
------------------------------------------------------------

------------------------------------------------------------
          Begin self-consistency iteration #    5

  Date     :  20190514, Time     :  123543.114
------------------------------------------------------------
  Evaluating new KS density using the density matrix
  Evaluating density matrix
  Time summed over all CPUs for getting density from density matrix: real work        0.223 s, elapsed        0.223 s
  Integration grid: deviation in total charge (<rho> - N_e) =  -3.108624E-13
  Pulay mixing of updated and previous charge densities.

  Evaluating partitioned Hartree potential by multipole expansion.
  | Analytical far-field extrapolation by fixed multipoles:
  | Hartree multipole sum: apparent total charge =  -0.252025E-02
  Summing up the Hartree potential.
  Time summed over all CPUs for potential: real work        0.117 s, elapsed        0.117 s
  | RMS charge density error from multipole expansion :   0.201433E-02
  | Average real-space part of the electrostatic potential :     -0.24710892 eV

  Integrating Hamiltonian matrix: batch-based integration.
  Time summed over all CPUs for integration: real work        0.140 s, elapsed        0.140 s

  Updating Kohn-Sham eigenvalues, eigenvectors, occupation numbers, and Fermi level.
  Solving generalized eigenproblem

  Obtaining occupation numbers and chemical potential using ELSI.
  | Chemical potential (Fermi level):    -4.96142492eV
  What follows are estimated values for band gap, HOMO, LUMO, etc.
  | They are estimated on a discrete k-point grid and not necessarily exact.
  | For converged numbers, create a DOS and/or band structure plot on a denser k-grid.

  Highest occupied state (VBM) at     -4.96926499 eV (relative to internal zero)
  | Occupation number:      1.17549217
  | K-point:     230 at    0.166667    0.416667    0.250000 (in units of recip. lattice)

  Lowest unoccupied state (CBM) at    -4.95710802 eV (relative to internal zero)
  | Occupation number:      0.90281965
  | K-point:      15 at    0.000000    0.083333    0.750000 (in units of recip. lattice)

  ESTIMATED overall HOMO-LUMO gap:      0.01215697 eV between HOMO at k-point 230 and LUMO at k-point 15
  | This appears to be an indirect band gap.
  | Smallest direct gap :      0.55627607 eV for k_point 493 at    0.000000    0.083333    0.750000 (in units of recip. lattice)
  However, this system has fractional occupation numbers. Since we use a finite k-point grid,
  this material is metallic within the approximate finite broadening function (occupation_type)
  applied to determine the occupation numbers.

  Total energy components:
  | Sum of eigenvalues            :        -163.81012766 Ha       -4457.50036865 eV
  | XC energy correction          :         -19.66865004 Ha        -535.21119892 eV
  | XC potential correction       :          25.98667072 Ha         707.13328896 eV
  | Free-atom electrostatic energy:        -132.16381182 Ha       -3596.36030054 eV
  | Hartree energy correction     :           0.35922062 Ha           9.77489036 eV
  | Entropy correction            :          -0.00003559 Ha          -0.00096854 eV
  | ---------------------------
  | Total energy                  :        -289.29669818 Ha       -7872.16368880 eV
  | Total energy, T -> 0          :        -289.29673377 Ha       -7872.16465734 eV  <-- do not rely on this value for anything but (periodic) metals
  | Electronic free energy        :        -289.29676937 Ha       -7872.16562588 eV

  Derived energy quantities:
  | Kinetic energy                :         289.36638072 Ha        7874.05984724 eV
  | Electrostatic energy          :        -558.99442886 Ha      -15211.01233712 eV
  | Energy correction for multipole
  | error in Hartree potential    :           0.00025483 Ha           0.00693425 eV
  | Sum of eigenvalues per atom                           :       -4457.50036865 eV
  | Total energy (T->0) per atom                          :       -7872.16465734 eV  <-- do not rely on this value for anything but (periodic) metals
  | Electronic free energy per atom                       :       -7872.16562588 eV

  Self-consistency convergence accuracy:
  | Change of charge density      :  0.1026E-02
  | Change of sum of eigenvalues  : -0.3670E-01 eV
  | Change of total energy        :  0.6694E-05 eV

  End self-consistency iteration #     5       :  max(cpu_time)    wall_clock(cpu1)
  | Time for this iteration                    :        0.633 s           0.633 s
  | Charge density update                      :        0.240 s           0.240 s
  | Density mixing & preconditioning           :        0.018 s           0.018 s
  | Hartree multipole update                   :        0.000 s           0.001 s
  | Hartree multipole summation                :        0.118 s           0.118 s
  | Integration                                :        0.140 s           0.140 s
  | Solution of K.-S. eqns.                    :        0.115 s           0.115 s
  | Total energy evaluation                    :        0.000 s           0.001 s

  Partial memory accounting:
  | Current value for overall tracked memory usage on task 0  :           2.674 MB
  | Peak value for overall tracked memory usage on task 0     :           4.414 MB after allocating wave
  | Largest tracked array allocation on task 0 so far         :           2.500 MB  when allocating +KS_eigenvector_complex
  Note:  These values currently only include a subset of arrays which are explicitly tracked.
  The "true" memory usage will be greater.
------------------------------------------------------------

------------------------------------------------------------
          Begin self-consistency iteration #    6

  Date     :  20190514, Time     :  123543.747
------------------------------------------------------------
  Evaluating new KS density using the density matrix
  Evaluating density matrix
  Time summed over all CPUs for getting density from density matrix: real work        0.234 s, elapsed        0.234 s
  Integration grid: deviation in total charge (<rho> - N_e) =  -2.362555E-13
  Pulay mixing of updated and previous charge densities.

  Evaluating partitioned Hartree potential by multipole expansion.
  | Analytical far-field extrapolation by fixed multipoles:
  | Hartree multipole sum: apparent total charge =  -0.850384E-04
  Summing up the Hartree potential.
  Time summed over all CPUs for potential: real work        0.132 s, elapsed        0.132 s
  | RMS charge density error from multipole expansion :   0.202638E-02
  | Average real-space part of the electrostatic potential :     -0.26558757 eV

  Integrating Hamiltonian matrix: batch-based integration.
  Time summed over all CPUs for integration: real work        0.141 s, elapsed        0.141 s

  Updating Kohn-Sham eigenvalues, eigenvectors, occupation numbers, and Fermi level.
  Solving generalized eigenproblem

  Obtaining occupation numbers and chemical potential using ELSI.
  | Chemical potential (Fermi level):    -4.96198044eV
  What follows are estimated values for band gap, HOMO, LUMO, etc.
  | They are estimated on a discrete k-point grid and not necessarily exact.
  | For converged numbers, create a DOS and/or band structure plot on a denser k-grid.

  Highest occupied state (VBM) at     -4.97017952 eV (relative to internal zero)
  | Occupation number:      1.18338805
  | K-point:     800 at    0.833333    0.083333    0.250000 (in units of recip. lattice)

  Lowest unoccupied state (CBM) at    -4.95779883 eV (relative to internal zero)
  | Occupation number:      0.90585059
  | K-point:     760 at    0.666667    0.916667    0.916667 (in units of recip. lattice)

  ESTIMATED overall HOMO-LUMO gap:      0.01238069 eV between HOMO at k-point 800 and LUMO at k-point 760
  | This appears to be an indirect band gap.
  | Smallest direct gap :      0.55660260 eV for k_point 493 at    0.666667    0.916667    0.916667 (in units of recip. lattice)
  However, this system has fractional occupation numbers. Since we use a finite k-point grid,
  this material is metallic within the approximate finite broadening function (occupation_type)
  applied to determine the occupation numbers.

  Total energy components:
  | Sum of eigenvalues            :        -163.81816060 Ha       -4457.71895614 eV
  | XC energy correction          :         -19.66694361 Ha        -535.16476442 eV
  | XC potential correction       :          25.98442589 Ha         707.07220396 eV
  | Free-atom electrostatic energy:        -132.16381182 Ha       -3596.36030054 eV
  | Hartree energy correction     :           0.36779295 Ha          10.00815538 eV
  | Entropy correction            :          -0.00003563 Ha          -0.00096948 eV
  | ---------------------------
  | Total energy                  :        -289.29669719 Ha       -7872.16366176 eV
  | Total energy, T -> 0          :        -289.29673282 Ha       -7872.16463124 eV  <-- do not rely on this value for anything but (periodic) metals
  | Electronic free energy        :        -289.29676844 Ha       -7872.16560071 eV

  Derived energy quantities:
  | Kinetic energy                :         289.35308135 Ha        7873.69795286 eV
  | Electrostatic energy          :        -558.98283493 Ha      -15210.69685020 eV
  | Energy correction for multipole
  | error in Hartree potential    :           0.00025791 Ha           0.00701813 eV
  | Sum of eigenvalues per atom                           :       -4457.71895614 eV
  | Total energy (T->0) per atom                          :       -7872.16463124 eV  <-- do not rely on this value for anything but (periodic) metals
  | Electronic free energy per atom                       :       -7872.16560071 eV

  Self-consistency convergence accuracy:
  | Change of charge density      :  0.9195E-03
  | Change of sum of eigenvalues  : -0.2186E+00 eV
  | Change of total energy        :  0.2704E-04 eV

  End self-consistency iteration #     6       :  max(cpu_time)    wall_clock(cpu1)
  | Time for this iteration                    :        0.657 s           0.657 s
  | Charge density update                      :        0.251 s           0.251 s
  | Density mixing & preconditioning           :        0.018 s           0.018 s
  | Hartree multipole update                   :        0.000 s           0.000 s
  | Hartree multipole summation                :        0.134 s           0.134 s
  | Integration                                :        0.141 s           0.141 s
  | Solution of K.-S. eqns.                    :        0.113 s           0.112 s
  | Total energy evaluation                    :        0.000 s           0.000 s

  Partial memory accounting:
  | Current value for overall tracked memory usage on task 0  :           2.674 MB
  | Peak value for overall tracked memory usage on task 0     :           4.414 MB after allocating wave
  | Largest tracked array allocation on task 0 so far         :           2.500 MB  when allocating +KS_eigenvector_complex
  Note:  These values currently only include a subset of arrays which are explicitly tracked.
  The "true" memory usage will be greater.
------------------------------------------------------------

------------------------------------------------------------
          Begin self-consistency iteration #    7

  Date     :  20190514, Time     :  123544.404
------------------------------------------------------------
  Evaluating new KS density using the density matrix
  Evaluating density matrix
  Time summed over all CPUs for getting density from density matrix: real work        0.225 s, elapsed        0.225 s
  Integration grid: deviation in total charge (<rho> - N_e) =  -3.428369E-13
  Pulay mixing of updated and previous charge densities.

  Evaluating partitioned Hartree potential by multipole expansion.
  | Analytical far-field extrapolation by fixed multipoles:
  | Hartree multipole sum: apparent total charge =  -0.120126E-03
  Summing up the Hartree potential.
  Time summed over all CPUs for potential: real work        0.133 s, elapsed        0.133 s
  | RMS charge density error from multipole expansion :   0.202883E-02
  | Average real-space part of the electrostatic potential :     -0.26568039 eV

  Integrating Hamiltonian matrix: batch-based integration.
  Time summed over all CPUs for integration: real work        0.142 s, elapsed        0.142 s

  Updating Kohn-Sham eigenvalues, eigenvectors, occupation numbers, and Fermi level.
  Solving generalized eigenproblem

  Obtaining occupation numbers and chemical potential using ELSI.
  | Chemical potential (Fermi level):    -4.96217058eV
  What follows are estimated values for band gap, HOMO, LUMO, etc.
  | They are estimated on a discrete k-point grid and not necessarily exact.
  | For converged numbers, create a DOS and/or band structure plot on a denser k-grid.

  Highest occupied state (VBM) at     -4.97039392 eV (relative to internal zero)
  | Occupation number:      1.18392092
  | K-point:     800 at    0.833333    0.083333    0.250000 (in units of recip. lattice)

  Lowest unoccupied state (CBM) at    -4.95799892 eV (relative to internal zero)
  | Occupation number:      0.90607372
  | K-point:     760 at    0.666667    0.916667    0.916667 (in units of recip. lattice)

  ESTIMATED overall HOMO-LUMO gap:      0.01239499 eV between HOMO at k-point 800 and LUMO at k-point 760
  | This appears to be an indirect band gap.
  | Smallest direct gap :      0.55661427 eV for k_point 493 at    0.666667    0.916667    0.916667 (in units of recip. lattice)
  However, this system has fractional occupation numbers. Since we use a finite k-point grid,
  this material is metallic within the approximate finite broadening function (occupation_type)
  applied to determine the occupation numbers.

  Total energy components:
  | Sum of eigenvalues            :        -163.81848331 Ha       -4457.72773745 eV
  | XC energy correction          :         -19.66693704 Ha        -535.16458580 eV
  | XC potential correction       :          25.98441721 Ha         707.07196771 eV
  | Free-atom electrostatic energy:        -132.16381182 Ha       -3596.36030054 eV
  | Hartree energy correction     :           0.36811783 Ha          10.01699573 eV
  | Entropy correction            :          -0.00003563 Ha          -0.00096953 eV
  | ---------------------------
  | Total energy                  :        -289.29669714 Ha       -7872.16366035 eV
  | Total energy, T -> 0          :        -289.29673277 Ha       -7872.16462988 eV  <-- do not rely on this value for anything but (periodic) metals
  | Electronic free energy        :        -289.29676840 Ha       -7872.16559941 eV

  Derived energy quantities:
  | Kinetic energy                :         289.35310225 Ha        7873.69852170 eV
  | Electrostatic energy          :        -558.98286235 Ha      -15210.69759624 eV
  | Energy correction for multipole
  | error in Hartree potential    :           0.00025822 Ha           0.00702651 eV
  | Sum of eigenvalues per atom                           :       -4457.72773745 eV
  | Total energy (T->0) per atom                          :       -7872.16462988 eV  <-- do not rely on this value for anything but (periodic) metals
  | Electronic free energy per atom                       :       -7872.16559941 eV

  Self-consistency convergence accuracy:
  | Change of charge density      :  0.4945E-04
  | Change of sum of eigenvalues  : -0.8781E-02 eV
  | Change of total energy        :  0.1415E-05 eV

  End self-consistency iteration #     7       :  max(cpu_time)    wall_clock(cpu1)
  | Time for this iteration                    :        0.653 s           0.653 s
  | Charge density update                      :        0.243 s           0.243 s
  | Density mixing & preconditioning           :        0.018 s           0.017 s
  | Hartree multipole update                   :        0.000 s           0.001 s
  | Hartree multipole summation                :        0.134 s           0.134 s
  | Integration                                :        0.142 s           0.142 s
  | Solution of K.-S. eqns.                    :        0.116 s           0.116 s
  | Total energy evaluation                    :        0.000 s           0.000 s

  Partial memory accounting:
  | Current value for overall tracked memory usage on task 0  :           2.675 MB
  | Peak value for overall tracked memory usage on task 0     :           4.414 MB after allocating wave
  | Largest tracked array allocation on task 0 so far         :           2.500 MB  when allocating +KS_eigenvector_complex
  Note:  These values currently only include a subset of arrays which are explicitly tracked.
  The "true" memory usage will be greater.
------------------------------------------------------------

------------------------------------------------------------
          Begin self-consistency iteration #    8

  Date     :  20190514, Time     :  123545.057
------------------------------------------------------------
  Evaluating new KS density using the density matrix
  Evaluating density matrix
  Time summed over all CPUs for getting density from density matrix: real work        0.226 s, elapsed        0.226 s
  Integration grid: deviation in total charge (<rho> - N_e) =  -3.783640E-13
  Pulay mixing of updated and previous charge densities.

  Evaluating partitioned Hartree potential by multipole expansion.
  | Analytical far-field extrapolation by fixed multipoles:
  | Hartree multipole sum: apparent total charge =   0.174000E-03
  Summing up the Hartree potential.
  Time summed over all CPUs for potential: real work        0.140 s, elapsed        0.140 s
  | RMS charge density error from multipole expansion :   0.202507E-02
  | Average real-space part of the electrostatic potential :     -0.26725215 eV

  Integrating Hamiltonian matrix: batch-based integration.
  Time summed over all CPUs for integration: real work        0.141 s, elapsed        0.141 s

  Updating Kohn-Sham eigenvalues, eigenvectors, occupation numbers, and Fermi level.
  Solving generalized eigenproblem

  Obtaining occupation numbers and chemical potential using ELSI.
  | Chemical potential (Fermi level):    -4.96193035eV
  What follows are estimated values for band gap, HOMO, LUMO, etc.
  | They are estimated on a discrete k-point grid and not necessarily exact.
  | For converged numbers, create a DOS and/or band structure plot on a denser k-grid.

  Highest occupied state (VBM) at     -4.97015620 eV (relative to internal zero)
  | Occupation number:      1.18397636
  | K-point:     230 at    0.166667    0.416667    0.250000 (in units of recip. lattice)

  Lowest unoccupied state (CBM) at    -4.95775926 eV (relative to internal zero)
  | Occupation number:      0.90608655
  | K-point:     428 at    0.333333    0.250000    0.250000 (in units of recip. lattice)

  ESTIMATED overall HOMO-LUMO gap:      0.01239694 eV between HOMO at k-point 230 and LUMO at k-point 428
  | This appears to be an indirect band gap.
  | Smallest direct gap :      0.55661934 eV for k_point 493 at    0.333333    0.250000    0.250000 (in units of recip. lattice)
  However, this system has fractional occupation numbers. Since we use a finite k-point grid,
  this material is metallic within the approximate finite broadening function (occupation_type)
  applied to determine the occupation numbers.

  Total energy components:
  | Sum of eigenvalues            :        -163.81850487 Ha       -4457.72832427 eV
  | XC energy correction          :         -19.66682688 Ha        -535.16158812 eV
  | XC potential correction       :          25.98427293 Ha         707.06804178 eV
  | Free-atom electrostatic energy:        -132.16381182 Ha       -3596.36030054 eV
  | Hartree energy correction     :           0.36817345 Ha          10.01850924 eV
  | Entropy correction            :          -0.00003563 Ha          -0.00096954 eV
  | ---------------------------
  | Total energy                  :        -289.29669719 Ha       -7872.16366191 eV
  | Total energy, T -> 0          :        -289.29673282 Ha       -7872.16463146 eV  <-- do not rely on this value for anything but (periodic) metals
  | Electronic free energy        :        -289.29676845 Ha       -7872.16560100 eV

  Derived energy quantities:
  | Kinetic energy                :         289.35259173 Ha        7873.68462963 eV
  | Electrostatic energy          :        -558.98246204 Ha      -15210.68670342 eV
  | Energy correction for multipole
  | error in Hartree potential    :           0.00025756 Ha           0.00700849 eV
  | Sum of eigenvalues per atom                           :       -4457.72832427 eV
  | Total energy (T->0) per atom                          :       -7872.16463146 eV  <-- do not rely on this value for anything but (periodic) metals
  | Electronic free energy per atom                       :       -7872.16560100 eV

  Self-consistency convergence accuracy:
  | Change of charge density      :  0.4704E-04
  | Change of sum of eigenvalues  : -0.5868E-03 eV
  | Change of total energy        : -0.1566E-05 eV

  End self-consistency iteration #     8       :  max(cpu_time)    wall_clock(cpu1)
  | Time for this iteration                    :        0.662 s           0.662 s
  | Charge density update                      :        0.245 s           0.245 s
  | Density mixing & preconditioning           :        0.019 s           0.020 s
  | Hartree multipole update                   :        0.001 s           0.001 s
  | Hartree multipole summation                :        0.141 s           0.141 s
  | Integration                                :        0.141 s           0.141 s
  | Solution of K.-S. eqns.                    :        0.114 s           0.114 s
  | Total energy evaluation                    :        0.000 s           0.000 s

  Partial memory accounting:
  | Current value for overall tracked memory usage on task 0  :           2.675 MB
  | Peak value for overall tracked memory usage on task 0     :           4.414 MB after allocating wave
  | Largest tracked array allocation on task 0 so far         :           2.500 MB  when allocating +KS_eigenvector_complex
  Note:  These values currently only include a subset of arrays which are explicitly tracked.
  The "true" memory usage will be greater.
------------------------------------------------------------

------------------------------------------------------------
          Begin self-consistency iteration #    9

  Date     :  20190514, Time     :  123545.719
------------------------------------------------------------
  Evaluating new KS density using the density matrix
  Evaluating density matrix
  Time summed over all CPUs for getting density from density matrix: real work        0.225 s, elapsed        0.225 s
  Integration grid: deviation in total charge (<rho> - N_e) =  -2.646772E-13
  Pulay mixing of updated and previous charge densities.

  Evaluating partitioned Hartree potential by multipole expansion.
  | Analytical far-field extrapolation by fixed multipoles:
  | Hartree multipole sum: apparent total charge =   0.174009E-03
  Summing up the Hartree potential.
  Time summed over all CPUs for potential: real work        0.132 s, elapsed        0.132 s
  | RMS charge density error from multipole expansion :   0.202507E-02
  | Average real-space part of the electrostatic potential :     -0.26725113 eV

  Integrating Hamiltonian matrix: batch-based integration.
  Time summed over all CPUs for integration: real work        0.139 s, elapsed        0.139 s

  Updating Kohn-Sham eigenvalues, eigenvectors, occupation numbers, and Fermi level.
  Solving generalized eigenproblem

  Obtaining occupation numbers and chemical potential using ELSI.
  | Chemical potential (Fermi level):    -4.96193033eV
  What follows are estimated values for band gap, HOMO, LUMO, etc.
  | They are estimated on a discrete k-point grid and not necessarily exact.
  | For converged numbers, create a DOS and/or band structure plot on a denser k-grid.

  Highest occupied state (VBM) at     -4.97015625 eV (relative to internal zero)
  | Occupation number:      1.18397786
  | K-point:     800 at    0.833333    0.083333    0.250000 (in units of recip. lattice)

  Lowest unoccupied state (CBM) at    -4.95775927 eV (relative to internal zero)
  | Occupation number:      0.90608724
  | K-point:     428 at    0.333333    0.250000    0.250000 (in units of recip. lattice)

  ESTIMATED overall HOMO-LUMO gap:      0.01239698 eV between HOMO at k-point 800 and LUMO at k-point 428
  | This appears to be an indirect band gap.
  | Smallest direct gap :      0.55661932 eV for k_point 493 at    0.333333    0.250000    0.250000 (in units of recip. lattice)
  However, this system has fractional occupation numbers. Since we use a finite k-point grid,
  this material is metallic within the approximate finite broadening function (occupation_type)
  applied to determine the occupation numbers.

  Total energy components:
  | Sum of eigenvalues            :        -163.81850805 Ha       -4457.72841076 eV
  | XC energy correction          :         -19.66682652 Ha        -535.16157826 eV
  | XC potential correction       :          25.98427245 Ha         707.06802868 eV
  | Free-atom electrostatic energy:        -132.16381182 Ha       -3596.36030054 eV
  | Hartree energy correction     :           0.36817674 Ha          10.01859896 eV
  | Entropy correction            :          -0.00003563 Ha          -0.00096955 eV
  | ---------------------------
  | Total energy                  :        -289.29669719 Ha       -7872.16366192 eV
  | Total energy, T -> 0          :        -289.29673282 Ha       -7872.16463146 eV  <-- do not rely on this value for anything but (periodic) metals
  | Electronic free energy        :        -289.29676845 Ha       -7872.16560101 eV

  Derived energy quantities:
  | Kinetic energy                :         289.35258544 Ha        7873.68445857 eV
  | Electrostatic energy          :        -558.98245612 Ha      -15210.68654222 eV
  | Energy correction for multipole
  | error in Hartree potential    :           0.00025756 Ha           0.00700844 eV
  | Sum of eigenvalues per atom                           :       -4457.72841076 eV
  | Total energy (T->0) per atom                          :       -7872.16463146 eV  <-- do not rely on this value for anything but (periodic) metals
  | Electronic free energy per atom                       :       -7872.16560101 eV

  Self-consistency convergence accuracy:
  | Change of charge density      :  0.1157E-05
  | Change of sum of eigenvalues  : -0.8649E-04 eV
  | Change of total energy        : -0.5381E-08 eV

  End self-consistency iteration #     9       :  max(cpu_time)    wall_clock(cpu1)
  | Time for this iteration                    :        0.647 s           0.647 s
  | Charge density update                      :        0.242 s           0.243 s
  | Density mixing & preconditioning           :        0.018 s           0.018 s
  | Hartree multipole update                   :        0.000 s           0.000 s
  | Hartree multipole summation                :        0.134 s           0.133 s
  | Integration                                :        0.139 s           0.140 s
  | Solution of K.-S. eqns.                    :        0.113 s           0.113 s
  | Total energy evaluation                    :        0.000 s           0.000 s

  Partial memory accounting:
  | Current value for overall tracked memory usage on task 0  :           2.675 MB
  | Peak value for overall tracked memory usage on task 0     :           4.414 MB after allocating wave
  | Largest tracked array allocation on task 0 so far         :           2.500 MB  when allocating +KS_eigenvector_complex
  Note:  These values currently only include a subset of arrays which are explicitly tracked.
  The "true" memory usage will be greater.
------------------------------------------------------------

------------------------------------------------------------
          Begin self-consistency iteration #   10

  Date     :  20190514, Time     :  123546.366
------------------------------------------------------------
  Evaluating new KS density using the density matrix
  Evaluating density matrix
  Time summed over all CPUs for getting density from density matrix: real work        0.221 s, elapsed        0.221 s
  Integration grid: deviation in total charge (<rho> - N_e) =  -3.765876E-13
  Pulay mixing of updated and previous charge densities.

  Evaluating partitioned Hartree potential by multipole expansion.
  | Analytical far-field extrapolation by fixed multipoles:
  | Hartree multipole sum: apparent total charge =   0.177974E-03
  Summing up the Hartree potential.
  Time summed over all CPUs for potential: real work        0.132 s, elapsed        0.132 s
  | RMS charge density error from multipole expansion :   0.202500E-02
  | Average real-space part of the electrostatic potential :     -0.26726646 eV

  Integrating Hamiltonian matrix: batch-based integration.
  Time summed over all CPUs for integration: real work        0.141 s, elapsed        0.141 s

  Updating Kohn-Sham eigenvalues, eigenvectors, occupation numbers, and Fermi level.
  Solving generalized eigenproblem

  Obtaining occupation numbers and chemical potential using ELSI.
  | Chemical potential (Fermi level):    -4.96192361eV
  What follows are estimated values for band gap, HOMO, LUMO, etc.
  | They are estimated on a discrete k-point grid and not necessarily exact.
  | For converged numbers, create a DOS and/or band structure plot on a denser k-grid.

  Highest occupied state (VBM) at     -4.97014910 eV (relative to internal zero)
  | Occupation number:      1.18396845
  | K-point:     230 at    0.166667    0.416667    0.250000 (in units of recip. lattice)

  Lowest unoccupied state (CBM) at    -4.95775237 eV (relative to internal zero)
  | Occupation number:      0.90608317
  | K-point:     428 at    0.333333    0.250000    0.250000 (in units of recip. lattice)

  ESTIMATED overall HOMO-LUMO gap:      0.01239673 eV between HOMO at k-point 230 and LUMO at k-point 428
  | This appears to be an indirect band gap.
  | Smallest direct gap :      0.55661919 eV for k_point 493 at    0.333333    0.250000    0.250000 (in units of recip. lattice)
  However, this system has fractional occupation numbers. Since we use a finite k-point grid,
  this material is metallic within the approximate finite broadening function (occupation_type)
  applied to determine the occupation numbers.

  Total energy components:
  | Sum of eigenvalues            :        -163.81850214 Ha       -4457.72824982 eV
  | XC energy correction          :         -19.66682551 Ha        -535.16155075 eV
  | XC potential correction       :          25.98427113 Ha         707.06799275 eV
  | Free-atom electrostatic energy:        -132.16381182 Ha       -3596.36030054 eV
  | Hartree energy correction     :           0.36817114 Ha          10.01844642 eV
  | Entropy correction            :          -0.00003563 Ha          -0.00096954 eV
  | ---------------------------
  | Total energy                  :        -289.29669719 Ha       -7872.16366194 eV
  | Total energy, T -> 0          :        -289.29673282 Ha       -7872.16463148 eV  <-- do not rely on this value for anything but (periodic) metals
  | Electronic free energy        :        -289.29676845 Ha       -7872.16560103 eV

  Derived energy quantities:
  | Kinetic energy                :         289.35258416 Ha        7873.68442366 eV
  | Electrostatic energy          :        -558.98245585 Ha      -15210.68653485 eV
  | Energy correction for multipole
  | error in Hartree potential    :           0.00025755 Ha           0.00700817 eV
  | Sum of eigenvalues per atom                           :       -4457.72824982 eV
  | Total energy (T->0) per atom                          :       -7872.16463148 eV  <-- do not rely on this value for anything but (periodic) metals
  | Electronic free energy per atom                       :       -7872.16560103 eV

  Self-consistency convergence accuracy:
  | Change of charge density      :  0.9827E-06
  | Change of sum of eigenvalues  :  0.1609E-03 eV
  | Change of total energy        : -0.2125E-07 eV

  Preliminary charge convergence reached. Turning off preconditioner.

  Writing Kohn-Sham eigenvalues.
  K-point:       1 at    0.000000    0.000000    0.000000 (in units of recip. lattice)

  State    Occupation    Eigenvalue [Ha]    Eigenvalue [eV]
      1       2.00000         -65.531862        -1783.21270
      2       2.00000          -5.119779         -139.31628
      3       2.00000          -3.534651          -96.18275
      4       2.00000          -3.534651          -96.18275
      5       2.00000          -3.534651          -96.18275
      6       2.00000          -0.516482          -14.05419
      7       0.00000          -0.016169           -0.43999
      8       0.00000          -0.016169           -0.43999
      9       0.00000          -0.016169           -0.43999
     10       0.00000           0.194220            5.28500

  What follows are estimated values for band gap, HOMO, LUMO, etc.
  | They are estimated on a discrete k-point grid and not necessarily exact.
  | For converged numbers, create a DOS and/or band structure plot on a denser k-grid.

  Highest occupied state (VBM) at     -4.97014910 eV (relative to internal zero)
  | Occupation number:      1.18396845
  | K-point:     230 at    0.166667    0.416667    0.250000 (in units of recip. lattice)

  Lowest unoccupied state (CBM) at    -4.95775237 eV (relative to internal zero)
  | Occupation number:      0.90608317
  | K-point:     428 at    0.333333    0.250000    0.250000 (in units of recip. lattice)

  ESTIMATED overall HOMO-LUMO gap:      0.01239673 eV between HOMO at k-point 230 and LUMO at k-point 428
  | This appears to be an indirect band gap.
  | Smallest direct gap :      0.55661919 eV for k_point 493 at    0.333333    0.250000    0.250000 (in units of recip. lattice)
  However, this system has fractional occupation numbers. Since we use a finite k-point grid,
  this material is metallic within the approximate finite broadening function (occupation_type)
  applied to determine the occupation numbers.

  Self-consistency cycle converged.

  End self-consistency iteration #    10       :  max(cpu_time)    wall_clock(cpu1)
  | Time for this iteration                    :        0.645 s           0.645 s
  | Charge density update                      :        0.238 s           0.238 s
  | Density mixing                             :        0.018 s           0.017 s
  | Hartree multipole update                   :        0.000 s           0.001 s
  | Hartree multipole summation                :        0.133 s           0.133 s
  | Integration                                :        0.141 s           0.141 s
  | Solution of K.-S. eqns.                    :        0.114 s           0.114 s
  | Total energy evaluation                    :        0.000 s           0.000 s

  Partial memory accounting:
  | Current value for overall tracked memory usage on task 0  :           2.675 MB
  | Peak value for overall tracked memory usage on task 0     :           4.414 MB after allocating wave
  | Largest tracked array allocation on task 0 so far         :           2.500 MB  when allocating +KS_eigenvector_complex
  Note:  These values currently only include a subset of arrays which are explicitly tracked.
  The "true" memory usage will be greater.
------------------------------------------------------------

  Energy and forces in a compact form:
  | Total energy uncorrected      :         -0.787216366193730E+04 eV
  | Total energy corrected        :         -0.787216463148150E+04 eV  <-- do not rely on this value for anything but (periodic) metals
  | Electronic free energy        :         -0.787216560102570E+04 eV

  ------------------------------------ 
  Start decomposition of the XC Energy 
  ------------------------------------ 
  X and C from original XC functional choice 
  Hartree-Fock Energy :          0.000000000 Ha              0.000000000 eV
  X Energy            :        -18.607860787 Ha           -506.345654587 eV
  C Energy            :         -1.058964720 Ha            -28.815896161 eV
  Total XC Energy     :        -19.666825506 Ha           -535.161550747 eV
  ------------------------------------ 
  LDA X and C from self-consistent density 
  X Energy LDA        :        -18.607860787 Ha           -506.345654587 eV
  C Energy LDA        :         -1.058964720 Ha            -28.815896161 eV
  ------------------------------------ 
  End decomposition of the XC Energy 
  ------------------------------------ 

------------------------------------------------------------

------------------------------------------------------------------------------
  Final output of selected total energy values:

  The following output summarizes some interesting total energy values
  at the end of a run (AFTER all relaxation, molecular dynamics, etc.).

  | Total energy of the DFT / Hartree-Fock s.c.f. calculation      :          -7872.163661937 eV
  | Final zero-broadening corrected energy (caution - metals only) :          -7872.164631481 eV
  | For reference only, the value of 1 Hartree used in FHI-aims is :             27.211384500 eV

  Before relying on these values, please be sure to understand exactly which
  total energy value is referred to by a given number. Different objects may
  all carry the same name 'total energy'. Definitions:

  Total energy of the DFT / Hartree-Fock s.c.f. calculation:
  | Note that this energy does not include ANY quantities calculated after the
  | s.c.f. cycle, in particular not ANY RPA, MP2, etc. many-body perturbation terms.

  Final zero-broadening corrected energy:
  | For metallic systems only, a broadening of the occupation numbers at the Fermi
  | level can be extrapolated back to zero broadening by an electron-gas inspired
  | formula. For all systems that are not real metals, this value can be
  | meaningless and should be avoided.

------------------------------------------------------------------------------
  Methods described in the following list of references were used in this FHI-aims run.
  If you publish the results, please make sure to cite these reference if they apply.
  FHI-aims is an academic code, and for our developers (often, Ph.D. students
  and postdocs), scientific credit in the community is essential.
  Thank you for helping us!

  For any use of FHI-aims, please cite:

    Volker Blum, Ralf Gehrke, Felix Hanke, Paula Havu, Ville Havu,
    Xinguo Ren, Karsten Reuter, and Matthias Scheffler
    'Ab initio molecular simulations with numeric atom-centered orbitals'
    Computer Physics Communications 180, 2175-2196 (2009)
    http://dx.doi.org/10.1016/j.cpc.2009.06.022


  For the real-space grid partitioning and parallelization used in this calculation, please cite:

    Ville Havu, Volker Blum, Paula Havu, and Matthias Scheffler,
    'Efficient O(N) integration for all-electron electronic structure calculation'
    'using numerically tabulated basis functions'
    Journal of Computational Physics 228, 8367-8379 (2009).
    http://dx.doi.org/10.1016/j.jcp.2009.08.008

  Of course, there are many other important community references, e.g., those cited in the
  above references. Our list is limited to references that describe implementations in the
  FHI-aims code. The reason is purely practical (length of this list) - please credit others as well.

------------------------------------------------------------
          Leaving FHI-aims.
          Date     :  20190514, Time     :  123547.016

          Computational steps:
          | Number of self-consistency cycles          :           10
          | Number of SCF (re)initializations          :            1

          Detailed time accounting                     :  max(cpu_time)    wall_clock(cpu1)
          | Total time                                 :        7.113 s           7.115 s
          | Preparation time                           :        0.097 s           0.097 s
          | Boundary condition initalization           :        0.030 s           0.030 s
          | Grid partitioning                          :        0.010 s           0.010 s
          | Preloading free-atom quantities on grid    :        0.001 s           0.001 s
          | Free-atom superposition energy             :        0.011 s           0.011 s
          | Total time for integrations                :        1.642 s           1.640 s
          | Total time for solution of K.-S. equations :        1.378 s           1.378 s
          | Total time for density update              :        2.425 s           2.426 s
          | Total time for mixing & preconditioning    :        0.184 s           0.183 s
          | Total time for Hartree multipole update    :        0.004 s           0.005 s
          | Total time for Hartree multipole sum       :        1.282 s           1.282 s
          | Total time for total energy evaluation     :        0.002 s           0.002 s
          | Total time for scaled ZORA corrections     :        0.000 s           0.000 s

 This is a stub MPI_ALLREDUCE call.
 You should not be here. Check your
 setting on the use_mpi variable, or
 link against true MPI-libraries.
