------------------------------------------------------------
          Invoking FHI-aims ...
          Version 171221_1
          Compiled on 2019/05/06 at 14:26:40 on host ffph0xx.

          When using FHI-aims, please cite the following reference:

          Volker Blum, Ralf Gehrke, Felix Hanke, Paula Havu,
          Ville Havu, Xinguo Ren, Karsten Reuter, and Matthias Scheffler,
          'Ab Initio Molecular Simulations with Numeric Atom-Centered Orbitals',
          Computer Physics Communications 180, 2175-2196 (2009)

          For any questions about FHI-aims, please visit the aimsclub website
          with its forums and wiki. Contributions to both the forums and the
          wiki are warmly encouraged - they are for you, and everyone is welcome there.

------------------------------------------------------------



  Date     :  20190514, Time     :  105013.210
  Time zero on CPU 1             :   0.198000000000000E-02  s.
  Internal wall clock time zero  :           327063013.210  s.

  FHI-aims created a unique identifier for this run for later identification
  aims_uuid : 9F5B98D0-CCD8-4D9A-AD43-FEB26A2338C6


  Performing system and environment tests:
  *** Environment variable OMP_NUM_THREADS is not set
  *** For performance reasons you might want to set it to 1
  | Stacksize not measured: no C compiler

  Obtaining array dimensions for all initial allocations:
  
  -----------------------------------------------------------------------
  Parsing control.in (first pass over file, find array dimensions only).
  The contents of control.in will be repeated verbatim below
  unless switched off by setting 'verbatim_writeout .false.' .
  in the first line of control.in .
  -----------------------------------------------------------------------
  
  #--- method ---
  xc pw-lda
  spin none
  relativistic atomic_zora scalar
  #---
  
  #--- k-grid settings ---
  k_grid 12 12 12
  #---
  
  
  
  
  
  
  
  
  
  
  
  #-------------------------------------------------------------------------------
  #--- Species defaults for Si
  #-------------------------------------------------------------------------------
  
  ################################################################################
  #
  #  FHI-aims code project
  #  VB, Fritz-Haber Institut, 2009
  #
  #  Suggested "light" defaults for Si atom (to be pasted into control.in file)
  #  Be sure to double-check any results obtained with these settings for post-processing,
  #  e.g., with the "tight" defaults and larger basis sets.
  #
  ################################################################################
    species        Si
  #     global species definitions
      nucleus             14
      mass                28.0855
  #
      l_hartree           4
  #
      cut_pot             3.5          1.5  1.0
      basis_dep_cutoff    1e-4
  #
      radial_base         42 5.0
      radial_multiplier   1
      angular_grids       specified
        division   0.5866   50
        division   0.9616  110
        division   1.2249  194
        division   1.3795  302
  #      division   1.4810  434
  #      division   1.5529  590
  #      division   1.6284  770
  #      division   1.7077  974
  #      division   2.4068 1202
  #      outer_grid   974
        outer_grid 302
  ################################################################################
  #
  #  Definition of "minimal" basis
  #
  ################################################################################
  #     valence basis states
      valence      3  s   2.
      valence      3  p   2.
  #     ion occupancy
      ion_occ      3  s   1.
      ion_occ      3  p   1.
  ################################################################################
  #
  #  Suggested additional basis functions. For production calculations,
  #  uncomment them one after another (the most important basis functions are
  #  listed first).
  #
  #  Constructed for dimers: 1.75 A, 2.0 A, 2.25 A, 2.75 A, 3.75 A
  #
  ################################################################################
  #  "First tier" - improvements: -571.96 meV to -37.03 meV
       hydro 3 d 4.2
       hydro 2 p 1.4
  #     hydro 4 f 6.2
       ionic 3 s auto
  #  "Second tier" - improvements: -16.76 meV to -3.03 meV
  #     hydro 3 d 9
  #     hydro 5 g 9.4
  #     hydro 4 p 4
  #     hydro 1 s 0.65
  #  "Third tier" - improvements: -3.89 meV to -0.60 meV
  #     ionic 3 d auto
  #     hydro 3 s 2.6
  #     hydro 4 f 8.4
  #     hydro 3 d 3.4
  #     hydro 3 p 7.8
  #  "Fourth tier" - improvements: -0.33 meV to -0.11 meV
  #     hydro 2 p 1.6
  #     hydro 5 g 10.8
  #     hydro 5 f 11.2
  #     hydro 3 d 1
  #     hydro 4 s 4.5
  #  Further basis functions that fell out of the optimization - noise
  #  level... < -0.08 meV
  #     hydro 4 d 6.6
  #     hydro 5 g 16.4
  #     hydro 4 d 9
  
  -----------------------------------------------------------------------
  Completed first pass over input file control.in .
  -----------------------------------------------------------------------
  
  
  -----------------------------------------------------------------------
  Parsing geometry.in (first pass over file, find array dimensions only).
  The contents of geometry.in will be repeated verbatim below
  unless switched off by setting 'verbatim_writeout .false.' .
  in the first line of geometry.in .
  -----------------------------------------------------------------------
  
  lattice_vector  -2.750000   2.750000   2.750000
  lattice_vector   2.750000  -2.750000   2.750000
  lattice_vector   2.750000   2.750000  -2.750000
  atom_frac   0.000000   0.000000   0.000000 Si
  
  -----------------------------------------------------------------------
  Completed first pass over input file geometry.in .
  -----------------------------------------------------------------------
  

  Basic array size parameters:
  | Number of species                 :        1
  | Number of atoms                   :        1
  | Number of lattice vectors         :        3
  | Max. basis fn. angular momentum   :        2
  | Max. atomic/ionic basis occupied n:        3
  | Max. number of basis fn. types    :        3
  | Max. radial fns per species/type  :        5
  | Max. logarithmic grid size        :     1346
  | Max. radial integration grid size :       42
  | Max. angular integration grid size:      302
  | Max. angular grid division number :        8
  | Radial grid for Hartree potential :     1346
  | Number of spin channels           :        1

------------------------------------------------------------
          Reading file control.in.
------------------------------------------------------------
  XC: Using Perdew-Wang parametrisation of Ceperley-Alder LDA.
  Spin treatment: No spin polarisation.
  Scalar relativistic treatment of kinetic energy: on-site free-atom approximation to ZORA.
  Found k-point grid:        12        12        12

  Reading configuration options for species Si                  .
  | Found nuclear charge :  14.0000
  | Found atomic mass :    28.085500000000000      amu
  | Found l_max for Hartree potential  :   4
  | Found cutoff potl. onset [A], width [A], scale factor :    3.50000    1.50000    1.00000
  | Threshold for basis-dependent cutoff potential is   0.100000E-03
  | Found data for basic radial integration grid :    42 points, outermost radius =    5.000 A
  | Found multiplier for basic radial grid :   1
  | Found angular grid specification: user-specified.
  | Specified grid contains     5 separate shells.
  | Check grid settings after all constraints further below.
  | Found free-atom valence shell :  3 s   2.000
  | Found free-atom valence shell :  3 p   2.000
  | Found free-ion valence shell :  3 s   1.000
  | Found free-ion valence shell :  3 p   1.000
  | Found hydrogenic basis function :  3 d   4.200
  | Found hydrogenic basis function :  2 p   1.400
  | Found ionic basis function :  3 s , default cutoff radius.
  Species Si                  : Missing cutoff potential type.
  Defaulting to exp(1/x)/(1-x)^2 type cutoff potential.
  Species Si: No 'logarithmic' tag. Using default grid for free atom:
  | Default logarithmic grid data [bohr] : 0.1000E-03 0.1000E+03 0.1012E+01
  | Will include ionic basis functions of  2.0-fold positive Si                   ion.
  Species Si: On-site basis accuracy parameter (for Gram-Schmidt orthonormalisation) not specified.
  Using default value basis_acc =  0.1000000E-03.
  Species Si                  : Using default innermost maximum threshold i_radial=  2 for radial functions.
  Species Si                  : Default cutoff onset for free atom density etc. : 0.35000000E+01 AA.
  Species Si                  : Basic radial grid will be enhanced according to radial_multiplier =   1, to contain    42 grid points.

  Finished reading input file 'control.in'. Consistency checks are next.

  MPI_IN_PLACE appears to work with this MPI implementation.
  | Keeping use_mpi_in_place .true. (see manual).
  Target number of points in a grid batch is not set. Defaulting to  100
  Method for grid partitioning is not set. Defaulting to 'maxmin' partitioning.
  Batch size limit is not set. Defaulting to    200
  By default, will store active basis functions for each batch.
  If in need of memory, prune_basis_once .false. can be used to disable this option.
  communication_type for Hartree potential was not specified.
  Defaulting to calc_hartree .
 * Attention: 
 * You may want to set distributed_spline_storage to .true. in order to save memory.
 * This doesn't harm performance and is perfectly ok unless:
 * - you get error messages in postprocessing (about missing atoms in get_rho_multipole_spl)
 * - you need full spline storage in hirshfeld_analysis
  Defaulting to Pulay charge density mixer.
  Pulay mixer: Number of relevant iterations not set.
  Defaulting to    8 iterations.
  Pulay mixer: Number of initial linear mixing iterations not set.
  Defaulting to    0 iterations.
  Work space size for distributed Hartree potential not set.
  Defaulting to   0.200000E+03 MB.
  Mixing parameter for charge density mixing has not been set.
  Using default: charge_mix_param =     0.0500.
  The mixing parameter will be adjusted in iteration number     2 of the first full s.c.f. cycle only.
  Algorithm-dependent basis array size parameters:
  | n_max_pulay                         :        8
 * Notice: The s.c.f. convergence criterion sc_accuracy_rho was not provided.
 * We used to stop in this case, and ask the user to provide reasonable
 * scf convergence criteria. However, this led some users to employ criteria
 * that led to extremely long run times, e.g., for simple relaxation.
 * We now preset a default value for sc_accuracy_rho if it is not set.
 * You may still wish to check if this setting is too tight or too loose for your needs.
 * Based on n_atoms, FHI-aims chose sc_accuracy_rho =  0.100000E-05 .
  Maximum number of self-consistency iterations not provided.
  Presetting  1000 iterations.
  Presetting      1001 iterations before the initial mixing cycle
  is restarted anyway using the sc_init_iter criterion / keyword.
  Presetting a factor      1.000 between actual scf density residual
  and density convergence criterion sc_accuracy_rho below which sc_init_iter
  takes no effect.
 * No s.c.f. convergence criteria (sc_accuracy_*) were provided in control.in.
 * The run will proceed with a reasonable default guess, but please check whether.
 * the s.c.f. cycles seem to take too much or too little time.
  Calculation of forces was not defined in control.in. No forces will be calculated.
  Geometry relaxation not requested: no relaxation will be performed.
  No accuracy limit for integral partition fn. given. Defaulting to  0.1000E-14.
  No threshold value for u(r) in integrations given. Defaulting to  0.1000E-05.
  No occupation type (smearing scheme) given. Defaulting to Gaussian broadening, width =  0.1000E-01 eV.
  The width will be adjusted in iteration number     2 of the first full s.c.f. cycle only.
  S.C.F. convergence parameters will be adjusted in iteration number     2 of the first full s.c.f. cycle only.
  No accuracy for occupation numbers given. Defaulting to  0.1000E-12.
  No threshold value for occupation numbers given. Defaulting to  0.0000E+00.
  No accuracy for fermi level given. Defaulting to  0.1000E-19.
  Maximum # of iterations to find E_F not set. Defaulting to  200.
  Preferred method for the eigenvalue solver ('KS_method') not specified in 'control.in'.
  Defaulting to serial version, 'lapack_fast'.
  Will not use alltoall communication since running on < 1024 CPUs.
  Threshold for basis singularities not set.
  Default threshold for basis singularities:  0.1000E-04
  partition_type (choice of integration weights) for integrals was not specified.
  | Using a version of the partition function of Stratmann and coworkers ('stratmann_smoother').
  | At each grid point, the set of atoms used to build the partition table is smoothly restricted to
  | only those atoms whose free-atom density would be non-zero at that grid point.
  Partitioning for Hartree potential was not defined. Using partition_type for integrals.
  | Adjusted default value of keyword multip_moments_threshold to:       0.10000000E-11
  | This value may affect high angular momentum components of the Hartree potential in periodic systems.
  Angular momentum expansion for Kerker preconditioner not set explicitly.
  | Using default value of   0
  No explicit requirement for turning off preconditioner.
  | By default, it will be turned off when the charge convergence reaches
  | sc_accuracy_rho  =   0.100000E-05
  No special mixing parameter while Kerker preconditioner is on.
  Using default: charge_mix_param =     0.0500.
  No q(lm)/r^(l+1) cutoff set for long-range Hartree potential.
  | Using default value of  0.100000E-09 .
  | Verify using the multipole_threshold keyword.
  Defaulting to new monopole extrapolation.
  Density update method: automatic selection selected.
  Using density matrix based charge density update.
  Using density matrix based charge density update.
  Using packed matrix style: index .
  Defaulting to use time-reversal symmetry for k-point grid.
------------------------------------------------------------


------------------------------------------------------------
          Reading geometry description geometry.in.
------------------------------------------------------------
  Input structure read successfully.
  The structure contains        1 atoms,  and a total of         14.000 electrons.

  Input geometry:
  | Unit cell:
  |       -2.75000000        2.75000000        2.75000000
  |        2.75000000       -2.75000000        2.75000000
  |        2.75000000        2.75000000       -2.75000000
  | Atomic structure:
  |       Atom                x [A]            y [A]            z [A]
  |    1: Species Si            0.00000000        0.00000000        0.00000000

  Lattice parameters for 3D lattice (in Angstroms) :     4.763140    4.763140    4.763140
  Angle(s) between unit vectors (in degrees)      :   109.471221  109.471221  109.471221

  |

  | The smallest distance between any two atoms is         4.76313972 AA.
  |
  | The first atom of this pair is atom number                      1 .
  | The second atom of this pair is atom number                     1 .
  | Wigner-Seitz cell of the first atom image           0     0     1 .
  | (The Wigner-Seitz cell of the second atom is 0 0 0  by definition.)

  Quantities derived from the lattice vectors:
  | Reciprocal lattice vector 1:  0.000000  1.142397  1.142397
  | Reciprocal lattice vector 2:  1.142397  0.000000  1.142397
  | Reciprocal lattice vector 3:  1.142397  1.142397  0.000000
  | Unit cell volume                               :   0.831875E+02  A^3

  Range separation radius for Ewald summation (hartree_convergence_parameter):      5.00000000 bohr.

  Fractional coordinates:
                         L1                L2                L3
       atom_frac         0.00000000        0.00000000        0.00000000  Si

  Number of empty states per atom not set in control.in - providing a guess from actual geometry.
  | Total number of empty states used during s.c.f. cycle:        3
  If you use a very high smearing, use empty_states (per atom!) in control.in to increase this value.

  Structure-dependent array size parameters: 
  | Maximum number of distinct radial functions  :        8
  | Maximum number of basis functions            :       18
  | Number of Kohn-Sham states (occupied + empty):       10
------------------------------------------------------------

------------------------------------------------------------
          Preparing all fixed parts of the calculation.
------------------------------------------------------------
  Determining machine precision:
     2.2250738585072014E-308
  Setting up grids for atomic and cluster calculations.

  Creating wave function, potential, and density for free atoms.

  Species: Si

  List of occupied orbitals and eigenvalues:
    n    l              occ      energy [Ha]    energy [eV]
    1    0           2.0000       -65.491668     -1782.1190
    2    0           2.0000        -5.087967      -138.4506
    3    0           2.0000        -0.391471       -10.6525
    2    1           6.0000        -3.502246       -95.3010
    3    1           2.0000        -0.143943        -3.9169

  Creating fixed part of basis set: Ionic, confined, hydrogenic.

  Si                   ion:

  List of free ionic orbitals and eigenvalues:
    n    l      energy [Ha]    energy [eV]
    1    0       -66.364436     -1805.8682
    2    0        -5.935799      -161.5213
    3    0        -1.078166       -29.3384
    2    1        -4.351123      -118.4001
    3    1        -0.781733       -21.2720


  List of ionic basis orbitals and eigenvalues:
    n    l      energy [Ha]    energy [eV]    outer radius [A]
    3    0        -1.078146       -29.3378       4.214062


  Si                   hydrogenic:

  List of hydrogenic basis orbitals: 
    n    l      effective z      eigenvalue [eV]  inner max. [A]     outer max. [A]     outer radius [A]   
    3    2         4.200000       -26.6624           1.139231           1.139231           4.534782
    2    1         1.400000        -6.4613           1.472672           1.472672           4.590560


  Adding cutoff potential to free-atom effective potential.
  Creating atomic-like basis functions for current effective potential.

  Species Si                  :

  List of atomic basis orbitals and eigenvalues:
    n    l      energy [Ha]    energy [eV]    outer radius [A]
    1    0       -65.491668     -1782.1190       0.789468
    2    0        -5.087967      -138.4506       2.815114
    3    0        -0.391471       -10.6525       4.534782
    2    1        -3.502246       -95.3010       3.259919
    3    1        -0.143943        -3.9169       4.590560

  Assembling full basis from fixed parts.
  | Species Si :   atomic orbital   1 s accepted.
  | Species Si :   atomic orbital   2 s accepted.
  | Species Si :    ionic orbital   3 s accepted.
  | Species Si :   atomic orbital   3 s accepted.
  | Species Si :   atomic orbital   2 p accepted.
  | Species Si :   atomic orbital   3 p accepted.
  | Species Si :    hydro orbital   2 p accepted.
  | Species Si :    hydro orbital   3 d accepted.

  Basis size parameters after reduction:
  | Total number of radial functions:        8
  | Total number of basis functions :       18

  Per-task memory consumption for arrays in subroutine allocate_ext:
  |           2.757468MB.
  Testing on-site integration grid accuracy.
  |  Species  Function  <phi|h_atom|phi> (log., in eV)  <phi|h_atom|phi> (rad., in eV)
           1        1              -1782.1189727076              -1782.1182429251
           1        2               -138.4506350693               -138.4506310079
           1        3                -10.3030408815                -10.3029120678
           1        4                  5.0238999146                  4.9457540310 ***
           1        5                -95.3009689499                -95.3009689315
           1        6                 -3.9266496564                 -3.9420918374
           1        7                  6.3453628447                  6.1632372158 ***
           1        8                  6.2883050744                  6.2861881409
 * Note: Onsite integrals marked "***" above are less accurate than
 * onsite_accuracy_threshold =    0.03000 eV. Usually, this is harmless.
 * When in doubt, tighten the "radial" and/or "radial_multiplier" flags to check.

  Preparing densities etc. for the partition functions (integrals / Hartree potential).

  Preparations completed.
  max(cpu_time)          :      0.117 s.
  Wall clock time (cpu1) :      0.117 s.
------------------------------------------------------------

------------------------------------------------------------
          Begin self-consistency loop: Initialization.

          Date     :  20190514, Time     :  105013.329
------------------------------------------------------------

  Initializing index lists of integration centers etc. from given atomic structure:
  Mapping all atomic coordinates to central unit cell.

  Initializing the k-points
          Using symmetry for reducing the k-points
  | k-points reduced from:     1728 to      868
  | Number of k-points                             :       868
  The eigenvectors in the calculations are COMPLEX.
  | K-points in task   0:       868
  | Number of basis functions in the Hamiltonian integrals :       406
  | Number of basis functions in a single unit cell        :        18
  | Number of centers in hartree potential         :       259
  | Number of centers in hartree multipole         :        59
  | Number of centers in electron density summation:        51
  | Number of centers in basis integrals           :        59
  | Number of centers in integrals                 :        27
  | Number of centers in hamiltonian               :        51
  | Consuming        705 KiB for k_phase.
  | Number of super-cells (origin) [n_cells]                     :        1331
  | Number of super-cells (after PM_index) [n_cells]             :          52
  | Number of super-cells in hamiltonian [n_cells_in_hamiltonian]:          52
  | Size of matrix packed + index [n_hamiltonian_matrix_size] :        6066
  Partitioning the integration grid into batches with maxmin method.
  | Maximal weight for a single point:     1.000
  | Minimal weight for a single point:     0.170
  | Number of batches:       64
  | Maximal batch size:      90
  | Minimal batch size:      85
  | Average batch size:      87.562
  | Standard deviation of batch sizes:       1.499
  Initializing partition tables, free-atom densities, potentials, etc. across the integration grid (initialize_grid_storage).
  | initialize_grid_storage: Actual outermost partition radius vs. multipole_radius_free
  | (-- VB: in principle, multipole_radius_free should be larger, hence this output)
  | Species        1: Confinement radius =              4.999999999999999 AA, multipole_radius_free =              5.000694715736543 AA.
  | Species        1: outer_partition_radius set to              5.000694715736543 AA .
  | Original list of interatomic distances with          59 x         59 entries is created.
  | Net number of integration points:     5604
  | of which are non-zero points    :     5470
  | Numerical average free-atom electrostatic potential    :     -3.16221997 eV
  Renormalizing the initial density to the exact electron count on the 3D integration grid.
  | Initial density: Formal number of electrons (from input files) :      14.0000000000
  | Integrated number of electrons on 3D grid     :      13.9998166661
  | Charge integration error                      :      -0.0001833339
  | Normalization factor for density and gradient :       1.0000130955
  Obtaining max. number of non-zero basis functions in each batch (get_n_compute_maxes).
  | Maximal number of non-zero basis functions:      142 in task     0
  Allocating        2.500 MB for KS_eigenvector_complex
  Integrating Hamiltonian matrix: batch-based integration.
  Time summed over all CPUs for integration: real work        0.034 s, elapsed        0.034 s
  Integrating overlap matrix.
  Time summed over all CPUs for integration: real work        0.021 s, elapsed        0.021 s
  Decreasing sparse matrix size:
   Tolerance:   9.9999998245167004E-014
   Hamiltonian matrix
  | Array has     4133 nonzero elements out of     6066 elements
  | Sparsity factor is 0.319
   Overlap matrix
  | Array has     2527 nonzero elements out of     6066 elements
  | Sparsity factor is 0.583
  New size of hamiltonian matrix:        4272

  Updating Kohn-Sham eigenvalues, eigenvectors, occupation numbers, and Fermi level.
  Solving generalized eigenproblem
  Transforming overlap matrix and checking for singularities.
  Overlap matrix is nonsingular at first k-point:
  | Lowest eigenvalue:  0.274609E+00

  Obtaining occupation numbers and chemical potential using ELSI.
  | Chemical potential (Fermi level):    -4.25485744eV
  Writing Kohn-Sham eigenvalues.
  K-point:       1 at    0.000000    0.000000    0.000000 (in units of recip. lattice)

  State    Occupation    Eigenvalue [Ha]    Eigenvalue [eV]
      1       2.00000         -65.491691        -1782.11959
      2       2.00000          -5.087974         -138.45083
      3       2.00000          -3.502254          -95.30117
      4       2.00000          -3.502254          -95.30117
      5       2.00000          -3.502254          -95.30117
      6       2.00000          -0.406734          -11.06779
      7       0.00000          -0.115101           -3.13206
      8       0.00000          -0.115101           -3.13206
      9       0.00000          -0.115101           -3.13206
     10       0.00000           0.043023            1.17072

  What follows are estimated values for band gap, HOMO, LUMO, etc.
  | They are estimated on a discrete k-point grid and not necessarily exact.
  | For converged numbers, create a DOS and/or band structure plot on a denser k-grid.

  Highest occupied state (VBM) at     -4.25942365 eV (relative to internal zero)
  | Occupation number:      1.48156498
  | K-point:     428 at    0.333333    0.250000    0.250000 (in units of recip. lattice)

  Lowest unoccupied state (CBM) at    -4.25028835 eV (relative to internal zero)
  | Occupation number:      0.51817165
  | K-point:     575 at    0.416667    0.583333    0.583333 (in units of recip. lattice)

  ESTIMATED overall HOMO-LUMO gap:      0.00913530 eV between HOMO at k-point 428 and LUMO at k-point 575
  | This appears to be an indirect band gap.
  | Smallest direct gap :      0.13979610 eV for k_point 575 at    0.416667    0.583333    0.583333 (in units of recip. lattice)
  However, this system has fractional occupation numbers. Since we use a finite k-point grid,
  this material is metallic within the approximate finite broadening function (occupation_type)
  applied to determine the occupation numbers.
  Calculating total energy contributions from superposition of free atom densities.

  Total energy components:
  | Sum of eigenvalues            :        -163.30179402 Ha       -4443.66790671 eV
  | XC energy correction          :         -19.62614265 Ha        -534.05451398 eV
  | XC potential correction       :          25.93151354 Ha         705.63238559 eV
  | Free-atom electrostatic energy:        -132.20671869 Ha       -3597.52785574 eV
  | Hartree energy correction     :          -0.00000000 Ha          -0.00000000 eV
  | Entropy correction            :          -0.00000310 Ha          -0.00008435 eV
  | ---------------------------
  | Total energy                  :        -289.20314183 Ha       -7869.61789083 eV
  | Total energy, T -> 0          :        -289.20314493 Ha       -7869.61797518 eV  <-- do not rely on this value for anything but (periodic) metals
  | Electronic free energy        :        -289.20314803 Ha       -7869.61805954 eV

  Derived energy quantities:
  | Kinetic energy                :         289.56488351 Ha        7879.46138300 eV
  | Electrostatic energy          :        -559.14188269 Ha      -15215.02475985 eV
  | Energy correction for multipole
  | error in Hartree potential    :           0.00000000 Ha           0.00000000 eV
  | Sum of eigenvalues per atom                           :       -4443.66790671 eV
  | Total energy (T->0) per atom                          :       -7869.61797518 eV  <-- do not rely on this value for anything but (periodic) metals
  | Electronic free energy per atom                       :       -7869.61805954 eV
  Initialize hartree_potential_storage
  Max. number of atoms included in rho_multipole:            1

  End scf initialization - timings             :  max(cpu_time)    wall_clock(cpu1)
  | Time for scf. initialization               :        0.368 s           0.368 s
  | Boundary condition initialization          :        0.040 s           0.040 s
  | Integration                                :        0.054 s           0.055 s
  | Solution of K.-S. eqns.                    :        0.243 s           0.243 s
  | Grid partitioning                          :        0.008 s           0.008 s
  | Preloading free-atom quantities on grid    :        0.001 s           0.001 s
  | Free-atom superposition energy             :        0.006 s           0.007 s
  | Total energy evaluation                    :        0.000 s           0.000 s

  Partial memory accounting:
  | Current value for overall tracked memory usage on task 0  :           2.586 MB
  | Peak value for overall tracked memory usage on task 0     :           3.089 MB after allocating wave
  | Largest tracked array allocation on task 0 so far         :           2.500 MB  when allocating +KS_eigenvector_complex
  Note:  These values currently only include a subset of arrays which are explicitly tracked.
  The "true" memory usage will be greater.
------------------------------------------------------------

------------------------------------------------------------
          Begin self-consistency iteration #    1

  Date     :  20190514, Time     :  105013.697
------------------------------------------------------------
  Evaluating new KS density using the density matrix
  Evaluating density matrix
  Time summed over all CPUs for getting density from density matrix: real work        0.057 s, elapsed        0.057 s
  Integration grid: deviation in total charge (<rho> - N_e) =  -2.877698E-13
  Pulay mixing of updated and previous charge densities.

  Evaluating partitioned Hartree potential by multipole expansion.
  | Analytical far-field extrapolation by fixed multipoles:
  | Hartree multipole sum: apparent total charge =  -0.394055E-03
  Summing up the Hartree potential.
  | Estimated reciprocal-space cutoff momentum G_max:         1.84432723 bohr^-1 .
  | Reciprocal lattice points for long-range Hartree potential:      54
  Time summed over all CPUs for potential: real work        0.072 s, elapsed        0.072 s
  | RMS charge density error from multipole expansion :   0.388499E-04
  | Average real-space part of the electrostatic potential :     -0.01067632 eV

  Integrating Hamiltonian matrix: batch-based integration.
  Time summed over all CPUs for integration: real work        0.036 s, elapsed        0.036 s

  Updating Kohn-Sham eigenvalues, eigenvectors, occupation numbers, and Fermi level.
  Solving generalized eigenproblem

  Obtaining occupation numbers and chemical potential using ELSI.
  | Chemical potential (Fermi level):    -4.27023690eV
  Writing Kohn-Sham eigenvalues.
  K-point:       1 at    0.000000    0.000000    0.000000 (in units of recip. lattice)

  State    Occupation    Eigenvalue [Ha]    Eigenvalue [eV]
      1       2.00000         -65.493934        -1782.18062
      2       2.00000          -5.089819         -138.50102
      3       2.00000          -3.504134          -95.35235
      4       2.00000          -3.504134          -95.35235
      5       2.00000          -3.504134          -95.35235
      6       2.00000          -0.407481          -11.08811
      7       0.00000          -0.115780           -3.15052
      8       0.00000          -0.115780           -3.15052
      9       0.00000          -0.115780           -3.15052
     10       0.00000           0.042432            1.15463

  What follows are estimated values for band gap, HOMO, LUMO, etc.
  | They are estimated on a discrete k-point grid and not necessarily exact.
  | For converged numbers, create a DOS and/or band structure plot on a denser k-grid.

  Highest occupied state (VBM) at     -4.27455865 eV (relative to internal zero)
  | Occupation number:      1.45892456
  | K-point:     321 at    0.250000    0.250000    0.333333 (in units of recip. lattice)

  Lowest unoccupied state (CBM) at    -4.26602654 eV (relative to internal zero)
  | Occupation number:      0.55155303
  | K-point:     557 at    0.416667    0.416667    0.583333 (in units of recip. lattice)

  ESTIMATED overall HOMO-LUMO gap:      0.00853211 eV between HOMO at k-point 321 and LUMO at k-point 557
  | This appears to be an indirect band gap.
  | Smallest direct gap :      0.13943351 eV for k_point 575 at    0.416667    0.416667    0.583333 (in units of recip. lattice)
  However, this system has fractional occupation numbers. Since we use a finite k-point grid,
  this material is metallic within the approximate finite broadening function (occupation_type)
  applied to determine the occupation numbers.

  Total energy components:
  | Sum of eigenvalues            :        -163.32391986 Ha       -4444.26998125 eV
  | XC energy correction          :         -19.62393849 Ha        -533.99453553 eV
  | XC potential correction       :          25.92861232 Ha         705.55343938 eV
  | Free-atom electrostatic energy:        -132.20671869 Ha       -3597.52785574 eV
  | Hartree energy correction     :           0.02294982 Ha           0.62449645 eV
  | Entropy correction            :          -0.00000312 Ha          -0.00008480 eV
  | ---------------------------
  | Total energy                  :        -289.20301489 Ha       -7869.61443669 eV
  | Total energy, T -> 0          :        -289.20301800 Ha       -7869.61452149 eV  <-- do not rely on this value for anything but (periodic) metals
  | Electronic free energy        :        -289.20302112 Ha       -7869.61460629 eV

  Derived energy quantities:
  | Kinetic energy                :         289.55546774 Ha        7879.20516682 eV
  | Electrostatic energy          :        -559.13454415 Ha      -15214.82506798 eV
  | Energy correction for multipole
  | error in Hartree potential    :           0.00000294 Ha           0.00008011 eV
  | Sum of eigenvalues per atom                           :       -4444.26998125 eV
  | Total energy (T->0) per atom                          :       -7869.61452149 eV  <-- do not rely on this value for anything but (periodic) metals
  | Electronic free energy per atom                       :       -7869.61460629 eV

  Self-consistency convergence accuracy:
  | Change of charge density      :  0.2969E-01
  | Change of sum of eigenvalues  : -0.6021E+00 eV
  | Change of total energy        :  0.3454E-02 eV

  End self-consistency iteration #     1       :  max(cpu_time)    wall_clock(cpu1)
  | Time for this iteration                    :        0.287 s           0.287 s
  | Charge density update                      :        0.066 s           0.066 s
  | Density mixing & preconditioning           :        0.012 s           0.012 s
  | Hartree multipole update                   :        0.001 s           0.001 s
  | Hartree multipole summation                :        0.073 s           0.073 s
  | Integration                                :        0.036 s           0.036 s
  | Solution of K.-S. eqns.                    :        0.098 s           0.098 s
  | Total energy evaluation                    :        0.000 s           0.001 s

  Partial memory accounting:
  | Current value for overall tracked memory usage on task 0  :           2.586 MB
  | Peak value for overall tracked memory usage on task 0     :           3.089 MB after allocating wave
  | Largest tracked array allocation on task 0 so far         :           2.500 MB  when allocating +KS_eigenvector_complex
  Note:  These values currently only include a subset of arrays which are explicitly tracked.
  The "true" memory usage will be greater.
------------------------------------------------------------

------------------------------------------------------------
          Begin self-consistency iteration #    2

  Date     :  20190514, Time     :  105013.984
------------------------------------------------------------
  Evaluating new KS density using the density matrix
  Evaluating density matrix
  Time summed over all CPUs for getting density from density matrix: real work        0.052 s, elapsed        0.052 s
  Integration grid: deviation in total charge (<rho> - N_e) =  -2.415845E-13
  Pulay mixing of updated and previous charge densities.

  Evaluating partitioned Hartree potential by multipole expansion.
  | Analytical far-field extrapolation by fixed multipoles:
  | Hartree multipole sum: apparent total charge =  -0.428004E-02
  Summing up the Hartree potential.
  Time summed over all CPUs for potential: real work        0.098 s, elapsed        0.098 s
  | RMS charge density error from multipole expansion :   0.747984E-03
  | Average real-space part of the electrostatic potential :     -0.21789947 eV

  Integrating Hamiltonian matrix: batch-based integration.
  Time summed over all CPUs for integration: real work        0.036 s, elapsed        0.036 s

  Updating Kohn-Sham eigenvalues, eigenvectors, occupation numbers, and Fermi level.
  Solving generalized eigenproblem

  Obtaining occupation numbers and chemical potential using ELSI.
  | Chemical potential (Fermi level):    -4.55760301eV
  What follows are estimated values for band gap, HOMO, LUMO, etc.
  | They are estimated on a discrete k-point grid and not necessarily exact.
  | For converged numbers, create a DOS and/or band structure plot on a denser k-grid.

  Highest occupied state (VBM) at     -4.56146816 eV (relative to internal zero)
  | Occupation number:      1.41535665
  | K-point:     705 at    0.583333    0.416667    0.583333 (in units of recip. lattice)

  Lowest unoccupied state (CBM) at    -4.55721118 eV (relative to internal zero)
  | Occupation number:      0.95580851
  | K-point:     319 at    0.250000    0.250000    0.166667 (in units of recip. lattice)

  ESTIMATED overall HOMO-LUMO gap:      0.00425699 eV between HOMO at k-point 705 and LUMO at k-point 319
  | This appears to be an indirect band gap.
  | Smallest direct gap :      0.20666794 eV for k_point 675 at    0.250000    0.250000    0.166667 (in units of recip. lattice)
  However, this system has fractional occupation numbers. Since we use a finite k-point grid,
  this material is metallic within the approximate finite broadening function (occupation_type)
  applied to determine the occupation numbers.

  Checking to see if s.c.f. parameters should be adjusted.
  Adjusted the Pulay mixing parameter (charge_mix_param) for an expected low-gap system. New value:   0.020000 .
  Adjusted the occupation broadening width for an expected low-gap system. New value:      0.05000000 eV.

  Total energy components:
  | Sum of eigenvalues            :        -163.77126676 Ha       -4456.44290979 eV
  | XC energy correction          :         -19.58491743 Ha        -532.93271852 eV
  | XC potential correction       :          25.87724699 Ha         704.15571766 eV
  | Free-atom electrostatic energy:        -132.20671869 Ha       -3597.52785574 eV
  | Hartree energy correction     :           0.48408111 Ha          13.17251721 eV
  | Entropy correction            :          -0.00006596 Ha          -0.00179478 eV
  | ---------------------------
  | Total energy                  :        -289.20157477 Ha       -7869.57524918 eV
  | Total energy, T -> 0          :        -289.20164073 Ha       -7869.57704396 eV  <-- do not rely on this value for anything but (periodic) metals
  | Electronic free energy        :        -289.20170669 Ha       -7869.57883874 eV

  Derived energy quantities:
  | Kinetic energy                :         289.28651495 Ha        7871.88658886 eV
  | Electrostatic energy          :        -558.90317229 Ha      -15208.52911952 eV
  | Energy correction for multipole
  | error in Hartree potential    :           0.00006671 Ha           0.00181540 eV
  | Sum of eigenvalues per atom                           :       -4456.44290979 eV
  | Total energy (T->0) per atom                          :       -7869.57704396 eV  <-- do not rely on this value for anything but (periodic) metals
  | Electronic free energy per atom                       :       -7869.57883874 eV

  Self-consistency convergence accuracy:
  | Change of charge density      :  0.2824E-01
  | Change of sum of eigenvalues  : -0.1217E+02 eV
  | Change of total energy        :  0.3919E-01 eV

  End self-consistency iteration #     2       :  max(cpu_time)    wall_clock(cpu1)
  | Time for this iteration                    :        0.307 s           0.307 s
  | Charge density update                      :        0.061 s           0.061 s
  | Density mixing & preconditioning           :        0.010 s           0.010 s
  | Hartree multipole update                   :        0.001 s           0.001 s
  | Hartree multipole summation                :        0.101 s           0.100 s
  | Integration                                :        0.036 s           0.036 s
  | Solution of K.-S. eqns.                    :        0.098 s           0.099 s
  | Total energy evaluation                    :        0.000 s           0.000 s

  Partial memory accounting:
  | Current value for overall tracked memory usage on task 0  :           2.587 MB
  | Peak value for overall tracked memory usage on task 0     :           3.089 MB after allocating wave
  | Largest tracked array allocation on task 0 so far         :           2.500 MB  when allocating +KS_eigenvector_complex
  Note:  These values currently only include a subset of arrays which are explicitly tracked.
  The "true" memory usage will be greater.
------------------------------------------------------------

------------------------------------------------------------
          Begin self-consistency iteration #    3

  Date     :  20190514, Time     :  105014.291
------------------------------------------------------------
  Evaluating new KS density using the density matrix
  Evaluating density matrix
  Time summed over all CPUs for getting density from density matrix: real work        0.054 s, elapsed        0.054 s
  Integration grid: deviation in total charge (<rho> - N_e) =  -2.948752E-13
  Pulay mixing of updated and previous charge densities.

  Evaluating partitioned Hartree potential by multipole expansion.
  | Analytical far-field extrapolation by fixed multipoles:
  | Hartree multipole sum: apparent total charge =  -0.440326E-02
  Summing up the Hartree potential.
  Time summed over all CPUs for potential: real work        0.100 s, elapsed        0.100 s
  | RMS charge density error from multipole expansion :   0.773738E-03
  | Average real-space part of the electrostatic potential :     -0.22391375 eV

  Integrating Hamiltonian matrix: batch-based integration.
  Time summed over all CPUs for integration: real work        0.035 s, elapsed        0.035 s

  Updating Kohn-Sham eigenvalues, eigenvectors, occupation numbers, and Fermi level.
  Solving generalized eigenproblem

  Obtaining occupation numbers and chemical potential using ELSI.
  | Chemical potential (Fermi level):    -4.57332956eV
  What follows are estimated values for band gap, HOMO, LUMO, etc.
  | They are estimated on a discrete k-point grid and not necessarily exact.
  | For converged numbers, create a DOS and/or band structure plot on a denser k-grid.

  Highest occupied state (VBM) at     -4.58493535 eV (relative to internal zero)
  | Occupation number:      1.25728584
  | K-point:     565 at    0.416667    0.500000    0.500000 (in units of recip. lattice)

  Lowest unoccupied state (CBM) at    -4.57240839 eV (relative to internal zero)
  | Occupation number:      0.97921371
  | K-point:     705 at    0.583333    0.416667    0.583333 (in units of recip. lattice)

  ESTIMATED overall HOMO-LUMO gap:      0.01252696 eV between HOMO at k-point 565 and LUMO at k-point 705
  | This appears to be an indirect band gap.
  | Smallest direct gap :      0.13117892 eV for k_point 705 at    0.583333    0.416667    0.583333 (in units of recip. lattice)
  However, this system has fractional occupation numbers. Since we use a finite k-point grid,
  this material is metallic within the approximate finite broadening function (occupation_type)
  applied to determine the occupation numbers.

  Total energy components:
  | Sum of eigenvalues            :        -163.79305921 Ha       -4457.03591266 eV
  | XC energy correction          :         -19.58294361 Ha        -532.87900813 eV
  | XC potential correction       :          25.87464022 Ha         704.08478380 eV
  | Free-atom electrostatic energy:        -132.20671869 Ha       -3597.52785574 eV
  | Hartree energy correction     :           0.50657566 Ha          13.78462496 eV
  | Entropy correction            :          -0.00006586 Ha          -0.00179227 eV
  | ---------------------------
  | Total energy                  :        -289.20150563 Ha       -7869.57336777 eV
  | Total energy, T -> 0          :        -289.20157150 Ha       -7869.57516004 eV  <-- do not rely on this value for anything but (periodic) metals
  | Electronic free energy        :        -289.20163736 Ha       -7869.57695231 eV

  Derived energy quantities:
  | Kinetic energy                :         289.26490870 Ha        7871.29865305 eV
  | Electrostatic energy          :        -558.88347073 Ha      -15207.99301269 eV
  | Energy correction for multipole
  | error in Hartree potential    :           0.00006683 Ha           0.00181856 eV
  | Sum of eigenvalues per atom                           :       -4457.03591266 eV
  | Total energy (T->0) per atom                          :       -7869.57516004 eV  <-- do not rely on this value for anything but (periodic) metals
  | Electronic free energy per atom                       :       -7869.57695231 eV

  Self-consistency convergence accuracy:
  | Change of charge density      :  0.7919E-02
  | Change of sum of eigenvalues  : -0.5930E+00 eV
  | Change of total energy        :  0.1881E-02 eV

  End self-consistency iteration #     3       :  max(cpu_time)    wall_clock(cpu1)
  | Time for this iteration                    :        0.312 s           0.313 s
  | Charge density update                      :        0.061 s           0.061 s
  | Density mixing & preconditioning           :        0.010 s           0.010 s
  | Hartree multipole update                   :        0.000 s           0.000 s
  | Hartree multipole summation                :        0.102 s           0.102 s
  | Integration                                :        0.036 s           0.035 s
  | Solution of K.-S. eqns.                    :        0.103 s           0.103 s
  | Total energy evaluation                    :        0.000 s           0.000 s

  Partial memory accounting:
  | Current value for overall tracked memory usage on task 0  :           2.587 MB
  | Peak value for overall tracked memory usage on task 0     :           3.089 MB after allocating wave
  | Largest tracked array allocation on task 0 so far         :           2.500 MB  when allocating +KS_eigenvector_complex
  Note:  These values currently only include a subset of arrays which are explicitly tracked.
  The "true" memory usage will be greater.
------------------------------------------------------------

------------------------------------------------------------
          Begin self-consistency iteration #    4

  Date     :  20190514, Time     :  105014.604
------------------------------------------------------------
  Evaluating new KS density using the density matrix
  Evaluating density matrix
  Time summed over all CPUs for getting density from density matrix: real work        0.054 s, elapsed        0.054 s
  Integration grid: deviation in total charge (<rho> - N_e) =  -1.794120E-13
  Pulay mixing of updated and previous charge densities.

  Evaluating partitioned Hartree potential by multipole expansion.
  | Analytical far-field extrapolation by fixed multipoles:
  | Hartree multipole sum: apparent total charge =  -0.564262E-02
  Summing up the Hartree potential.
  Time summed over all CPUs for potential: real work        0.105 s, elapsed        0.105 s
  | RMS charge density error from multipole expansion :   0.101065E-02
  | Average real-space part of the electrostatic potential :     -0.30424712 eV

  Integrating Hamiltonian matrix: batch-based integration.
  Time summed over all CPUs for integration: real work        0.037 s, elapsed        0.037 s

  Updating Kohn-Sham eigenvalues, eigenvectors, occupation numbers, and Fermi level.
  Solving generalized eigenproblem

  Obtaining occupation numbers and chemical potential using ELSI.
  | Chemical potential (Fermi level):    -4.65376602eV
  What follows are estimated values for band gap, HOMO, LUMO, etc.
  | They are estimated on a discrete k-point grid and not necessarily exact.
  | For converged numbers, create a DOS and/or band structure plot on a denser k-grid.

  Highest occupied state (VBM) at     -4.66608661 eV (relative to internal zero)
  | Occupation number:      1.27251960
  | K-point:     663 at    0.500000    0.416667    0.583333 (in units of recip. lattice)

  Lowest unoccupied state (CBM) at    -4.65362908 eV (relative to internal zero)
  | Occupation number:      0.99690979
  | K-point:     557 at    0.416667    0.416667    0.583333 (in units of recip. lattice)

  ESTIMATED overall HOMO-LUMO gap:      0.01245753 eV between HOMO at k-point 663 and LUMO at k-point 557
  | This appears to be an indirect band gap.
  | Smallest direct gap :      0.12972337 eV for k_point 705 at    0.416667    0.416667    0.583333 (in units of recip. lattice)
  However, this system has fractional occupation numbers. Since we use a finite k-point grid,
  this material is metallic within the approximate finite broadening function (occupation_type)
  applied to determine the occupation numbers.

  Total energy components:
  | Sum of eigenvalues            :        -163.84756818 Ha       -4458.51917716 eV
  | XC energy correction          :         -19.57979093 Ha        -532.79321942 eV
  | XC potential correction       :          25.87059656 Ha         703.97475017 eV
  | Free-atom electrostatic energy:        -132.20671869 Ha       -3597.52785574 eV
  | Hartree energy correction     :           0.56196464 Ha          15.29183578 eV
  | Entropy correction            :          -0.00006604 Ha          -0.00179692 eV
  | ---------------------------
  | Total energy                  :        -289.20151661 Ha       -7869.57366637 eV
  | Total energy, T -> 0          :        -289.20158264 Ha       -7869.57546329 eV  <-- do not rely on this value for anything but (periodic) metals
  | Electronic free energy        :        -289.20164868 Ha       -7869.57726021 eV

  Derived energy quantities:
  | Kinetic energy                :         289.34354518 Ha        7873.43846058 eV
  | Electrostatic energy          :        -558.96527086 Ha      -15210.21890753 eV
  | Energy correction for multipole
  | error in Hartree potential    :           0.00012383 Ha           0.00336948 eV
  | Sum of eigenvalues per atom                           :       -4458.51917716 eV
  | Total energy (T->0) per atom                          :       -7869.57546329 eV  <-- do not rely on this value for anything but (periodic) metals
  | Electronic free energy per atom                       :       -7869.57726021 eV

  Self-consistency convergence accuracy:
  | Change of charge density      :  0.8855E-02
  | Change of sum of eigenvalues  : -0.1483E+01 eV
  | Change of total energy        : -0.2986E-03 eV

  End self-consistency iteration #     4       :  max(cpu_time)    wall_clock(cpu1)
  | Time for this iteration                    :        0.319 s           0.319 s
  | Charge density update                      :        0.062 s           0.062 s
  | Density mixing & preconditioning           :        0.011 s           0.011 s
  | Hartree multipole update                   :        0.000 s           0.000 s
  | Hartree multipole summation                :        0.107 s           0.107 s
  | Integration                                :        0.037 s           0.038 s
  | Solution of K.-S. eqns.                    :        0.101 s           0.100 s
  | Total energy evaluation                    :        0.000 s           0.000 s

  Partial memory accounting:
  | Current value for overall tracked memory usage on task 0  :           2.587 MB
  | Peak value for overall tracked memory usage on task 0     :           3.089 MB after allocating wave
  | Largest tracked array allocation on task 0 so far         :           2.500 MB  when allocating +KS_eigenvector_complex
  Note:  These values currently only include a subset of arrays which are explicitly tracked.
  The "true" memory usage will be greater.
------------------------------------------------------------

------------------------------------------------------------
          Begin self-consistency iteration #    5

  Date     :  20190514, Time     :  105014.923
------------------------------------------------------------
  Evaluating new KS density using the density matrix
  Evaluating density matrix
  Time summed over all CPUs for getting density from density matrix: real work        0.052 s, elapsed        0.052 s
  Integration grid: deviation in total charge (<rho> - N_e) =  -3.144152E-13
  Pulay mixing of updated and previous charge densities.

  Evaluating partitioned Hartree potential by multipole expansion.
  | Analytical far-field extrapolation by fixed multipoles:
  | Hartree multipole sum: apparent total charge =  -0.510657E-02
  Summing up the Hartree potential.
  Time summed over all CPUs for potential: real work        0.108 s, elapsed        0.108 s
  | RMS charge density error from multipole expansion :   0.947280E-03
  | Average real-space part of the electrostatic potential :     -0.28649939 eV

  Integrating Hamiltonian matrix: batch-based integration.
  Time summed over all CPUs for integration: real work        0.037 s, elapsed        0.037 s

  Updating Kohn-Sham eigenvalues, eigenvectors, occupation numbers, and Fermi level.
  Solving generalized eigenproblem

  Obtaining occupation numbers and chemical potential using ELSI.
  | Chemical potential (Fermi level):    -4.63001868eV
  What follows are estimated values for band gap, HOMO, LUMO, etc.
  | They are estimated on a discrete k-point grid and not necessarily exact.
  | For converged numbers, create a DOS and/or band structure plot on a denser k-grid.

  Highest occupied state (VBM) at     -4.64189324 eV (relative to internal zero)
  | Occupation number:      1.26302616
  | K-point:     565 at    0.416667    0.500000    0.500000 (in units of recip. lattice)

  Lowest unoccupied state (CBM) at    -4.62938594 eV (relative to internal zero)
  | Occupation number:      0.98572148
  | K-point:     557 at    0.416667    0.416667    0.583333 (in units of recip. lattice)

  ESTIMATED overall HOMO-LUMO gap:      0.01250730 eV between HOMO at k-point 565 and LUMO at k-point 557
  | This appears to be an indirect band gap.
  | Smallest direct gap :      0.13039676 eV for k_point 705 at    0.416667    0.416667    0.583333 (in units of recip. lattice)
  However, this system has fractional occupation numbers. Since we use a finite k-point grid,
  this material is metallic within the approximate finite broadening function (occupation_type)
  applied to determine the occupation numbers.

  Total energy components:
  | Sum of eigenvalues            :        -163.81443770 Ha       -4457.61765088 eV
  | XC energy correction          :         -19.58244138 Ha        -532.86534180 eV
  | XC potential correction       :          25.87408118 Ha         704.06957147 eV
  | Free-atom electrostatic energy:        -132.20671869 Ha       -3597.52785574 eV
  | Hartree energy correction     :           0.52801246 Ha          14.36795004 eV
  | Entropy correction            :          -0.00006586 Ha          -0.00179226 eV
  | ---------------------------
  | Total energy                  :        -289.20150413 Ha       -7869.57332692 eV
  | Total energy, T -> 0          :        -289.20157000 Ha       -7869.57511918 eV  <-- do not rely on this value for anything but (periodic) metals
  | Electronic free energy        :        -289.20163586 Ha       -7869.57691144 eV

  Derived energy quantities:
  | Kinetic energy                :         289.35719594 Ha        7873.80991657 eV
  | Electrostatic energy          :        -558.97625869 Ha      -15210.51790170 eV
  | Energy correction for multipole
  | error in Hartree potential    :           0.00011587 Ha           0.00315311 eV
  | Sum of eigenvalues per atom                           :       -4457.61765088 eV
  | Total energy (T->0) per atom                          :       -7869.57511918 eV  <-- do not rely on this value for anything but (periodic) metals
  | Electronic free energy per atom                       :       -7869.57691144 eV

  Self-consistency convergence accuracy:
  | Change of charge density      :  0.3510E-02
  | Change of sum of eigenvalues  :  0.9015E+00 eV
  | Change of total energy        :  0.3395E-03 eV

  End self-consistency iteration #     5       :  max(cpu_time)    wall_clock(cpu1)
  | Time for this iteration                    :        0.320 s           0.319 s
  | Charge density update                      :        0.060 s           0.060 s
  | Density mixing & preconditioning           :        0.011 s           0.011 s
  | Hartree multipole update                   :        0.000 s           0.000 s
  | Hartree multipole summation                :        0.110 s           0.110 s
  | Integration                                :        0.036 s           0.037 s
  | Solution of K.-S. eqns.                    :        0.101 s           0.101 s
  | Total energy evaluation                    :        0.000 s           0.000 s

  Partial memory accounting:
  | Current value for overall tracked memory usage on task 0  :           2.587 MB
  | Peak value for overall tracked memory usage on task 0     :           3.089 MB after allocating wave
  | Largest tracked array allocation on task 0 so far         :           2.500 MB  when allocating +KS_eigenvector_complex
  Note:  These values currently only include a subset of arrays which are explicitly tracked.
  The "true" memory usage will be greater.
------------------------------------------------------------

------------------------------------------------------------
          Begin self-consistency iteration #    6

  Date     :  20190514, Time     :  105015.242
------------------------------------------------------------
  Evaluating new KS density using the density matrix
  Evaluating density matrix
  Time summed over all CPUs for getting density from density matrix: real work        0.062 s, elapsed        0.062 s
  Integration grid: deviation in total charge (<rho> - N_e) =  -3.961276E-13
  Pulay mixing of updated and previous charge densities.

  Evaluating partitioned Hartree potential by multipole expansion.
  | Analytical far-field extrapolation by fixed multipoles:
  | Hartree multipole sum: apparent total charge =   0.881230E-03
  Summing up the Hartree potential.
  Time summed over all CPUs for potential: real work        0.114 s, elapsed        0.114 s
  | RMS charge density error from multipole expansion :   0.914095E-03
  | Average real-space part of the electrostatic potential :     -0.31400632 eV

  Integrating Hamiltonian matrix: batch-based integration.
  Time summed over all CPUs for integration: real work        0.039 s, elapsed        0.039 s

  Updating Kohn-Sham eigenvalues, eigenvectors, occupation numbers, and Fermi level.
  Solving generalized eigenproblem

  Obtaining occupation numbers and chemical potential using ELSI.
  | Chemical potential (Fermi level):    -4.63716215eV
  What follows are estimated values for band gap, HOMO, LUMO, etc.
  | They are estimated on a discrete k-point grid and not necessarily exact.
  | For converged numbers, create a DOS and/or band structure plot on a denser k-grid.

  Highest occupied state (VBM) at     -4.64923971 eV (relative to internal zero)
  | Occupation number:      1.26735179
  | K-point:     672 at    0.500000    0.500000    0.583333 (in units of recip. lattice)

  Lowest unoccupied state (CBM) at    -4.63674488 eV (relative to internal zero)
  | Occupation number:      0.99058341
  | K-point:     705 at    0.583333    0.416667    0.583333 (in units of recip. lattice)

  ESTIMATED overall HOMO-LUMO gap:      0.01249483 eV between HOMO at k-point 672 and LUMO at k-point 705
  | This appears to be an indirect band gap.
  | Smallest direct gap :      0.13019030 eV for k_point 575 at    0.583333    0.416667    0.583333 (in units of recip. lattice)
  However, this system has fractional occupation numbers. Since we use a finite k-point grid,
  this material is metallic within the approximate finite broadening function (occupation_type)
  applied to determine the occupation numbers.

  Total energy components:
  | Sum of eigenvalues            :        -163.81863856 Ha       -4457.73196201 eV
  | XC energy correction          :         -19.58048445 Ha        -532.81209100 eV
  | XC potential correction       :          25.87153534 Ha         704.00029583 eV
  | Free-atom electrostatic energy:        -132.20671869 Ha       -3597.52785574 eV
  | Hartree energy correction     :           0.53280030 Ha          14.49823387 eV
  | Entropy correction            :          -0.00006591 Ha          -0.00179352 eV
  | ---------------------------
  | Total energy                  :        -289.20150605 Ha       -7869.57337905 eV
  | Total energy, T -> 0          :        -289.20157196 Ha       -7869.57517257 eV  <-- do not rely on this value for anything but (periodic) metals
  | Electronic free energy        :        -289.20163787 Ha       -7869.57696609 eV

  Derived energy quantities:
  | Kinetic energy                :         289.35783803 Ha        7873.82738872 eV
  | Electrostatic energy          :        -558.97885963 Ha      -15210.58867676 eV
  | Energy correction for multipole
  | error in Hartree potential    :           0.00014360 Ha           0.00390764 eV
  | Sum of eigenvalues per atom                           :       -4457.73196201 eV
  | Total energy (T->0) per atom                          :       -7869.57517257 eV  <-- do not rely on this value for anything but (periodic) metals
  | Electronic free energy per atom                       :       -7869.57696609 eV

  Self-consistency convergence accuracy:
  | Change of charge density      :  0.1949E-02
  | Change of sum of eigenvalues  : -0.1143E+00 eV
  | Change of total energy        : -0.5213E-04 eV

  End self-consistency iteration #     6       :  max(cpu_time)    wall_clock(cpu1)
  | Time for this iteration                    :        0.343 s           0.343 s
  | Charge density update                      :        0.070 s           0.070 s
  | Density mixing & preconditioning           :        0.015 s           0.015 s
  | Hartree multipole update                   :        0.000 s           0.000 s
  | Hartree multipole summation                :        0.115 s           0.116 s
  | Integration                                :        0.039 s           0.039 s
  | Solution of K.-S. eqns.                    :        0.103 s           0.103 s
  | Total energy evaluation                    :        0.000 s           0.000 s

  Partial memory accounting:
  | Current value for overall tracked memory usage on task 0  :           2.588 MB
  | Peak value for overall tracked memory usage on task 0     :           3.089 MB after allocating wave
  | Largest tracked array allocation on task 0 so far         :           2.500 MB  when allocating +KS_eigenvector_complex
  Note:  These values currently only include a subset of arrays which are explicitly tracked.
  The "true" memory usage will be greater.
------------------------------------------------------------

------------------------------------------------------------
          Begin self-consistency iteration #    7

  Date     :  20190514, Time     :  105015.586
------------------------------------------------------------
  Evaluating new KS density using the density matrix
  Evaluating density matrix
  Time summed over all CPUs for getting density from density matrix: real work        0.054 s, elapsed        0.054 s
  Integration grid: deviation in total charge (<rho> - N_e) =  -4.209966E-13
  Pulay mixing of updated and previous charge densities.

  Evaluating partitioned Hartree potential by multipole expansion.
  | Analytical far-field extrapolation by fixed multipoles:
  | Hartree multipole sum: apparent total charge =   0.810838E-04
  Summing up the Hartree potential.
  Time summed over all CPUs for potential: real work        0.109 s, elapsed        0.109 s
  | RMS charge density error from multipole expansion :   0.936160E-03
  | Average real-space part of the electrostatic potential :     -0.31682392 eV

  Integrating Hamiltonian matrix: batch-based integration.
  Time summed over all CPUs for integration: real work        0.039 s, elapsed        0.039 s

  Updating Kohn-Sham eigenvalues, eigenvectors, occupation numbers, and Fermi level.
  Solving generalized eigenproblem

  Obtaining occupation numbers and chemical potential using ELSI.
  | Chemical potential (Fermi level):    -4.64410939eV
  What follows are estimated values for band gap, HOMO, LUMO, etc.
  | They are estimated on a discrete k-point grid and not necessarily exact.
  | For converged numbers, create a DOS and/or band structure plot on a denser k-grid.

  Highest occupied state (VBM) at     -4.65631291 eV (relative to internal zero)
  | Occupation number:      1.27003160
  | K-point:     672 at    0.500000    0.500000    0.583333 (in units of recip. lattice)

  Lowest unoccupied state (CBM) at    -4.64383323 eV (relative to internal zero)
  | Occupation number:      0.99376762
  | K-point:     705 at    0.583333    0.416667    0.583333 (in units of recip. lattice)

  ESTIMATED overall HOMO-LUMO gap:      0.01247968 eV between HOMO at k-point 672 and LUMO at k-point 705
  | This appears to be an indirect band gap.
  | Smallest direct gap :      0.12999086 eV for k_point 575 at    0.583333    0.416667    0.583333 (in units of recip. lattice)
  However, this system has fractional occupation numbers. Since we use a finite k-point grid,
  this material is metallic within the approximate finite broadening function (occupation_type)
  applied to determine the occupation numbers.

  Total energy components:
  | Sum of eigenvalues            :        -163.82907321 Ha       -4458.01590338 eV
  | XC energy correction          :         -19.57981788 Ha        -532.79395264 eV
  | XC potential correction       :          25.87065594 Ha         703.97636604 eV
  | Free-atom electrostatic energy:        -132.20671869 Ha       -3597.52785574 eV
  | Hartree energy correction     :           0.54344413 Ha          14.78786730 eV
  | Entropy correction            :          -0.00006596 Ha          -0.00179493 eV
  | ---------------------------
  | Total energy                  :        -289.20150970 Ha       -7869.57347843 eV
  | Total energy, T -> 0          :        -289.20157566 Ha       -7869.57527336 eV  <-- do not rely on this value for anything but (periodic) metals
  | Electronic free energy        :        -289.20164163 Ha       -7869.57706829 eV

  Derived energy quantities:
  | Kinetic energy                :         289.35310199 Ha        7873.69851460 eV
  | Electrostatic energy          :        -558.97479382 Ha      -15210.47804039 eV
  | Energy correction for multipole
  | error in Hartree potential    :           0.00014324 Ha           0.00389783 eV
  | Sum of eigenvalues per atom                           :       -4458.01590338 eV
  | Total energy (T->0) per atom                          :       -7869.57527336 eV  <-- do not rely on this value for anything but (periodic) metals
  | Electronic free energy per atom                       :       -7869.57706829 eV

  Self-consistency convergence accuracy:
  | Change of charge density      :  0.1714E-02
  | Change of sum of eigenvalues  : -0.2839E+00 eV
  | Change of total energy        : -0.9938E-04 eV

  End self-consistency iteration #     7       :  max(cpu_time)    wall_clock(cpu1)
  | Time for this iteration                    :        0.334 s           0.334 s
  | Charge density update                      :        0.063 s           0.063 s
  | Density mixing & preconditioning           :        0.011 s           0.011 s
  | Hartree multipole update                   :        0.000 s           0.000 s
  | Hartree multipole summation                :        0.111 s           0.111 s
  | Integration                                :        0.039 s           0.039 s
  | Solution of K.-S. eqns.                    :        0.109 s           0.109 s
  | Total energy evaluation                    :        0.000 s           0.001 s

  Partial memory accounting:
  | Current value for overall tracked memory usage on task 0  :           2.588 MB
  | Peak value for overall tracked memory usage on task 0     :           3.089 MB after allocating wave
  | Largest tracked array allocation on task 0 so far         :           2.500 MB  when allocating +KS_eigenvector_complex
  Note:  These values currently only include a subset of arrays which are explicitly tracked.
  The "true" memory usage will be greater.
------------------------------------------------------------

------------------------------------------------------------
          Begin self-consistency iteration #    8

  Date     :  20190514, Time     :  105015.920
------------------------------------------------------------
  Evaluating new KS density using the density matrix
  Evaluating density matrix
  Time summed over all CPUs for getting density from density matrix: real work        0.061 s, elapsed        0.061 s
  Integration grid: deviation in total charge (<rho> - N_e) =  -2.842171E-13
  Pulay mixing of updated and previous charge densities.

  Evaluating partitioned Hartree potential by multipole expansion.
  | Analytical far-field extrapolation by fixed multipoles:
  | Hartree multipole sum: apparent total charge =   0.594357E-03
  Summing up the Hartree potential.
  Time summed over all CPUs for potential: real work        0.117 s, elapsed        0.117 s
  | RMS charge density error from multipole expansion :   0.956558E-03
  | Average real-space part of the electrostatic potential :     -0.30577386 eV

  Integrating Hamiltonian matrix: batch-based integration.
  Time summed over all CPUs for integration: real work        0.037 s, elapsed        0.037 s

  Updating Kohn-Sham eigenvalues, eigenvectors, occupation numbers, and Fermi level.
  Solving generalized eigenproblem

  Obtaining occupation numbers and chemical potential using ELSI.
  | Chemical potential (Fermi level):    -4.62450691eV
  What follows are estimated values for band gap, HOMO, LUMO, etc.
  | They are estimated on a discrete k-point grid and not necessarily exact.
  | For converged numbers, create a DOS and/or band structure plot on a denser k-grid.

  Highest occupied state (VBM) at     -4.63618461 eV (relative to internal zero)
  | Occupation number:      1.25882315
  | K-point:     574 at    0.416667    0.583333    0.500000 (in units of recip. lattice)

  Lowest unoccupied state (CBM) at    -4.62364688 eV (relative to internal zero)
  | Occupation number:      0.98059308
  | K-point:     705 at    0.583333    0.416667    0.583333 (in units of recip. lattice)

  ESTIMATED overall HOMO-LUMO gap:      0.01253773 eV between HOMO at k-point 574 and LUMO at k-point 705
  | This appears to be an indirect band gap.
  | Smallest direct gap :      0.13069242 eV for k_point 575 at    0.583333    0.416667    0.583333 (in units of recip. lattice)
  However, this system has fractional occupation numbers. Since we use a finite k-point grid,
  this material is metallic within the approximate finite broadening function (occupation_type)
  applied to determine the occupation numbers.

  Total energy components:
  | Sum of eigenvalues            :        -163.79542559 Ha       -4457.10030498 eV
  | XC energy correction          :         -19.58245129 Ha        -532.86561150 eV
  | XC potential correction       :          25.87412692 Ha         704.07081631 eV
  | Free-atom electrostatic energy:        -132.20671869 Ha       -3597.52785574 eV
  | Hartree energy correction     :           0.50896498 Ha          13.84964171 eV
  | Entropy correction            :          -0.00006574 Ha          -0.00178889 eV
  | ---------------------------
  | Total energy                  :        -289.20150366 Ha       -7869.57331420 eV
  | Total energy, T -> 0          :        -289.20156941 Ha       -7869.57510309 eV  <-- do not rely on this value for anything but (periodic) metals
  | Electronic free energy        :        -289.20163515 Ha       -7869.57689198 eV

  Derived energy quantities:
  | Kinetic energy                :         289.37247733 Ha        7874.22574447 eV
  | Electrostatic energy          :        -558.99152971 Ha      -15210.93344717 eV
  | Energy correction for multipole
  | error in Hartree potential    :           0.00013962 Ha           0.00379921 eV
  | Sum of eigenvalues per atom                           :       -4457.10030498 eV
  | Total energy (T->0) per atom                          :       -7869.57510309 eV  <-- do not rely on this value for anything but (periodic) metals
  | Electronic free energy per atom                       :       -7869.57689198 eV

  Self-consistency convergence accuracy:
  | Change of charge density      :  0.2320E-02
  | Change of sum of eigenvalues  :  0.9156E+00 eV
  | Change of total energy        :  0.1642E-03 eV

  End self-consistency iteration #     8       :  max(cpu_time)    wall_clock(cpu1)
  | Time for this iteration                    :        0.344 s           0.344 s
  | Charge density update                      :        0.071 s           0.071 s
  | Density mixing & preconditioning           :        0.011 s           0.011 s
  | Hartree multipole update                   :        0.002 s           0.002 s
  | Hartree multipole summation                :        0.119 s           0.119 s
  | Integration                                :        0.037 s           0.037 s
  | Solution of K.-S. eqns.                    :        0.104 s           0.104 s
  | Total energy evaluation                    :        0.000 s           0.000 s

  Partial memory accounting:
  | Current value for overall tracked memory usage on task 0  :           2.588 MB
  | Peak value for overall tracked memory usage on task 0     :           3.089 MB after allocating wave
  | Largest tracked array allocation on task 0 so far         :           2.500 MB  when allocating +KS_eigenvector_complex
  Note:  These values currently only include a subset of arrays which are explicitly tracked.
  The "true" memory usage will be greater.
------------------------------------------------------------

------------------------------------------------------------
          Begin self-consistency iteration #    9

  Date     :  20190514, Time     :  105016.264
------------------------------------------------------------
  Evaluating new KS density using the density matrix
  Evaluating density matrix
  Time summed over all CPUs for getting density from density matrix: real work        0.054 s, elapsed        0.054 s
  Integration grid: deviation in total charge (<rho> - N_e) =  -2.344791E-13
  Pulay mixing of updated and previous charge densities.

  Evaluating partitioned Hartree potential by multipole expansion.
  | Analytical far-field extrapolation by fixed multipoles:
  | Hartree multipole sum: apparent total charge =   0.820953E-04
  Summing up the Hartree potential.
  Time summed over all CPUs for potential: real work        0.117 s, elapsed        0.117 s
  | RMS charge density error from multipole expansion :   0.944795E-03
  | Average real-space part of the electrostatic potential :     -0.29890917 eV

  Integrating Hamiltonian matrix: batch-based integration.
  Time summed over all CPUs for integration: real work        0.047 s, elapsed        0.047 s

  Updating Kohn-Sham eigenvalues, eigenvectors, occupation numbers, and Fermi level.
  Solving generalized eigenproblem

  Obtaining occupation numbers and chemical potential using ELSI.
  | Chemical potential (Fermi level):    -4.61704860eV
  What follows are estimated values for band gap, HOMO, LUMO, etc.
  | They are estimated on a discrete k-point grid and not necessarily exact.
  | For converged numbers, create a DOS and/or band structure plot on a denser k-grid.

  Highest occupied state (VBM) at     -4.62854706 eV (relative to internal zero)
  | Occupation number:      1.25498957
  | K-point:     566 at    0.416667    0.500000    0.583333 (in units of recip. lattice)

  Lowest unoccupied state (CBM) at    -4.61598919 eV (relative to internal zero)
  | Occupation number:      0.97609511
  | K-point:     557 at    0.416667    0.416667    0.583333 (in units of recip. lattice)

  ESTIMATED overall HOMO-LUMO gap:      0.01255787 eV between HOMO at k-point 566 and LUMO at k-point 557
  | This appears to be an indirect band gap.
  | Smallest direct gap :      0.13094569 eV for k_point 575 at    0.416667    0.416667    0.583333 (in units of recip. lattice)
  However, this system has fractional occupation numbers. Since we use a finite k-point grid,
  this material is metallic within the approximate finite broadening function (occupation_type)
  applied to determine the occupation numbers.

  Total energy components:
  | Sum of eigenvalues            :        -163.78415041 Ha       -4456.79349170 eV
  | XC energy correction          :         -19.58350665 Ha        -532.89432925 eV
  | XC potential correction       :          25.87551346 Ha         704.10854588 eV
  | Free-atom electrostatic energy:        -132.20671869 Ha       -3597.52785574 eV
  | Hartree energy correction     :           0.49735698 Ha          13.53377202 eV
  | Entropy correction            :          -0.00006567 Ha          -0.00178687 eV
  | ---------------------------
  | Total energy                  :        -289.20150530 Ha       -7869.57335880 eV
  | Total energy, T -> 0          :        -289.20157097 Ha       -7869.57514568 eV  <-- do not rely on this value for anything but (periodic) metals
  | Electronic free energy        :        -289.20163664 Ha       -7869.57693255 eV

  Derived energy quantities:
  | Kinetic energy                :         289.37778512 Ha        7874.37017669 eV
  | Electrostatic energy          :        -558.99578378 Ha      -15211.04920624 eV
  | Energy correction for multipole
  | error in Hartree potential    :           0.00013790 Ha           0.00375236 eV
  | Sum of eigenvalues per atom                           :       -4456.79349170 eV
[...]
  | Hartree multipole update                   :        0.000 s           0.001 s
  | Hartree multipole summation                :        0.126 s           0.126 s
  | Integration                                :        0.033 s           0.032 s
  | Solution of K.-S. eqns.                    :        0.107 s           0.107 s
  | Total energy evaluation                    :        0.000 s           0.001 s

  Partial memory accounting:
  | Current value for overall tracked memory usage on task 0  :           2.589 MB
  | Peak value for overall tracked memory usage on task 0     :           3.089 MB after allocating wave
  | Largest tracked array allocation on task 0 so far         :           2.500 MB  when allocating +KS_eigenvector_complex
  Note:  These values currently only include a subset of arrays which are explicitly tracked.
  The "true" memory usage will be greater.
------------------------------------------------------------

------------------------------------------------------------
          Begin self-consistency iteration #   12

  Date     :  20190514, Time     :  105017.366
------------------------------------------------------------
  Evaluating new KS density using the density matrix
  Evaluating density matrix
  Time summed over all CPUs for getting density from density matrix: real work        0.055 s, elapsed        0.055 s
  Integration grid: deviation in total charge (<rho> - N_e) =  -2.735590E-13
  Pulay mixing of updated and previous charge densities.

  Evaluating partitioned Hartree potential by multipole expansion.
  | Analytical far-field extrapolation by fixed multipoles:
  | Hartree multipole sum: apparent total charge =  -0.272778E-04
  Summing up the Hartree potential.
  Time summed over all CPUs for potential: real work        0.115 s, elapsed        0.115 s
  | RMS charge density error from multipole expansion :   0.960005E-03
  | Average real-space part of the electrostatic potential :     -0.30343708 eV

  Integrating Hamiltonian matrix: batch-based integration.
  Time summed over all CPUs for integration: real work        0.040 s, elapsed        0.040 s

  Updating Kohn-Sham eigenvalues, eigenvectors, occupation numbers, and Fermi level.
  Solving generalized eigenproblem

  Obtaining occupation numbers and chemical potential using ELSI.
  | Chemical potential (Fermi level):    -4.62277000eV
  What follows are estimated values for band gap, HOMO, LUMO, etc.
  | They are estimated on a discrete k-point grid and not necessarily exact.
  | For converged numbers, create a DOS and/or band structure plot on a denser k-grid.

  Highest occupied state (VBM) at     -4.63437186 eV (relative to internal zero)
  | Occupation number:      1.25720187
  | K-point:     672 at    0.500000    0.500000    0.583333 (in units of recip. lattice)

  Lowest unoccupied state (CBM) at    -4.62182522 eV (relative to internal zero)
  | Occupation number:      0.97868133
  | K-point:     705 at    0.583333    0.416667    0.583333 (in units of recip. lattice)

  ESTIMATED overall HOMO-LUMO gap:      0.01254663 eV between HOMO at k-point 672 and LUMO at k-point 705
  | This appears to be an indirect band gap.
  | Smallest direct gap :      0.13078912 eV for k_point 575 at    0.583333    0.416667    0.583333 (in units of recip. lattice)
  However, this system has fractional occupation numbers. Since we use a finite k-point grid,
  this material is metallic within the approximate finite broadening function (occupation_type)
  applied to determine the occupation numbers.

  Total energy components:
  | Sum of eigenvalues            :        -163.79175958 Ha       -4457.00054795 eV
  | XC energy correction          :         -19.58289558 Ha        -532.87770117 eV
  | XC potential correction       :          25.87471073 Ha         704.08670256 eV
  | Free-atom electrostatic energy:        -132.20671869 Ha       -3597.52785574 eV
  | Hartree energy correction     :           0.50515923 Ha          13.74608209 eV
  | Entropy correction            :          -0.00006570 Ha          -0.00178792 eV
  | ---------------------------
  | Total energy                  :        -289.20150389 Ha       -7869.57332021 eV
  | Total energy, T -> 0          :        -289.20156959 Ha       -7869.57510813 eV  <-- do not rely on this value for anything but (periodic) metals
  | Electronic free energy        :        -289.20163530 Ha       -7869.57689604 eV

  Derived energy quantities:
  | Kinetic energy                :         289.37515938 Ha        7874.29872675 eV
  | Electrostatic energy          :        -558.99376769 Ha      -15210.99434579 eV
  | Energy correction for multipole
  | error in Hartree potential    :           0.00014031 Ha           0.00381791 eV
  | Sum of eigenvalues per atom                           :       -4457.00054795 eV
  | Total energy (T->0) per atom                          :       -7869.57510813 eV  <-- do not rely on this value for anything but (periodic) metals
  | Electronic free energy per atom                       :       -7869.57689604 eV

  Self-consistency convergence accuracy:
  | Change of charge density      :  0.1219E-04
  | Change of sum of eigenvalues  :  0.5361E-02 eV
  | Change of total energy        : -0.2699E-06 eV

  End self-consistency iteration #    12       :  max(cpu_time)    wall_clock(cpu1)
  | Time for this iteration                    :        0.342 s           0.342 s
  | Charge density update                      :        0.064 s           0.064 s
  | Density mixing & preconditioning           :        0.011 s           0.011 s
  | Hartree multipole update                   :        0.000 s           0.001 s
  | Hartree multipole summation                :        0.116 s           0.116 s
  | Integration                                :        0.040 s           0.040 s
  | Solution of K.-S. eqns.                    :        0.109 s           0.109 s
  | Total energy evaluation                    :        0.000 s           0.000 s

  Partial memory accounting:
  | Current value for overall tracked memory usage on task 0  :           2.589 MB
  | Peak value for overall tracked memory usage on task 0     :           3.089 MB after allocating wave
  | Largest tracked array allocation on task 0 so far         :           2.500 MB  when allocating +KS_eigenvector_complex
  Note:  These values currently only include a subset of arrays which are explicitly tracked.
  The "true" memory usage will be greater.
------------------------------------------------------------

------------------------------------------------------------
          Begin self-consistency iteration #   13

  Date     :  20190514, Time     :  105017.708
------------------------------------------------------------
  Evaluating new KS density using the density matrix
  Evaluating density matrix
  Time summed over all CPUs for getting density from density matrix: real work        0.059 s, elapsed        0.059 s
  Integration grid: deviation in total charge (<rho> - N_e) =  -2.096101E-13
  Pulay mixing of updated and previous charge densities.

  Evaluating partitioned Hartree potential by multipole expansion.
  | Analytical far-field extrapolation by fixed multipoles:
  | Hartree multipole sum: apparent total charge =  -0.272342E-04
  Summing up the Hartree potential.
  Time summed over all CPUs for potential: real work        0.110 s, elapsed        0.110 s
  | RMS charge density error from multipole expansion :   0.960002E-03
  | Average real-space part of the electrostatic potential :     -0.30343582 eV

  Integrating Hamiltonian matrix: batch-based integration.
  Time summed over all CPUs for integration: real work        0.036 s, elapsed        0.036 s

  Updating Kohn-Sham eigenvalues, eigenvectors, occupation numbers, and Fermi level.
  Solving generalized eigenproblem

  Obtaining occupation numbers and chemical potential using ELSI.
  | Chemical potential (Fermi level):    -4.62276803eV
  What follows are estimated values for band gap, HOMO, LUMO, etc.
  | They are estimated on a discrete k-point grid and not necessarily exact.
  | For converged numbers, create a DOS and/or band structure plot on a denser k-grid.

  Highest occupied state (VBM) at     -4.63436985 eV (relative to internal zero)
  | Occupation number:      1.25720091
  | K-point:     672 at    0.500000    0.500000    0.583333 (in units of recip. lattice)

  Lowest unoccupied state (CBM) at    -4.62182321 eV (relative to internal zero)
  | Occupation number:      0.97868019
  | K-point:     705 at    0.583333    0.416667    0.583333 (in units of recip. lattice)

  ESTIMATED overall HOMO-LUMO gap:      0.01254664 eV between HOMO at k-point 672 and LUMO at k-point 705
  | This appears to be an indirect band gap.
  | Smallest direct gap :      0.13078919 eV for k_point 575 at    0.583333    0.416667    0.583333 (in units of recip. lattice)
  However, this system has fractional occupation numbers. Since we use a finite k-point grid,
  this material is metallic within the approximate finite broadening function (occupation_type)
  applied to determine the occupation numbers.

  Total energy components:
  | Sum of eigenvalues            :        -163.79175646 Ha       -4457.00046302 eV
  | XC energy correction          :         -19.58289583 Ha        -532.87770793 eV
  | XC potential correction       :          25.87471106 Ha         704.08671146 eV
  | Free-atom electrostatic energy:        -132.20671869 Ha       -3597.52785574 eV
  | Hartree energy correction     :           0.50515603 Ha          13.74599501 eV
  | Entropy correction            :          -0.00006570 Ha          -0.00178791 eV
  | ---------------------------
  | Total energy                  :        -289.20150389 Ha       -7869.57332022 eV
  | Total energy, T -> 0          :        -289.20156959 Ha       -7869.57510814 eV  <-- do not rely on this value for anything but (periodic) metals
  | Electronic free energy        :        -289.20163530 Ha       -7869.57689605 eV

  Derived energy quantities:
  | Kinetic energy                :         289.37516102 Ha        7874.29877131 eV
  | Electrostatic energy          :        -558.99376908 Ha      -15210.99438360 eV
  | Energy correction for multipole
  | error in Hartree potential    :           0.00014031 Ha           0.00381790 eV
  | Sum of eigenvalues per atom                           :       -4457.00046302 eV
  | Total energy (T->0) per atom                          :       -7869.57510814 eV  <-- do not rely on this value for anything but (periodic) metals
  | Electronic free energy per atom                       :       -7869.57689605 eV

  Self-consistency convergence accuracy:
  | Change of charge density      :  0.3849E-07
  | Change of sum of eigenvalues  :  0.8493E-04 eV
  | Change of total energy        : -0.7601E-08 eV

  Preliminary charge convergence reached. Turning off preconditioner.

  Writing Kohn-Sham eigenvalues.
  K-point:       1 at    0.000000    0.000000    0.000000 (in units of recip. lattice)

  State    Occupation    Eigenvalue [Ha]    Eigenvalue [eV]
      1       2.00000         -65.539334        -1783.41603
      2       2.00000          -5.129041         -139.56830
      3       2.00000          -3.543821          -96.43228
      4       2.00000          -3.543821          -96.43228
      5       2.00000          -3.543821          -96.43228
      6       2.00000          -0.424534          -11.55217
      7       0.00000          -0.131176           -3.56947
      8       0.00000          -0.131176           -3.56947
      9       0.00000          -0.131176           -3.56947
     10       0.00000           0.029606            0.80562

  What follows are estimated values for band gap, HOMO, LUMO, etc.
  | They are estimated on a discrete k-point grid and not necessarily exact.
  | For converged numbers, create a DOS and/or band structure plot on a denser k-grid.

  Highest occupied state (VBM) at     -4.63436985 eV (relative to internal zero)
  | Occupation number:      1.25720091
  | K-point:     672 at    0.500000    0.500000    0.583333 (in units of recip. lattice)

  Lowest unoccupied state (CBM) at    -4.62182321 eV (relative to internal zero)
  | Occupation number:      0.97868019
  | K-point:     705 at    0.583333    0.416667    0.583333 (in units of recip. lattice)

  ESTIMATED overall HOMO-LUMO gap:      0.01254664 eV between HOMO at k-point 672 and LUMO at k-point 705
  | This appears to be an indirect band gap.
  | Smallest direct gap :      0.13078919 eV for k_point 575 at    0.583333    0.416667    0.583333 (in units of recip. lattice)
  However, this system has fractional occupation numbers. Since we use a finite k-point grid,
  this material is metallic within the approximate finite broadening function (occupation_type)
  applied to determine the occupation numbers.

  Self-consistency cycle converged.

  End self-consistency iteration #    13       :  max(cpu_time)    wall_clock(cpu1)
  | Time for this iteration                    :        0.330 s           0.330 s
  | Charge density update                      :        0.067 s           0.067 s
  | Density mixing                             :        0.009 s           0.009 s
  | Hartree multipole update                   :        0.001 s           0.002 s
  | Hartree multipole summation                :        0.112 s           0.112 s
  | Integration                                :        0.035 s           0.036 s
  | Solution of K.-S. eqns.                    :        0.104 s           0.104 s
  | Total energy evaluation                    :        0.000 s           0.000 s

  Partial memory accounting:
  | Current value for overall tracked memory usage on task 0  :           2.589 MB
  | Peak value for overall tracked memory usage on task 0     :           3.089 MB after allocating wave
  | Largest tracked array allocation on task 0 so far         :           2.500 MB  when allocating +KS_eigenvector_complex
  Note:  These values currently only include a subset of arrays which are explicitly tracked.
  The "true" memory usage will be greater.
------------------------------------------------------------

  Energy and forces in a compact form:
  | Total energy uncorrected      :         -0.786957332022081E+04 eV
  | Total energy corrected        :         -0.786957510813554E+04 eV  <-- do not rely on this value for anything but (periodic) metals
  | Electronic free energy        :         -0.786957689605028E+04 eV

  ------------------------------------ 
  Start decomposition of the XC Energy 
  ------------------------------------ 
  X and C from original XC functional choice 
  Hartree-Fock Energy :          0.000000000 Ha              0.000000000 eV
  X Energy            :        -18.533664635 Ha           -504.326674579 eV
  C Energy            :         -1.049231190 Ha            -28.551033350 eV
  Total XC Energy     :        -19.582895825 Ha           -532.877707929 eV
  ------------------------------------ 
  LDA X and C from self-consistent density 
  X Energy LDA        :        -18.533664635 Ha           -504.326674579 eV
  C Energy LDA        :         -1.049231190 Ha            -28.551033350 eV
  ------------------------------------ 
  End decomposition of the XC Energy 
  ------------------------------------ 

------------------------------------------------------------

------------------------------------------------------------------------------
  Final output of selected total energy values:

  The following output summarizes some interesting total energy values
  at the end of a run (AFTER all relaxation, molecular dynamics, etc.).

  | Total energy of the DFT / Hartree-Fock s.c.f. calculation      :          -7869.573320221 eV
  | Final zero-broadening corrected energy (caution - metals only) :          -7869.575108136 eV
  | For reference only, the value of 1 Hartree used in FHI-aims is :             27.211384500 eV

  Before relying on these values, please be sure to understand exactly which
  total energy value is referred to by a given number. Different objects may
  all carry the same name 'total energy'. Definitions:

  Total energy of the DFT / Hartree-Fock s.c.f. calculation:
  | Note that this energy does not include ANY quantities calculated after the
  | s.c.f. cycle, in particular not ANY RPA, MP2, etc. many-body perturbation terms.

  Final zero-broadening corrected energy:
  | For metallic systems only, a broadening of the occupation numbers at the Fermi
  | level can be extrapolated back to zero broadening by an electron-gas inspired
  | formula. For all systems that are not real metals, this value can be
  | meaningless and should be avoided.

------------------------------------------------------------------------------
  Methods described in the following list of references were used in this FHI-aims run.
  If you publish the results, please make sure to cite these reference if they apply.
  FHI-aims is an academic code, and for our developers (often, Ph.D. students
  and postdocs), scientific credit in the community is essential.
  Thank you for helping us!

  For any use of FHI-aims, please cite:

    Volker Blum, Ralf Gehrke, Felix Hanke, Paula Havu, Ville Havu,
    Xinguo Ren, Karsten Reuter, and Matthias Scheffler
    'Ab initio molecular simulations with numeric atom-centered orbitals'
    Computer Physics Communications 180, 2175-2196 (2009)
    http://dx.doi.org/10.1016/j.cpc.2009.06.022


  For the real-space grid partitioning and parallelization used in this calculation, please cite:

    Ville Havu, Volker Blum, Paula Havu, and Matthias Scheffler,
    'Efficient O(N) integration for all-electron electronic structure calculation'
    'using numerically tabulated basis functions'
    Journal of Computational Physics 228, 8367-8379 (2009).
    http://dx.doi.org/10.1016/j.jcp.2009.08.008

  Of course, there are many other important community references, e.g., those cited in the
  above references. Our list is limited to references that describe implementations in the
  FHI-aims code. The reason is purely practical (length of this list) - please credit others as well.

------------------------------------------------------------
          Leaving FHI-aims.
          Date     :  20190514, Time     :  105018.044

          Computational steps:
          | Number of self-consistency cycles          :           13
          | Number of SCF (re)initializations          :            1

          Detailed time accounting                     :  max(cpu_time)    wall_clock(cpu1)
          | Total time                                 :        4.833 s           4.834 s
          | Preparation time                           :        0.117 s           0.117 s
          | Boundary condition initalization           :        0.040 s           0.040 s
          | Grid partitioning                          :        0.008 s           0.008 s
          | Preloading free-atom quantities on grid    :        0.001 s           0.001 s
          | Free-atom superposition energy             :        0.006 s           0.007 s
          | Total time for integrations                :        0.553 s           0.554 s
          | Total time for solution of K.-S. equations :        1.617 s           1.617 s
          | Total time for density update              :        0.862 s           0.861 s
          | Total time for mixing & preconditioning    :        0.145 s           0.145 s
          | Total time for Hartree multipole update    :        0.008 s           0.009 s
          | Total time for Hartree multipole sum       :        1.445 s           1.444 s
          | Total time for total energy evaluation     :        0.003 s           0.003 s
          | Total time for scaled ZORA corrections     :        0.000 s           0.000 s

 This is a stub MPI_ALLREDUCE call.
 You should not be here. Check your
 setting on the use_mpi variable, or
 link against true MPI-libraries.
