------------------------------------------------------------
          Invoking FHI-aims ...
          Version 171221_1
          Compiled on 2019/05/06 at 14:26:40 on host ffph0xx.

          When using FHI-aims, please cite the following reference:

          Volker Blum, Ralf Gehrke, Felix Hanke, Paula Havu,
          Ville Havu, Xinguo Ren, Karsten Reuter, and Matthias Scheffler,
          'Ab Initio Molecular Simulations with Numeric Atom-Centered Orbitals',
          Computer Physics Communications 180, 2175-2196 (2009)

          For any questions about FHI-aims, please visit the aimsclub website
          with its forums and wiki. Contributions to both the forums and the
          wiki are warmly encouraged - they are for you, and everyone is welcome there.

------------------------------------------------------------



  Date     :  20190514, Time     :  123603.758
  Time zero on CPU 1             :   0.679000000000000E-03  s.
  Internal wall clock time zero  :           327069363.758  s.

  FHI-aims created a unique identifier for this run for later identification
  aims_uuid : EEFF040D-6D6D-4BD3-A1BE-CC3EAD368256


  Performing system and environment tests:
  *** Environment variable OMP_NUM_THREADS is not set
  *** For performance reasons you might want to set it to 1
  | Stacksize not measured: no C compiler

  Obtaining array dimensions for all initial allocations:
  
  -----------------------------------------------------------------------
  Parsing control.in (first pass over file, find array dimensions only).
  The contents of control.in will be repeated verbatim below
  unless switched off by setting 'verbatim_writeout .false.' .
  in the first line of control.in .
  -----------------------------------------------------------------------
  
  #--- method ---
  xc pw-lda
  spin none
  relativistic atomic_zora scalar
  #---
  
  #--- k-grid settings ---
  k_grid 12 12 12
  #---
  
  
  
  
  
  
  
  
  
  
  
  #-------------------------------------------------------------------------------
  #--- Species defaults for Si
  #-------------------------------------------------------------------------------
  
  ################################################################################
  #
  #  FHI-aims code project
  #  VB, Fritz-Haber Institut, 2009
  #
  #  Suggested "light" defaults for Si atom (to be pasted into control.in file)
  #  Be sure to double-check any results obtained with these settings for post-processing,
  #  e.g., with the "tight" defaults and larger basis sets.
  #
  ################################################################################
    species        Si
  #     global species definitions
      nucleus             14
      mass                28.0855
  #
      l_hartree           4
  #
      cut_pot             3.5          1.5  1.0
      basis_dep_cutoff    1e-4
  #
      radial_base         42 5.0
      radial_multiplier   1
      angular_grids       specified
        division   0.5866   50
        division   0.9616  110
        division   1.2249  194
        division   1.3795  302
  #      division   1.4810  434
  #      division   1.5529  590
  #      division   1.6284  770
  #      division   1.7077  974
  #      division   2.4068 1202
  #      outer_grid   974
        outer_grid 302
  ################################################################################
  #
  #  Definition of "minimal" basis
  #
  ################################################################################
  #     valence basis states
      valence      3  s   2.
      valence      3  p   2.
  #     ion occupancy
      ion_occ      3  s   1.
      ion_occ      3  p   1.
  ################################################################################
  #
  #  Suggested additional basis functions. For production calculations,
  #  uncomment them one after another (the most important basis functions are
  #  listed first).
  #
  #  Constructed for dimers: 1.75 A, 2.0 A, 2.25 A, 2.75 A, 3.75 A
  #
  ################################################################################
  #  "First tier" - improvements: -571.96 meV to -37.03 meV
       hydro 3 d 4.2
       hydro 2 p 1.4
  #     hydro 4 f 6.2
       ionic 3 s auto
  #  "Second tier" - improvements: -16.76 meV to -3.03 meV
  #     hydro 3 d 9
  #     hydro 5 g 9.4
  #     hydro 4 p 4
  #     hydro 1 s 0.65
  #  "Third tier" - improvements: -3.89 meV to -0.60 meV
  #     ionic 3 d auto
  #     hydro 3 s 2.6
  #     hydro 4 f 8.4
  #     hydro 3 d 3.4
  #     hydro 3 p 7.8
  #  "Fourth tier" - improvements: -0.33 meV to -0.11 meV
  #     hydro 2 p 1.6
  #     hydro 5 g 10.8
  #     hydro 5 f 11.2
  #     hydro 3 d 1
  #     hydro 4 s 4.5
  #  Further basis functions that fell out of the optimization - noise
  #  level... < -0.08 meV
  #     hydro 4 d 6.6
  #     hydro 5 g 16.4
  #     hydro 4 d 9
  
  -----------------------------------------------------------------------
  Completed first pass over input file control.in .
  -----------------------------------------------------------------------
  
  
  -----------------------------------------------------------------------
  Parsing geometry.in (first pass over file, find array dimensions only).
  The contents of geometry.in will be repeated verbatim below
  unless switched off by setting 'verbatim_writeout .false.' .
  in the first line of geometry.in .
  -----------------------------------------------------------------------
  
  lattice_vector  -2.350000   2.350000   2.350000
  lattice_vector   2.350000  -2.350000   2.350000
  lattice_vector   2.350000   2.350000  -2.350000
  atom_frac   0.000000   0.000000   0.000000 Si
  
  -----------------------------------------------------------------------
  Completed first pass over input file geometry.in .
  -----------------------------------------------------------------------
  

  Basic array size parameters:
  | Number of species                 :        1
  | Number of atoms                   :        1
  | Number of lattice vectors         :        3
  | Max. basis fn. angular momentum   :        2
  | Max. atomic/ionic basis occupied n:        3
  | Max. number of basis fn. types    :        3
  | Max. radial fns per species/type  :        5
  | Max. logarithmic grid size        :     1346
  | Max. radial integration grid size :       42
  | Max. angular integration grid size:      302
  | Max. angular grid division number :        8
  | Radial grid for Hartree potential :     1346
  | Number of spin channels           :        1

------------------------------------------------------------
          Reading file control.in.
------------------------------------------------------------
  XC: Using Perdew-Wang parametrisation of Ceperley-Alder LDA.
  Spin treatment: No spin polarisation.
  Scalar relativistic treatment of kinetic energy: on-site free-atom approximation to ZORA.
  Found k-point grid:        12        12        12

  Reading configuration options for species Si                  .
  | Found nuclear charge :  14.0000
  | Found atomic mass :    28.085500000000000      amu
  | Found l_max for Hartree potential  :   4
  | Found cutoff potl. onset [A], width [A], scale factor :    3.50000    1.50000    1.00000
  | Threshold for basis-dependent cutoff potential is   0.100000E-03
  | Found data for basic radial integration grid :    42 points, outermost radius =    5.000 A
  | Found multiplier for basic radial grid :   1
  | Found angular grid specification: user-specified.
  | Specified grid contains     5 separate shells.
  | Check grid settings after all constraints further below.
  | Found free-atom valence shell :  3 s   2.000
  | Found free-atom valence shell :  3 p   2.000
  | Found free-ion valence shell :  3 s   1.000
  | Found free-ion valence shell :  3 p   1.000
  | Found hydrogenic basis function :  3 d   4.200
  | Found hydrogenic basis function :  2 p   1.400
  | Found ionic basis function :  3 s , default cutoff radius.
  Species Si                  : Missing cutoff potential type.
  Defaulting to exp(1/x)/(1-x)^2 type cutoff potential.
  Species Si: No 'logarithmic' tag. Using default grid for free atom:
  | Default logarithmic grid data [bohr] : 0.1000E-03 0.1000E+03 0.1012E+01
  | Will include ionic basis functions of  2.0-fold positive Si                   ion.
  Species Si: On-site basis accuracy parameter (for Gram-Schmidt orthonormalisation) not specified.
  Using default value basis_acc =  0.1000000E-03.
  Species Si                  : Using default innermost maximum threshold i_radial=  2 for radial functions.
  Species Si                  : Default cutoff onset for free atom density etc. : 0.35000000E+01 AA.
  Species Si                  : Basic radial grid will be enhanced according to radial_multiplier =   1, to contain    42 grid points.

  Finished reading input file 'control.in'. Consistency checks are next.

  MPI_IN_PLACE appears to work with this MPI implementation.
  | Keeping use_mpi_in_place .true. (see manual).
  Target number of points in a grid batch is not set. Defaulting to  100
  Method for grid partitioning is not set. Defaulting to 'maxmin' partitioning.
  Batch size limit is not set. Defaulting to    200
  By default, will store active basis functions for each batch.
  If in need of memory, prune_basis_once .false. can be used to disable this option.
  communication_type for Hartree potential was not specified.
  Defaulting to calc_hartree .
 * Attention: 
 * You may want to set distributed_spline_storage to .true. in order to save memory.
 * This doesn't harm performance and is perfectly ok unless:
 * - you get error messages in postprocessing (about missing atoms in get_rho_multipole_spl)
 * - you need full spline storage in hirshfeld_analysis
  Defaulting to Pulay charge density mixer.
  Pulay mixer: Number of relevant iterations not set.
  Defaulting to    8 iterations.
  Pulay mixer: Number of initial linear mixing iterations not set.
  Defaulting to    0 iterations.
  Work space size for distributed Hartree potential not set.
  Defaulting to   0.200000E+03 MB.
  Mixing parameter for charge density mixing has not been set.
  Using default: charge_mix_param =     0.0500.
  The mixing parameter will be adjusted in iteration number     2 of the first full s.c.f. cycle only.
  Algorithm-dependent basis array size parameters:
  | n_max_pulay                         :        8
 * Notice: The s.c.f. convergence criterion sc_accuracy_rho was not provided.
 * We used to stop in this case, and ask the user to provide reasonable
 * scf convergence criteria. However, this led some users to employ criteria
 * that led to extremely long run times, e.g., for simple relaxation.
 * We now preset a default value for sc_accuracy_rho if it is not set.
 * You may still wish to check if this setting is too tight or too loose for your needs.
 * Based on n_atoms, FHI-aims chose sc_accuracy_rho =  0.100000E-05 .
  Maximum number of self-consistency iterations not provided.
  Presetting  1000 iterations.
  Presetting      1001 iterations before the initial mixing cycle
  is restarted anyway using the sc_init_iter criterion / keyword.
  Presetting a factor      1.000 between actual scf density residual
  and density convergence criterion sc_accuracy_rho below which sc_init_iter
  takes no effect.
 * No s.c.f. convergence criteria (sc_accuracy_*) were provided in control.in.
 * The run will proceed with a reasonable default guess, but please check whether.
 * the s.c.f. cycles seem to take too much or too little time.
  Calculation of forces was not defined in control.in. No forces will be calculated.
  Geometry relaxation not requested: no relaxation will be performed.
  No accuracy limit for integral partition fn. given. Defaulting to  0.1000E-14.
  No threshold value for u(r) in integrations given. Defaulting to  0.1000E-05.
  No occupation type (smearing scheme) given. Defaulting to Gaussian broadening, width =  0.1000E-01 eV.
  The width will be adjusted in iteration number     2 of the first full s.c.f. cycle only.
  S.C.F. convergence parameters will be adjusted in iteration number     2 of the first full s.c.f. cycle only.
  No accuracy for occupation numbers given. Defaulting to  0.1000E-12.
  No threshold value for occupation numbers given. Defaulting to  0.0000E+00.
  No accuracy for fermi level given. Defaulting to  0.1000E-19.
  Maximum # of iterations to find E_F not set. Defaulting to  200.
  Preferred method for the eigenvalue solver ('KS_method') not specified in 'control.in'.
  Defaulting to serial version, 'lapack_fast'.
  Will not use alltoall communication since running on < 1024 CPUs.
  Threshold for basis singularities not set.
  Default threshold for basis singularities:  0.1000E-04
  partition_type (choice of integration weights) for integrals was not specified.
  | Using a version of the partition function of Stratmann and coworkers ('stratmann_smoother').
  | At each grid point, the set of atoms used to build the partition table is smoothly restricted to
  | only those atoms whose free-atom density would be non-zero at that grid point.
  Partitioning for Hartree potential was not defined. Using partition_type for integrals.
  | Adjusted default value of keyword multip_moments_threshold to:       0.10000000E-11
  | This value may affect high angular momentum components of the Hartree potential in periodic systems.
  Angular momentum expansion for Kerker preconditioner not set explicitly.
  | Using default value of   0
  No explicit requirement for turning off preconditioner.
  | By default, it will be turned off when the charge convergence reaches
  | sc_accuracy_rho  =   0.100000E-05
  No special mixing parameter while Kerker preconditioner is on.
  Using default: charge_mix_param =     0.0500.
  No q(lm)/r^(l+1) cutoff set for long-range Hartree potential.
  | Using default value of  0.100000E-09 .
  | Verify using the multipole_threshold keyword.
  Defaulting to new monopole extrapolation.
  Density update method: automatic selection selected.
  Using density matrix based charge density update.
  Using density matrix based charge density update.
  Using packed matrix style: index .
  Defaulting to use time-reversal symmetry for k-point grid.
------------------------------------------------------------


------------------------------------------------------------
          Reading geometry description geometry.in.
------------------------------------------------------------
  Input structure read successfully.
  The structure contains        1 atoms,  and a total of         14.000 electrons.

  Input geometry:
  | Unit cell:
  |       -2.35000000        2.35000000        2.35000000
  |        2.35000000       -2.35000000        2.35000000
  |        2.35000000        2.35000000       -2.35000000
  | Atomic structure:
  |       Atom                x [A]            y [A]            z [A]
  |    1: Species Si            0.00000000        0.00000000        0.00000000

  Lattice parameters for 3D lattice (in Angstroms) :     4.070319    4.070319    4.070319
  Angle(s) between unit vectors (in degrees)      :   109.471221  109.471221  109.471221

  |

  | The smallest distance between any two atoms is         4.07031940 AA.
  |
  | The first atom of this pair is atom number                      1 .
  | The second atom of this pair is atom number                     1 .
  | Wigner-Seitz cell of the first atom image           0     0     1 .
  | (The Wigner-Seitz cell of the second atom is 0 0 0  by definition.)

  Quantities derived from the lattice vectors:
  | Reciprocal lattice vector 1:  0.000000  1.336848  1.336848
  | Reciprocal lattice vector 2:  1.336848  0.000000  1.336848
  | Reciprocal lattice vector 3:  1.336848  1.336848  0.000000
  | Unit cell volume                               :   0.519115E+02  A^3

  Range separation radius for Ewald summation (hartree_convergence_parameter):      5.00000000 bohr.

  Fractional coordinates:
                         L1                L2                L3
       atom_frac         0.00000000        0.00000000        0.00000000  Si

  Number of empty states per atom not set in control.in - providing a guess from actual geometry.
  | Total number of empty states used during s.c.f. cycle:        3
  If you use a very high smearing, use empty_states (per atom!) in control.in to increase this value.

  Structure-dependent array size parameters: 
  | Maximum number of distinct radial functions  :        8
  | Maximum number of basis functions            :       18
  | Number of Kohn-Sham states (occupied + empty):       10
------------------------------------------------------------

------------------------------------------------------------
          Preparing all fixed parts of the calculation.
------------------------------------------------------------
  Determining machine precision:
     2.2250738585072014E-308
  Setting up grids for atomic and cluster calculations.

  Creating wave function, potential, and density for free atoms.

  Species: Si

  List of occupied orbitals and eigenvalues:
    n    l              occ      energy [Ha]    energy [eV]
    1    0           2.0000       -65.491668     -1782.1190
    2    0           2.0000        -5.087967      -138.4506
    3    0           2.0000        -0.391471       -10.6525
    2    1           6.0000        -3.502246       -95.3010
    3    1           2.0000        -0.143943        -3.9169

  Creating fixed part of basis set: Ionic, confined, hydrogenic.

  Si                   ion:

  List of free ionic orbitals and eigenvalues:
    n    l      energy [Ha]    energy [eV]
    1    0       -66.364436     -1805.8682
    2    0        -5.935799      -161.5213
    3    0        -1.078166       -29.3384
    2    1        -4.351123      -118.4001
    3    1        -0.781733       -21.2720


  List of ionic basis orbitals and eigenvalues:
    n    l      energy [Ha]    energy [eV]    outer radius [A]
    3    0        -1.078146       -29.3378       4.214062


  Si                   hydrogenic:

  List of hydrogenic basis orbitals: 
    n    l      effective z      eigenvalue [eV]  inner max. [A]     outer max. [A]     outer radius [A]   
    3    2         4.200000       -26.6624           1.139231           1.139231           4.534782
    2    1         1.400000        -6.4613           1.472672           1.472672           4.590560


  Adding cutoff potential to free-atom effective potential.
  Creating atomic-like basis functions for current effective potential.

  Species Si                  :

  List of atomic basis orbitals and eigenvalues:
    n    l      energy [Ha]    energy [eV]    outer radius [A]
    1    0       -65.491668     -1782.1190       0.789468
    2    0        -5.087967      -138.4506       2.815114
    3    0        -0.391471       -10.6525       4.534782
    2    1        -3.502246       -95.3010       3.259919
    3    1        -0.143943        -3.9169       4.590560

  Assembling full basis from fixed parts.
  | Species Si :   atomic orbital   1 s accepted.
  | Species Si :   atomic orbital   2 s accepted.
  | Species Si :    ionic orbital   3 s accepted.
  | Species Si :   atomic orbital   3 s accepted.
  | Species Si :   atomic orbital   2 p accepted.
  | Species Si :   atomic orbital   3 p accepted.
  | Species Si :    hydro orbital   2 p accepted.
  | Species Si :    hydro orbital   3 d accepted.

  Basis size parameters after reduction:
  | Total number of radial functions:        8
  | Total number of basis functions :       18

  Per-task memory consumption for arrays in subroutine allocate_ext:
  |           2.757468MB.
  Testing on-site integration grid accuracy.
  |  Species  Function  <phi|h_atom|phi> (log., in eV)  <phi|h_atom|phi> (rad., in eV)
           1        1              -1782.1189727076              -1782.1182429251
           1        2               -138.4506350693               -138.4506310079
           1        3                -10.3030408815                -10.3029120678
           1        4                  5.0238999146                  4.9457540310 ***
           1        5                -95.3009689499                -95.3009689315
           1        6                 -3.9266496564                 -3.9420918374
           1        7                  6.3453628447                  6.1632372158 ***
           1        8                  6.2883050744                  6.2861881409
 * Note: Onsite integrals marked "***" above are less accurate than
 * onsite_accuracy_threshold =    0.03000 eV. Usually, this is harmless.
 * When in doubt, tighten the "radial" and/or "radial_multiplier" flags to check.

  Preparing densities etc. for the partition functions (integrals / Hartree potential).

  Preparations completed.
  max(cpu_time)          :      0.103 s.
  Wall clock time (cpu1) :      0.102 s.
------------------------------------------------------------

------------------------------------------------------------
          Begin self-consistency loop: Initialization.

          Date     :  20190514, Time     :  123603.861
------------------------------------------------------------

  Initializing index lists of integration centers etc. from given atomic structure:
  Mapping all atomic coordinates to central unit cell.

  Initializing the k-points
          Using symmetry for reducing the k-points
  | k-points reduced from:     1728 to      868
  | Number of k-points                             :       868
  The eigenvectors in the calculations are COMPLEX.
  | K-points in task   0:       868
  | Number of basis functions in the Hamiltonian integrals :       430
  | Number of basis functions in a single unit cell        :        18
  | Number of centers in hartree potential         :       411
  | Number of centers in hartree multipole         :       113
  | Number of centers in electron density summation:        65
  | Number of centers in basis integrals           :        65
  | Number of centers in integrals                 :        51
  | Number of centers in hamiltonian               :        65
  | Consuming        895 KiB for k_phase.
  | Number of super-cells (origin) [n_cells]                     :        2197
  | Number of super-cells (after PM_index) [n_cells]             :          66
  | Number of super-cells in hamiltonian [n_cells_in_hamiltonian]:          66
  | Size of matrix packed + index [n_hamiltonian_matrix_size] :        9008
  Partitioning the integration grid into batches with maxmin method.
  | Maximal weight for a single point:     1.000
  | Minimal weight for a single point:     0.423
  | Number of batches:       64
  | Maximal batch size:      90
  | Minimal batch size:      85
  | Average batch size:      87.562
  | Standard deviation of batch sizes:       1.488
  Initializing partition tables, free-atom densities, potentials, etc. across the integration grid (initialize_grid_storage).
  | initialize_grid_storage: Actual outermost partition radius vs. multipole_radius_free
  | (-- VB: in principle, multipole_radius_free should be larger, hence this output)
  | Species        1: Confinement radius =              4.999999999999999 AA, multipole_radius_free =              5.000694715736543 AA.
  | Species        1: outer_partition_radius set to              5.000694715736543 AA .
  | Original list of interatomic distances with          65 x         65 entries is created.
  | Net number of integration points:     5604
  | of which are non-zero points    :     5312
  | Numerical average free-atom electrostatic potential    :     -5.06756676 eV
  Renormalizing the initial density to the exact electron count on the 3D integration grid.
  | Initial density: Formal number of electrons (from input files) :      14.0000000000
  | Integrated number of electrons on 3D grid     :      13.9999759497
  | Charge integration error                      :      -0.0000240503
  | Normalization factor for density and gradient :       1.0000017179
  Obtaining max. number of non-zero basis functions in each batch (get_n_compute_maxes).
  | Maximal number of non-zero basis functions:      217 in task     0
  Allocating        2.500 MB for KS_eigenvector_complex
  Integrating Hamiltonian matrix: batch-based integration.
  Time summed over all CPUs for integration: real work        0.072 s, elapsed        0.072 s
  Integrating overlap matrix.
  Time summed over all CPUs for integration: real work        0.051 s, elapsed        0.051 s
  Decreasing sparse matrix size:
   Tolerance:   9.9999998245167004E-014
   Hamiltonian matrix
  | Array has     6295 nonzero elements out of     9008 elements
  | Sparsity factor is 0.301
   Overlap matrix
  | Array has     5911 nonzero elements out of     9008 elements
  | Sparsity factor is 0.344
  New size of hamiltonian matrix:        6434

  Updating Kohn-Sham eigenvalues, eigenvectors, occupation numbers, and Fermi level.
  Solving generalized eigenproblem
  Transforming overlap matrix and checking for singularities.
  Overlap matrix is nonsingular at first k-point:
  | Lowest eigenvalue:  0.446425E-01

  Obtaining occupation numbers and chemical potential using ELSI.
  | Chemical potential (Fermi level):    -4.50861646eV
  Writing Kohn-Sham eigenvalues.
  K-point:       1 at    0.000000    0.000000    0.000000 (in units of recip. lattice)

  State    Occupation    Eigenvalue [Ha]    Eigenvalue [eV]
      1       2.00000         -65.491672        -1782.11906
      2       2.00000          -5.087977         -138.45091
      3       2.00000          -3.502257          -95.30127
      4       2.00000          -3.502257          -95.30127
      5       2.00000          -3.502257          -95.30127
      6       2.00000          -0.438118          -11.92181
      7       0.00000          -0.078996           -2.14958
      8       0.00000          -0.078996           -2.14958
      9       0.00000          -0.078996           -2.14958
     10       0.00000           0.072868            1.98283

  What follows are estimated values for band gap, HOMO, LUMO, etc.
  | They are estimated on a discrete k-point grid and not necessarily exact.
  | For converged numbers, create a DOS and/or band structure plot on a denser k-grid.

  Highest occupied state (VBM) at     -4.51467570 eV (relative to internal zero)
  | Occupation number:      1.60850270
  | K-point:     574 at    0.416667    0.583333    0.500000 (in units of recip. lattice)

  Lowest unoccupied state (CBM) at    -4.50664787 eV (relative to internal zero)
  | Occupation number:      0.78070445
  | K-point:     770 at    0.750000    0.250000    0.250000 (in units of recip. lattice)

  ESTIMATED overall HOMO-LUMO gap:      0.00802783 eV between HOMO at k-point 574 and LUMO at k-point 770
  | This appears to be an indirect band gap.
  | Smallest direct gap :      0.04659577 eV for k_point 662 at    0.750000    0.250000    0.250000 (in units of recip. lattice)
  However, this system has fractional occupation numbers. Since we use a finite k-point grid,
  this material is metallic within the approximate finite broadening function (occupation_type)
  applied to determine the occupation numbers.
  Calculating total energy contributions from superposition of free atom densities.

  Total energy components:
  | Sum of eigenvalues            :        -163.35466596 Ha       -4445.10662530 eV
  | XC energy correction          :         -19.64449434 Ha        -534.55388885 eV
  | XC potential correction       :          25.95542045 Ha         706.28292564 eV
  | Free-atom electrostatic energy:        -132.20141171 Ha       -3597.38344543 eV
  | Hartree energy correction     :          -0.00000000 Ha          -0.00000000 eV
  | Entropy correction            :          -0.00000188 Ha          -0.00005119 eV
  | ---------------------------
  | Total energy                  :        -289.24515156 Ha       -7870.76103394 eV
  | Total energy, T -> 0          :        -289.24515344 Ha       -7870.76108514 eV  <-- do not rely on this value for anything but (periodic) metals
  | Electronic free energy        :        -289.24515533 Ha       -7870.76113633 eV

  Derived energy quantities:
  | Kinetic energy                :         289.54653035 Ha        7878.96196801 eV
  | Electrostatic energy          :        -559.14718757 Ha      -15215.16911310 eV
  | Energy correction for multipole
  | error in Hartree potential    :           0.00000000 Ha           0.00000000 eV
  | Sum of eigenvalues per atom                           :       -4445.10662530 eV
  | Total energy (T->0) per atom                          :       -7870.76108514 eV  <-- do not rely on this value for anything but (periodic) metals
  | Electronic free energy per atom                       :       -7870.76113633 eV
  Initialize hartree_potential_storage
  Max. number of atoms included in rho_multipole:            1

  End scf initialization - timings             :  max(cpu_time)    wall_clock(cpu1)
  | Time for scf. initialization               :        0.428 s           0.428 s
  | Boundary condition initialization          :        0.034 s           0.034 s
  | Integration                                :        0.124 s           0.123 s
  | Solution of K.-S. eqns.                    :        0.232 s           0.232 s
  | Grid partitioning                          :        0.008 s           0.008 s
  | Preloading free-atom quantities on grid    :        0.001 s           0.001 s
  | Free-atom superposition energy             :        0.008 s           0.008 s
  | Total energy evaluation                    :        0.000 s           0.000 s

  Partial memory accounting:
  | Current value for overall tracked memory usage on task 0  :           2.629 MB
  | Peak value for overall tracked memory usage on task 0     :           3.526 MB after allocating wave
  | Largest tracked array allocation on task 0 so far         :           2.500 MB  when allocating +KS_eigenvector_complex
  Note:  These values currently only include a subset of arrays which are explicitly tracked.
  The "true" memory usage will be greater.
------------------------------------------------------------

------------------------------------------------------------
          Begin self-consistency iteration #    1

  Date     :  20190514, Time     :  123604.289
------------------------------------------------------------
  Evaluating new KS density using the density matrix
  Evaluating density matrix
  Time summed over all CPUs for getting density from density matrix: real work        0.114 s, elapsed        0.114 s
  Integration grid: deviation in total charge (<rho> - N_e) =  -2.629008E-13
  Pulay mixing of updated and previous charge densities.

  Evaluating partitioned Hartree potential by multipole expansion.
  | Analytical far-field extrapolation by fixed multipoles:
  | Hartree multipole sum: apparent total charge =  -0.178659E-03
  Summing up the Hartree potential.
  | Estimated reciprocal-space cutoff momentum G_max:         1.84432723 bohr^-1 .
  | Reciprocal lattice points for long-range Hartree potential:      42
  Time summed over all CPUs for potential: real work        0.114 s, elapsed        0.114 s
  | RMS charge density error from multipole expansion :   0.530661E-04
  | Average real-space part of the electrostatic potential :     -0.01265833 eV

  Integrating Hamiltonian matrix: batch-based integration.
  Time summed over all CPUs for integration: real work        0.074 s, elapsed        0.074 s

  Updating Kohn-Sham eigenvalues, eigenvectors, occupation numbers, and Fermi level.
  Solving generalized eigenproblem

  Obtaining occupation numbers and chemical potential using ELSI.
  | Chemical potential (Fermi level):    -4.52030523eV
  Writing Kohn-Sham eigenvalues.
  K-point:       1 at    0.000000    0.000000    0.000000 (in units of recip. lattice)

  State    Occupation    Eigenvalue [Ha]    Eigenvalue [eV]
      1       2.00000         -65.494229        -1782.18866
      2       2.00000          -5.089865         -138.50227
      3       2.00000          -3.504195          -95.35401
      4       2.00000          -3.504195          -95.35401
      5       2.00000          -3.504195          -95.35401
      6       2.00000          -0.438662          -11.93660
      7       0.00000          -0.079591           -2.16579
      8       0.00000          -0.079591           -2.16579
      9       0.00000          -0.079591           -2.16579
     10       0.00000           0.072328            1.96813

  What follows are estimated values for band gap, HOMO, LUMO, etc.
  | They are estimated on a discrete k-point grid and not necessarily exact.
  | For converged numbers, create a DOS and/or band structure plot on a denser k-grid.

  Highest occupied state (VBM) at     -4.52679176 eV (relative to internal zero)
  | Occupation number:      1.64103282
  | K-point:     663 at    0.500000    0.416667    0.583333 (in units of recip. lattice)

  Lowest unoccupied state (CBM) at    -4.51925807 eV (relative to internal zero)
  | Occupation number:      0.88227187
  | K-point:     374 at    0.250000    0.750000    0.250000 (in units of recip. lattice)

  ESTIMATED overall HOMO-LUMO gap:      0.00753369 eV between HOMO at k-point 663 and LUMO at k-point 374
  | This appears to be an indirect band gap.
  | Smallest direct gap :      0.04651191 eV for k_point 663 at    0.250000    0.750000    0.250000 (in units of recip. lattice)
  However, this system has fractional occupation numbers. Since we use a finite k-point grid,
  this material is metallic within the approximate finite broadening function (occupation_type)
  applied to determine the occupation numbers.

  Total energy components:
  | Sum of eigenvalues            :        -163.37724902 Ha       -4445.72114158 eV
  | XC energy correction          :         -19.64245331 Ha        -534.49834956 eV
  | XC potential correction       :          25.95272994 Ha         706.20971315 eV
  | Free-atom electrostatic energy:        -132.20141171 Ha       -3597.38344543 eV
  | Hartree energy correction     :           0.02336346 Ha           0.63575222 eV
  | Entropy correction            :          -0.00000180 Ha          -0.00004901 eV
  | ---------------------------
  | Total energy                  :        -289.24502063 Ha       -7870.75747120 eV
  | Total energy, T -> 0          :        -289.24502244 Ha       -7870.75752022 eV  <-- do not rely on this value for anything but (periodic) metals
  | Electronic free energy        :        -289.24502424 Ha       -7870.75756923 eV

  Derived energy quantities:
  | Kinetic energy                :         289.53136193 Ha        7878.54921433 eV
  | Electrostatic energy          :        -559.13392926 Ha      -15214.80833597 eV
  | Energy correction for multipole
  | error in Hartree potential    :           0.00000562 Ha           0.00015283 eV
  | Sum of eigenvalues per atom                           :       -4445.72114158 eV
  | Total energy (T->0) per atom                          :       -7870.75752022 eV  <-- do not rely on this value for anything but (periodic) metals
  | Electronic free energy per atom                       :       -7870.75756923 eV

  Self-consistency convergence accuracy:
  | Change of charge density      :  0.3151E-01
  | Change of sum of eigenvalues  : -0.6145E+00 eV
  | Change of total energy        :  0.3563E-02 eV

  End self-consistency iteration #     1       :  max(cpu_time)    wall_clock(cpu1)
  | Time for this iteration                    :        0.439 s           0.443 s
  | Charge density update                      :        0.125 s           0.125 s
  | Density mixing & preconditioning           :        0.015 s           0.015 s
  | Hartree multipole update                   :        0.000 s           0.000 s
  | Hartree multipole summation                :        0.116 s           0.116 s
  | Integration                                :        0.074 s           0.074 s
  | Solution of K.-S. eqns.                    :        0.109 s           0.113 s
  | Total energy evaluation                    :        0.000 s           0.000 s

  Partial memory accounting:
  | Current value for overall tracked memory usage on task 0  :           2.629 MB
  | Peak value for overall tracked memory usage on task 0     :           3.526 MB after allocating wave
  | Largest tracked array allocation on task 0 so far         :           2.500 MB  when allocating +KS_eigenvector_complex
  Note:  These values currently only include a subset of arrays which are explicitly tracked.
  The "true" memory usage will be greater.
------------------------------------------------------------

------------------------------------------------------------
          Begin self-consistency iteration #    2

  Date     :  20190514, Time     :  123604.732
------------------------------------------------------------
  Evaluating new KS density using the density matrix
  Evaluating density matrix
  Time summed over all CPUs for getting density from density matrix: real work        0.118 s, elapsed        0.118 s
  Integration grid: deviation in total charge (<rho> - N_e) =  -2.433609E-13
  Pulay mixing of updated and previous charge densities.

  Evaluating partitioned Hartree potential by multipole expansion.
  | Analytical far-field extrapolation by fixed multipoles:
  | Hartree multipole sum: apparent total charge =  -0.303322E-02
  Summing up the Hartree potential.
  Time summed over all CPUs for potential: real work        0.140 s, elapsed        0.141 s
  | RMS charge density error from multipole expansion :   0.103209E-02
  | Average real-space part of the electrostatic potential :     -0.24799164 eV

  Integrating Hamiltonian matrix: batch-based integration.
  Time summed over all CPUs for integration: real work        0.074 s, elapsed        0.074 s

  Updating Kohn-Sham eigenvalues, eigenvectors, occupation numbers, and Fermi level.
  Solving generalized eigenproblem

  Obtaining occupation numbers and chemical potential using ELSI.
  | Chemical potential (Fermi level):    -4.73727382eV
  What follows are estimated values for band gap, HOMO, LUMO, etc.
  | They are estimated on a discrete k-point grid and not necessarily exact.
  | For converged numbers, create a DOS and/or band structure plot on a denser k-grid.

  Highest occupied state (VBM) at     -4.74786752 eV (relative to internal zero)
  | Occupation number:      1.86591235
  | K-point:     374 at    0.250000    0.750000    0.250000 (in units of recip. lattice)

  Lowest unoccupied state (CBM) at    -4.71734926 eV (relative to internal zero)
  | Occupation number:      0.00483602
  | K-point:     338 at    0.250000    0.416667    0.250000 (in units of recip. lattice)

  ESTIMATED overall HOMO-LUMO gap:      0.03051826 eV between HOMO at k-point 374 and LUMO at k-point 338
  | This appears to be an indirect band gap.
  | Smallest direct gap :      0.04506363 eV for k_point 662 at    0.250000    0.416667    0.250000 (in units of recip. lattice)
  However, this system has fractional occupation numbers. Since we use a finite k-point grid,
  this material is metallic within the approximate finite broadening function (occupation_type)
  applied to determine the occupation numbers.

  Checking to see if s.c.f. parameters should be adjusted.
  Adjusted the Pulay mixing parameter (charge_mix_param) for an expected low-gap system. New value:   0.020000 .
  Adjusted the occupation broadening width for an expected low-gap system. New value:      0.05000000 eV.

  Total energy components:
  | Sum of eigenvalues            :        -163.79463062 Ha       -4457.07867279 eV
  | XC energy correction          :         -19.60608682 Ha        -533.50876701 eV
  | XC potential correction       :          25.90478833 Ha         704.90515555 eV
  | Free-atom electrostatic energy:        -132.20141171 Ha       -3597.38344543 eV
  | Hartree energy correction     :           0.45371701 Ha          12.34626792 eV
  | Entropy correction            :          -0.00003451 Ha          -0.00093899 eV
  | ---------------------------
  | Total energy                  :        -289.24362381 Ha       -7870.71946177 eV
  | Total energy, T -> 0          :        -289.24365832 Ha       -7870.72040076 eV  <-- do not rely on this value for anything but (periodic) metals
  | Electronic free energy        :        -289.24369283 Ha       -7870.72133974 eV

  Derived energy quantities:
  | Kinetic energy                :         289.24423457 Ha        7870.73608119 eV
  | Electrostatic energy          :        -558.88177156 Ha      -15207.94677595 eV
  | Energy correction for multipole
  | error in Hartree potential    :           0.00012410 Ha           0.00337702 eV
  | Sum of eigenvalues per atom                           :       -4457.07867279 eV
  | Total energy (T->0) per atom                          :       -7870.72040076 eV  <-- do not rely on this value for anything but (periodic) metals
  | Electronic free energy per atom                       :       -7870.72133974 eV

  Self-consistency convergence accuracy:
  | Change of charge density      :  0.2998E-01
  | Change of sum of eigenvalues  : -0.1136E+02 eV
  | Change of total energy        :  0.3801E-01 eV

  End self-consistency iteration #     2       :  max(cpu_time)    wall_clock(cpu1)
  | Time for this iteration                    :        0.461 s           0.461 s
  | Charge density update                      :        0.128 s           0.128 s
  | Density mixing & preconditioning           :        0.015 s           0.014 s
  | Hartree multipole update                   :        0.000 s           0.001 s
  | Hartree multipole summation                :        0.142 s           0.142 s
  | Integration                                :        0.074 s           0.074 s
  | Solution of K.-S. eqns.                    :        0.102 s           0.101 s
  | Total energy evaluation                    :        0.000 s           0.000 s

  Partial memory accounting:
  | Current value for overall tracked memory usage on task 0  :           2.630 MB
  | Peak value for overall tracked memory usage on task 0     :           3.526 MB after allocating wave
  | Largest tracked array allocation on task 0 so far         :           2.500 MB  when allocating +KS_eigenvector_complex
  Note:  These values currently only include a subset of arrays which are explicitly tracked.
  The "true" memory usage will be greater.
------------------------------------------------------------

------------------------------------------------------------
          Begin self-consistency iteration #    3

  Date     :  20190514, Time     :  123605.193
------------------------------------------------------------
  Evaluating new KS density using the density matrix
  Evaluating density matrix
  Time summed over all CPUs for getting density from density matrix: real work        0.114 s, elapsed        0.114 s
  Integration grid: deviation in total charge (<rho> - N_e) =  -4.334311E-13
  Pulay mixing of updated and previous charge densities.

  Evaluating partitioned Hartree potential by multipole expansion.
  | Analytical far-field extrapolation by fixed multipoles:
  | Hartree multipole sum: apparent total charge =  -0.362500E-02
  Summing up the Hartree potential.
  Time summed over all CPUs for potential: real work        0.142 s, elapsed        0.142 s
  | RMS charge density error from multipole expansion :   0.123727E-02
  | Average real-space part of the electrostatic potential :     -0.27757045 eV

  Integrating Hamiltonian matrix: batch-based integration.
  Time summed over all CPUs for integration: real work        0.074 s, elapsed        0.074 s

  Updating Kohn-Sham eigenvalues, eigenvectors, occupation numbers, and Fermi level.
  Solving generalized eigenproblem

  Obtaining occupation numbers and chemical potential using ELSI.
  | Chemical potential (Fermi level):    -4.75431969eV
  What follows are estimated values for band gap, HOMO, LUMO, etc.
  | They are estimated on a discrete k-point grid and not necessarily exact.
  | For converged numbers, create a DOS and/or band structure plot on a denser k-grid.

  Highest occupied state (VBM) at     -4.76214716 eV (relative to internal zero)
  | Occupation number:      1.17521462
  | K-point:     662 at    0.500000    0.416667    0.500000 (in units of recip. lattice)

  Lowest unoccupied state (CBM) at    -4.73068157 eV (relative to internal zero)
  | Occupation number:      0.50375903
  | K-point:     718 at    0.583333    0.750000    0.916667 (in units of recip. lattice)

  ESTIMATED overall HOMO-LUMO gap:      0.03146559 eV between HOMO at k-point 662 and LUMO at k-point 718
  | This appears to be an indirect band gap.
  | Smallest direct gap :      0.04501281 eV for k_point 662 at    0.583333    0.750000    0.916667 (in units of recip. lattice)
  However, this system has fractional occupation numbers. Since we use a finite k-point grid,
  this material is metallic within the approximate finite broadening function (occupation_type)
  applied to determine the occupation numbers.

  Total energy components:
  | Sum of eigenvalues            :        -163.76034005 Ha       -4456.14557906 eV
  | XC energy correction          :         -19.61122299 Ha        -533.64852936 eV
  | XC potential correction       :          25.91164204 Ha         705.09165470 eV
  | Free-atom electrostatic energy:        -132.20141171 Ha       -3597.38344543 eV
  | Hartree energy correction     :           0.41775514 Ha          11.36769574 eV
  | Entropy correction            :          -0.00003350 Ha          -0.00091148 eV
  | ---------------------------
  | Total energy                  :        -289.24357757 Ha       -7870.71820341 eV
  | Total energy, T -> 0          :        -289.24361107 Ha       -7870.71911489 eV  <-- do not rely on this value for anything but (periodic) metals
  | Electronic free energy        :        -289.24364456 Ha       -7870.72002637 eV

  Derived energy quantities:
  | Kinetic energy                :         289.37445449 Ha        7874.27954562 eV
  | Electrostatic energy          :        -559.00680907 Ha      -15211.34921967 eV
  | Energy correction for multipole
  | error in Hartree potential    :           0.00015531 Ha           0.00422628 eV
  | Sum of eigenvalues per atom                           :       -4456.14557906 eV
  | Total energy (T->0) per atom                          :       -7870.71911489 eV  <-- do not rely on this value for anything but (periodic) metals
  | Electronic free energy per atom                       :       -7870.72002637 eV

  Self-consistency convergence accuracy:
  | Change of charge density      :  0.7799E-02
  | Change of sum of eigenvalues  :  0.9331E+00 eV
  | Change of total energy        :  0.1258E-02 eV

  End self-consistency iteration #     3       :  max(cpu_time)    wall_clock(cpu1)
  | Time for this iteration                    :        0.460 s           0.460 s
  | Charge density update                      :        0.125 s           0.125 s
  | Density mixing & preconditioning           :        0.014 s           0.014 s
  | Hartree multipole update                   :        0.000 s           0.001 s
  | Hartree multipole summation                :        0.143 s           0.143 s
  | Integration                                :        0.075 s           0.074 s
  | Solution of K.-S. eqns.                    :        0.102 s           0.102 s
  | Total energy evaluation                    :        0.000 s           0.000 s

  Partial memory accounting:
  | Current value for overall tracked memory usage on task 0  :           2.630 MB
  | Peak value for overall tracked memory usage on task 0     :           3.526 MB after allocating wave
  | Largest tracked array allocation on task 0 so far         :           2.500 MB  when allocating +KS_eigenvector_complex
  Note:  These values currently only include a subset of arrays which are explicitly tracked.
  The "true" memory usage will be greater.
------------------------------------------------------------

------------------------------------------------------------
          Begin self-consistency iteration #    4

  Date     :  20190514, Time     :  123605.653
------------------------------------------------------------
  Evaluating new KS density using the density matrix
  Evaluating density matrix
  Time summed over all CPUs for getting density from density matrix: real work        0.115 s, elapsed        0.115 s
  Integration grid: deviation in total charge (<rho> - N_e) =  -3.179679E-13
  Pulay mixing of updated and previous charge densities.

  Evaluating partitioned Hartree potential by multipole expansion.
  | Analytical far-field extrapolation by fixed multipoles:
  | Hartree multipole sum: apparent total charge =  -0.425418E-02
  Summing up the Hartree potential.
  Time summed over all CPUs for potential: real work        0.143 s, elapsed        0.143 s
  | RMS charge density error from multipole expansion :   0.148329E-02
  | Average real-space part of the electrostatic potential :     -0.33868672 eV

  Integrating Hamiltonian matrix: batch-based integration.
  Time summed over all CPUs for integration: real work        0.073 s, elapsed        0.073 s

  Updating Kohn-Sham eigenvalues, eigenvectors, occupation numbers, and Fermi level.
  Solving generalized eigenproblem

  Obtaining occupation numbers and chemical potential using ELSI.
  | Chemical potential (Fermi level):    -4.80992115eV
  What follows are estimated values for band gap, HOMO, LUMO, etc.
  | They are estimated on a discrete k-point grid and not necessarily exact.
  | For converged numbers, create a DOS and/or band structure plot on a denser k-grid.

  Highest occupied state (VBM) at     -4.81953714 eV (relative to internal zero)
  | Occupation number:      1.21436366
  | K-point:     566 at    0.416667    0.500000    0.583333 (in units of recip. lattice)

  Lowest unoccupied state (CBM) at    -4.78291470 eV (relative to internal zero)
  | Occupation number:      0.44495208
  | K-point:     861 at    0.916667    0.750000    0.583333 (in units of recip. lattice)

  ESTIMATED overall HOMO-LUMO gap:      0.03662244 eV between HOMO at k-point 566 and LUMO at k-point 861
  | This appears to be an indirect band gap.
  | Smallest direct gap :      0.04466199 eV for k_point 566 at    0.916667    0.750000    0.583333 (in units of recip. lattice)
  However, this system has fractional occupation numbers. Since we use a finite k-point grid,
  this material is metallic within the approximate finite broadening function (occupation_type)
  applied to determine the occupation numbers.

  Total energy components:
  | Sum of eigenvalues            :        -163.87267292 Ha       -4459.20231181 eV
  | XC energy correction          :         -19.60155032 Ha        -533.38532259 eV
  | XC potential correction       :          25.89888380 Ha         704.74448524 eV
  | Free-atom electrostatic energy:        -132.20141171 Ha       -3597.38344543 eV
  | Hartree energy correction     :           0.53319901 Ha          14.50908323 eV
  | Entropy correction            :          -0.00003311 Ha          -0.00090099 eV
  | ---------------------------
  | Total energy                  :        -289.24355214 Ha       -7870.71751136 eV
  | Total energy, T -> 0          :        -289.24358525 Ha       -7870.71841235 eV  <-- do not rely on this value for anything but (periodic) metals
  | Electronic free energy        :        -289.24361836 Ha       -7870.71931333 eV

  Derived energy quantities:
  | Kinetic energy                :         289.29024299 Ha        7871.98803421 eV
  | Electrostatic energy          :        -558.93224481 Ha      -15209.32022298 eV
  | Energy correction for multipole
  | error in Hartree potential    :           0.00019111 Ha           0.00520045 eV
  | Sum of eigenvalues per atom                           :       -4459.20231181 eV
  | Total energy (T->0) per atom                          :       -7870.71841235 eV  <-- do not rely on this value for anything but (periodic) metals
  | Electronic free energy per atom                       :       -7870.71931333 eV

  Self-consistency convergence accuracy:
  | Change of charge density      :  0.5036E-02
  | Change of sum of eigenvalues  : -0.3057E+01 eV
  | Change of total energy        :  0.6921E-03 eV

  End self-consistency iteration #     4       :  max(cpu_time)    wall_clock(cpu1)
  | Time for this iteration                    :        0.462 s           0.461 s
  | Charge density update                      :        0.126 s           0.126 s
  | Density mixing & preconditioning           :        0.014 s           0.014 s
  | Hartree multipole update                   :        0.000 s           0.000 s
  | Hartree multipole summation                :        0.145 s           0.145 s
  | Integration                                :        0.073 s           0.073 s
  | Solution of K.-S. eqns.                    :        0.103 s           0.103 s
  | Total energy evaluation                    :        0.000 s           0.000 s

  Partial memory accounting:
  | Current value for overall tracked memory usage on task 0  :           2.630 MB
  | Peak value for overall tracked memory usage on task 0     :           3.526 MB after allocating wave
  | Largest tracked array allocation on task 0 so far         :           2.500 MB  when allocating +KS_eigenvector_complex
  Note:  These values currently only include a subset of arrays which are explicitly tracked.
  The "true" memory usage will be greater.
------------------------------------------------------------

------------------------------------------------------------
          Begin self-consistency iteration #    5

  Date     :  20190514, Time     :  123606.115
------------------------------------------------------------
  Evaluating new KS density using the density matrix
  Evaluating density matrix
  Time summed over all CPUs for getting density from density matrix: real work        0.115 s, elapsed        0.115 s
  Integration grid: deviation in total charge (<rho> - N_e) =  -2.433609E-13
  Pulay mixing of updated and previous charge densities.

  Evaluating partitioned Hartree potential by multipole expansion.
  | Analytical far-field extrapolation by fixed multipoles:
  | Hartree multipole sum: apparent total charge =  -0.390073E-03
  Summing up the Hartree potential.
  Time summed over all CPUs for potential: real work        0.141 s, elapsed        0.141 s
  | RMS charge density error from multipole expansion :   0.139932E-02
  | Average real-space part of the electrostatic potential :     -0.33013060 eV

  Integrating Hamiltonian matrix: batch-based integration.
  Time summed over all CPUs for integration: real work        0.073 s, elapsed        0.073 s

  Updating Kohn-Sham eigenvalues, eigenvectors, occupation numbers, and Fermi level.
  Solving generalized eigenproblem

  Obtaining occupation numbers and chemical potential using ELSI.
  | Chemical potential (Fermi level):    -4.78349003eV
  What follows are estimated values for band gap, HOMO, LUMO, etc.
  | They are estimated on a discrete k-point grid and not necessarily exact.
  | For converged numbers, create a DOS and/or band structure plot on a denser k-grid.

  Highest occupied state (VBM) at     -4.79227727 eV (relative to internal zero)
  | Occupation number:      1.19628401
  | K-point:     663 at    0.500000    0.416667    0.583333 (in units of recip. lattice)

  Lowest unoccupied state (CBM) at    -4.75799187 eV (relative to internal zero)
  | Occupation number:      0.47078836
  | K-point:     536 at    0.416667    0.250000    0.250000 (in units of recip. lattice)

  ESTIMATED overall HOMO-LUMO gap:      0.03428541 eV between HOMO at k-point 663 and LUMO at k-point 536
  | This appears to be an indirect band gap.
  | Smallest direct gap :      0.04481467 eV for k_point 663 at    0.416667    0.250000    0.250000 (in units of recip. lattice)
  However, this system has fractional occupation numbers. Since we use a finite k-point grid,
  this material is metallic within the approximate finite broadening function (occupation_type)
  applied to determine the occupation numbers.

  Total energy components:
  | Sum of eigenvalues            :        -163.82379639 Ha       -4457.87231378 eV
  | XC energy correction          :         -19.60434908 Ha        -533.46148064 eV
  | XC potential correction       :          25.90258584 Ha         704.84522291 eV
  | Free-atom electrostatic energy:        -132.20141171 Ha       -3597.38344543 eV
  | Hartree energy correction     :           0.48342685 Ha          13.15471378 eV
  | Entropy correction            :          -0.00003326 Ha          -0.00090504 eV
  | ---------------------------
  | Total energy                  :        -289.24354449 Ha       -7870.71730316 eV
  | Total energy, T -> 0          :        -289.24357775 Ha       -7870.71820820 eV  <-- do not rely on this value for anything but (periodic) metals
  | Electronic free energy        :        -289.24361101 Ha       -7870.71911324 eV

  Derived energy quantities:
  | Kinetic energy                :         289.31488300 Ha        7872.65852291 eV
  | Electrostatic energy          :        -558.95407841 Ha      -15209.91434543 eV
  | Energy correction for multipole
  | error in Hartree potential    :           0.00018088 Ha           0.00492200 eV
  | Sum of eigenvalues per atom                           :       -4457.87231378 eV
  | Total energy (T->0) per atom                          :       -7870.71820820 eV  <-- do not rely on this value for anything but (periodic) metals
  | Electronic free energy per atom                       :       -7870.71911324 eV

  Self-consistency convergence accuracy:
  | Change of charge density      :  0.3188E-02
  | Change of sum of eigenvalues  :  0.1330E+01 eV
  | Change of total energy        :  0.2082E-03 eV

  End self-consistency iteration #     5       :  max(cpu_time)    wall_clock(cpu1)
  | Time for this iteration                    :        0.458 s           0.458 s
  | Charge density update                      :        0.125 s           0.125 s
  | Density mixing & preconditioning           :        0.014 s           0.014 s
  | Hartree multipole update                   :        0.000 s           0.000 s
  | Hartree multipole summation                :        0.142 s           0.143 s
  | Integration                                :        0.074 s           0.073 s
  | Solution of K.-S. eqns.                    :        0.102 s           0.102 s
  | Total energy evaluation                    :        0.000 s           0.001 s

  Partial memory accounting:
  | Current value for overall tracked memory usage on task 0  :           2.631 MB
  | Peak value for overall tracked memory usage on task 0     :           3.526 MB after allocating wave
  | Largest tracked array allocation on task 0 so far         :           2.500 MB  when allocating +KS_eigenvector_complex
  Note:  These values currently only include a subset of arrays which are explicitly tracked.
  The "true" memory usage will be greater.
------------------------------------------------------------

------------------------------------------------------------
          Begin self-consistency iteration #    6

  Date     :  20190514, Time     :  123606.573
------------------------------------------------------------
  Evaluating new KS density using the density matrix
  Evaluating density matrix
  Time summed over all CPUs for getting density from density matrix: real work        0.113 s, elapsed        0.113 s
  Integration grid: deviation in total charge (<rho> - N_e) =  -2.184919E-13
  Pulay mixing of updated and previous charge densities.

  Evaluating partitioned Hartree potential by multipole expansion.
  | Analytical far-field extrapolation by fixed multipoles:
  | Hartree multipole sum: apparent total charge =  -0.677274E-03
  Summing up the Hartree potential.
  Time summed over all CPUs for potential: real work        0.146 s, elapsed        0.146 s
  | RMS charge density error from multipole expansion :   0.143141E-02
  | Average real-space part of the electrostatic potential :     -0.33601644 eV

  Integrating Hamiltonian matrix: batch-based integration.
  Time summed over all CPUs for integration: real work        0.074 s, elapsed        0.074 s

  Updating Kohn-Sham eigenvalues, eigenvectors, occupation numbers, and Fermi level.
  Solving generalized eigenproblem

  Obtaining occupation numbers and chemical potential using ELSI.
  | Chemical potential (Fermi level):    -4.78889934eV
  What follows are estimated values for band gap, HOMO, LUMO, etc.
  | They are estimated on a discrete k-point grid and not necessarily exact.
  | For converged numbers, create a DOS and/or band structure plot on a denser k-grid.

  Highest occupied state (VBM) at     -4.79783008 eV (relative to internal zero)
  | Occupation number:      1.19942232
  | K-point:     565 at    0.416667    0.500000    0.500000 (in units of recip. lattice)

  Lowest unoccupied state (CBM) at    -4.76311655 eV (relative to internal zero)
  | Occupation number:      0.46585034
  | K-point:     536 at    0.416667    0.250000    0.250000 (in units of recip. lattice)

  ESTIMATED overall HOMO-LUMO gap:      0.03471353 eV between HOMO at k-point 565 and LUMO at k-point 536
  | This appears to be an indirect band gap.
  | Smallest direct gap :      0.04478387 eV for k_point 565 at    0.416667    0.250000    0.250000 (in units of recip. lattice)
  However, this system has fractional occupation numbers. Since we use a finite k-point grid,
  this material is metallic within the approximate finite broadening function (occupation_type)
  applied to determine the occupation numbers.

  Total energy components:
  | Sum of eigenvalues            :        -163.83013756 Ha       -4458.04486582 eV
  | XC energy correction          :         -19.60404154 Ha        -533.45311213 eV
  | XC potential correction       :          25.90218522 Ha         704.83432135 eV
  | Free-atom electrostatic energy:        -132.20141171 Ha       -3597.38344543 eV
  | Hartree energy correction     :           0.48986264 Ha          13.32984078 eV
  | Entropy correction            :          -0.00003322 Ha          -0.00090403 eV
  | ---------------------------
  | Total energy                  :        -289.24354295 Ha       -7870.71726126 eV
  | Total energy, T -> 0          :        -289.24357617 Ha       -7870.71816529 eV  <-- do not rely on this value for anything but (periodic) metals
  | Electronic free energy        :        -289.24360939 Ha       -7870.71906931 eV

  Derived energy quantities:
  | Kinetic energy                :         289.31824395 Ha        7872.74997891 eV
  | Electrostatic energy          :        -558.95774535 Ha      -15210.01412804 eV
  | Energy correction for multipole
  | error in Hartree potential    :           0.00018572 Ha           0.00505372 eV
  | Sum of eigenvalues per atom                           :       -4458.04486582 eV
  | Total energy (T->0) per atom                          :       -7870.71816529 eV  <-- do not rely on this value for anything but (periodic) metals
  | Electronic free energy per atom                       :       -7870.71906931 eV

  Self-consistency convergence accuracy:
  | Change of charge density      :  0.5717E-03
  | Change of sum of eigenvalues  : -0.1726E+00 eV
  | Change of total energy        :  0.4190E-04 eV

  End self-consistency iteration #     6       :  max(cpu_time)    wall_clock(cpu1)
  | Time for this iteration                    :        0.462 s           0.462 s
  | Charge density update                      :        0.124 s           0.123 s
  | Density mixing & preconditioning           :        0.014 s           0.014 s
  | Hartree multipole update                   :        0.000 s           0.001 s
  | Hartree multipole summation                :        0.147 s           0.147 s
  | Integration                                :        0.074 s           0.074 s
  | Solution of K.-S. eqns.                    :        0.102 s           0.102 s
  | Total energy evaluation                    :        0.000 s           0.001 s

  Partial memory accounting:
  | Current value for overall tracked memory usage on task 0  :           2.631 MB
  | Peak value for overall tracked memory usage on task 0     :           3.526 MB after allocating wave
  | Largest tracked array allocation on task 0 so far         :           2.500 MB  when allocating +KS_eigenvector_complex
  Note:  These values currently only include a subset of arrays which are explicitly tracked.
  The "true" memory usage will be greater.
------------------------------------------------------------

------------------------------------------------------------
          Begin self-consistency iteration #    7

  Date     :  20190514, Time     :  123607.035
------------------------------------------------------------
  Evaluating new KS density using the density matrix
  Evaluating density matrix
  Time summed over all CPUs for getting density from density matrix: real work        0.114 s, elapsed        0.114 s
  Integration grid: deviation in total charge (<rho> - N_e) =  -2.948752E-13
  Pulay mixing of updated and previous charge densities.

  Evaluating partitioned Hartree potential by multipole expansion.
  | Analytical far-field extrapolation by fixed multipoles:
  | Hartree multipole sum: apparent total charge =  -0.431295E-03
  Summing up the Hartree potential.
  Time summed over all CPUs for potential: real work        0.142 s, elapsed        0.142 s
  | RMS charge density error from multipole expansion :   0.142617E-02
  | Average real-space part of the electrostatic potential :     -0.33587025 eV

  Integrating Hamiltonian matrix: batch-based integration.
  Time summed over all CPUs for integration: real work        0.074 s, elapsed        0.074 s

  Updating Kohn-Sham eigenvalues, eigenvectors, occupation numbers, and Fermi level.
  Solving generalized eigenproblem

  Obtaining occupation numbers and chemical potential using ELSI.
  | Chemical potential (Fermi level):    -4.78767562eV
  What follows are estimated values for band gap, HOMO, LUMO, etc.
  | They are estimated on a discrete k-point grid and not necessarily exact.
  | For converged numbers, create a DOS and/or band structure plot on a denser k-grid.

  Highest occupied state (VBM) at     -4.79657328 eV (relative to internal zero)
  | Occupation number:      1.19869919
  | K-point:     663 at    0.500000    0.416667    0.583333 (in units of recip. lattice)

  Lowest unoccupied state (CBM) at    -4.76195698 eV (relative to internal zero)
  | Occupation number:      0.46696077
  | K-point:     784 at    0.750000    0.583333    0.916667 (in units of recip. lattice)

  ESTIMATED overall HOMO-LUMO gap:      0.03461630 eV between HOMO at k-point 663 and LUMO at k-point 784
  | This appears to be an indirect band gap.
  | Smallest direct gap :      0.04479109 eV for k_point 663 at    0.750000    0.583333    0.916667 (in units of recip. lattice)
  However, this system has fractional occupation numbers. Since we use a finite k-point grid,
  this material is metallic within the approximate finite broadening function (occupation_type)
  applied to determine the occupation numbers.

  Total energy components:
  | Sum of eigenvalues            :        -163.82778414 Ha       -4457.98082603 eV
  | XC energy correction          :         -19.60416975 Ha        -533.45660081 eV
  | XC potential correction       :          25.90235525 Ha         704.83894826 eV
  | Free-atom electrostatic energy:        -132.20141171 Ha       -3597.38344543 eV
  | Hartree energy correction     :           0.48746732 Ha          13.26466060 eV
  | Entropy correction            :          -0.00003323 Ha          -0.00090424 eV
  | ---------------------------
  | Total energy                  :        -289.24354303 Ha       -7870.71726341 eV
  | Total energy, T -> 0          :        -289.24357626 Ha       -7870.71816765 eV  <-- do not rely on this value for anything but (periodic) metals
  | Electronic free energy        :        -289.24360949 Ha       -7870.71907189 eV

  Derived energy quantities:
  | Kinetic energy                :         289.31970608 Ha        7872.78976569 eV
  | Electrostatic energy          :        -558.95907936 Ha      -15210.05042829 eV
  | Energy correction for multipole
  | error in Hartree potential    :           0.00018509 Ha           0.00503647 eV
  | Sum of eigenvalues per atom                           :       -4457.98082603 eV
  | Total energy (T->0) per atom                          :       -7870.71816765 eV  <-- do not rely on this value for anything but (periodic) metals
  | Electronic free energy per atom                       :       -7870.71907189 eV

  Self-consistency convergence accuracy:
  | Change of charge density      :  0.2634E-03
  | Change of sum of eigenvalues  :  0.6404E-01 eV
  | Change of total energy        : -0.2154E-05 eV

  End self-consistency iteration #     7       :  max(cpu_time)    wall_clock(cpu1)
  | Time for this iteration                    :        0.464 s           0.463 s
  | Charge density update                      :        0.125 s           0.124 s
  | Density mixing & preconditioning           :        0.014 s           0.014 s
  | Hartree multipole update                   :        0.000 s           0.001 s
  | Hartree multipole summation                :        0.144 s           0.144 s
  | Integration                                :        0.074 s           0.074 s
  | Solution of K.-S. eqns.                    :        0.106 s           0.106 s
  | Total energy evaluation                    :        0.000 s           0.000 s

  Partial memory accounting:
  | Current value for overall tracked memory usage on task 0  :           2.631 MB
  | Peak value for overall tracked memory usage on task 0     :           3.526 MB after allocating wave
  | Largest tracked array allocation on task 0 so far         :           2.500 MB  when allocating +KS_eigenvector_complex
  Note:  These values currently only include a subset of arrays which are explicitly tracked.
  The "true" memory usage will be greater.
------------------------------------------------------------

------------------------------------------------------------
          Begin self-consistency iteration #    8

  Date     :  20190514, Time     :  123607.499
------------------------------------------------------------
  Evaluating new KS density using the density matrix
  Evaluating density matrix
  Time summed over all CPUs for getting density from density matrix: real work        0.115 s, elapsed        0.115 s
  Integration grid: deviation in total charge (<rho> - N_e) =  -3.392842E-13
  Pulay mixing of updated and previous charge densities.

  Evaluating partitioned Hartree potential by multipole expansion.
  | Analytical far-field extrapolation by fixed multipoles:
  | Hartree multipole sum: apparent total charge =   0.294141E-05
  Summing up the Hartree potential.
  Time summed over all CPUs for potential: real work        0.142 s, elapsed        0.142 s
  | RMS charge density error from multipole expansion :   0.141749E-02
  | Average real-space part of the electrostatic potential :     -0.33666605 eV

  Integrating Hamiltonian matrix: batch-based integration.
  Time summed over all CPUs for integration: real work        0.074 s, elapsed        0.074 s

  Updating Kohn-Sham eigenvalues, eigenvectors, occupation numbers, and Fermi level.
  Solving generalized eigenproblem

  Obtaining occupation numbers and chemical potential using ELSI.
  | Chemical potential (Fermi level):    -4.78672819eV
  What follows are estimated values for band gap, HOMO, LUMO, etc.
  | They are estimated on a discrete k-point grid and not necessarily exact.
  | For converged numbers, create a DOS and/or band structure plot on a denser k-grid.

  Highest occupied state (VBM) at     -4.79561835 eV (relative to internal zero)
  | Occupation number:      1.19853504
  | K-point:     566 at    0.416667    0.500000    0.583333 (in units of recip. lattice)

  Lowest unoccupied state (CBM) at    -4.76103817 eV (relative to internal zero)
  | Occupation number:      0.46745666
  | K-point:     338 at    0.250000    0.416667    0.250000 (in units of recip. lattice)

  ESTIMATED overall HOMO-LUMO gap:      0.03458018 eV between HOMO at k-point 566 and LUMO at k-point 338
  | This appears to be an indirect band gap.
  | Smallest direct gap :      0.04479648 eV for k_point 566 at    0.250000    0.416667    0.250000 (in units of recip. lattice)
  However, this system has fractional occupation numbers. Since we use a finite k-point grid,
  this material is metallic within the approximate finite broadening function (occupation_type)
  applied to determine the occupation numbers.

  Total energy components:
  | Sum of eigenvalues            :        -163.82618212 Ha       -4457.93723277 eV
  | XC energy correction          :         -19.60418780 Ha        -533.45709210 eV
  | XC potential correction       :          25.90238067 Ha         704.83963999 eV
  | Free-atom electrostatic energy:        -132.20141171 Ha       -3597.38344543 eV
  | Hartree energy correction     :           0.48585789 Ha          13.22086584 eV
  | Entropy correction            :          -0.00003324 Ha          -0.00090445 eV
  | ---------------------------
  | Total energy                  :        -289.24354306 Ha       -7870.71726447 eV
  | Total energy, T -> 0          :        -289.24357630 Ha       -7870.71816893 eV  <-- do not rely on this value for anything but (periodic) metals
  | Electronic free energy        :        -289.24360954 Ha       -7870.71907338 eV

  Derived energy quantities:
  | Kinetic energy                :         289.32050735 Ha        7872.81156926 eV
  | Electrostatic energy          :        -558.95986261 Ha      -15210.07174163 eV
  | Energy correction for multipole
  | error in Hartree potential    :           0.00018410 Ha           0.00500958 eV
  | Sum of eigenvalues per atom                           :       -4457.93723277 eV
  | Total energy (T->0) per atom                          :       -7870.71816893 eV  <-- do not rely on this value for anything but (periodic) metals
  | Electronic free energy per atom                       :       -7870.71907338 eV

  Self-consistency convergence accuracy:
  | Change of charge density      :  0.1183E-03
  | Change of sum of eigenvalues  :  0.4359E-01 eV
  | Change of total energy        : -0.1059E-05 eV

  End self-consistency iteration #     8       :  max(cpu_time)    wall_clock(cpu1)
  | Time for this iteration                    :        0.460 s           0.459 s
  | Charge density update                      :        0.125 s           0.125 s
  | Density mixing & preconditioning           :        0.014 s           0.014 s
  | Hartree multipole update                   :        0.000 s           0.000 s
  | Hartree multipole summation                :        0.143 s           0.144 s
  | Integration                                :        0.074 s           0.074 s
  | Solution of K.-S. eqns.                    :        0.102 s           0.102 s
  | Total energy evaluation                    :        0.000 s           0.000 s

  Partial memory accounting:
  | Current value for overall tracked memory usage on task 0  :           2.632 MB
  | Peak value for overall tracked memory usage on task 0     :           3.526 MB after allocating wave
  | Largest tracked array allocation on task 0 so far         :           2.500 MB  when allocating +KS_eigenvector_complex
  Note:  These values currently only include a subset of arrays which are explicitly tracked.
  The "true" memory usage will be greater.
------------------------------------------------------------

------------------------------------------------------------
          Begin self-consistency iteration #    9

  Date     :  20190514, Time     :  123607.958
------------------------------------------------------------
  Evaluating new KS density using the density matrix
  Evaluating density matrix
  Time summed over all CPUs for getting density from density matrix: real work        0.114 s, elapsed        0.114 s
  Integration grid: deviation in total charge (<rho> - N_e) =  -2.700062E-13
  Pulay mixing of updated and previous charge densities.

  Evaluating partitioned Hartree potential by multipole expansion.
  | Analytical far-field extrapolation by fixed multipoles:
  | Hartree multipole sum: apparent total charge =   0.124465E-04
  Summing up the Hartree potential.
  Time summed over all CPUs for potential: real work        0.143 s, elapsed        0.143 s
  | RMS charge density error from multipole expansion :   0.141685E-02
  | Average real-space part of the electrostatic potential :     -0.33656030 eV

  Integrating Hamiltonian matrix: batch-based integration.
  Time summed over all CPUs for integration: real work        0.074 s, elapsed        0.074 s

  Updating Kohn-Sham eigenvalues, eigenvectors, occupation numbers, and Fermi level.
  Solving generalized eigenproblem

  Obtaining occupation numbers and chemical potential using ELSI.
  | Chemical potential (Fermi level):    -4.78658816eV
  What follows are estimated values for band gap, HOMO, LUMO, etc.
  | They are estimated on a discrete k-point grid and not necessarily exact.
  | For converged numbers, create a DOS and/or band structure plot on a denser k-grid.

  Highest occupied state (VBM) at     -4.79547406 eV (relative to internal zero)
  | Occupation number:      1.19844204
  | K-point:     574 at    0.416667    0.583333    0.500000 (in units of recip. lattice)

  Lowest unoccupied state (CBM) at    -4.76090644 eV (relative to internal zero)
  | Occupation number:      0.46760052
  | K-point:     518 at    0.416667    0.083333    0.250000 (in units of recip. lattice)

  ESTIMATED overall HOMO-LUMO gap:      0.03456762 eV between HOMO at k-point 574 and LUMO at k-point 518
  | This appears to be an indirect band gap.
  | Smallest direct gap :      0.04479747 eV for k_point 574 at    0.416667    0.083333    0.250000 (in units of recip. lattice)
  However, this system has fractional occupation numbers. Since we use a finite k-point grid,
  this material is metallic within the approximate finite broadening function (occupation_type)
  applied to determine the occupation numbers.

  Total energy components:
  | Sum of eigenvalues            :        -163.82588400 Ha       -4457.92912048 eV
  | XC energy correction          :         -19.60421091 Ha        -533.45772079 eV
  | XC potential correction       :          25.90241119 Ha         704.84047042 eV
  | Free-atom electrostatic energy:        -132.20141171 Ha       -3597.38344543 eV
  | Hartree energy correction     :           0.48555233 Ha          13.21255111 eV
  | Entropy correction            :          -0.00003324 Ha          -0.00090448 eV
  | ---------------------------
  | Total energy                  :        -289.24354309 Ha       -7870.71726517 eV
  | Total energy, T -> 0          :        -289.24357633 Ha       -7870.71816966 eV  <-- do not rely on this value for anything but (periodic) metals
  | Electronic free energy        :        -289.24360957 Ha       -7870.71907414 eV

  Derived energy quantities:
  | Kinetic energy                :         289.32071731 Ha        7872.81728262 eV
  | Electrostatic energy          :        -558.96004950 Ha      -15210.07682700 eV
  | Energy correction for multipole
  | error in Hartree potential    :           0.00018401 Ha           0.00500726 eV
  | Sum of eigenvalues per atom                           :       -4457.92912048 eV
[...]
  | Hartree multipole update                   :        0.000 s           0.001 s
  | Hartree multipole summation                :        0.145 s           0.144 s
  | Integration                                :        0.074 s           0.074 s
  | Solution of K.-S. eqns.                    :        0.101 s           0.102 s
  | Total energy evaluation                    :        0.000 s           0.000 s

  Partial memory accounting:
  | Current value for overall tracked memory usage on task 0  :           2.632 MB
  | Peak value for overall tracked memory usage on task 0     :           3.526 MB after allocating wave
  | Largest tracked array allocation on task 0 so far         :           2.500 MB  when allocating +KS_eigenvector_complex
  Note:  These values currently only include a subset of arrays which are explicitly tracked.
  The "true" memory usage will be greater.
------------------------------------------------------------

------------------------------------------------------------
          Begin self-consistency iteration #   10

  Date     :  20190514, Time     :  123608.417
------------------------------------------------------------
  Evaluating new KS density using the density matrix
  Evaluating density matrix
  Time summed over all CPUs for getting density from density matrix: real work        0.114 s, elapsed        0.114 s
  Integration grid: deviation in total charge (<rho> - N_e) =  -3.161915E-13
  Pulay mixing of updated and previous charge densities.

  Evaluating partitioned Hartree potential by multipole expansion.
  | Analytical far-field extrapolation by fixed multipoles:
  | Hartree multipole sum: apparent total charge =   0.161264E-04
  Summing up the Hartree potential.
  Time summed over all CPUs for potential: real work        0.142 s, elapsed        0.142 s
  | RMS charge density error from multipole expansion :   0.141698E-02
  | Average real-space part of the electrostatic potential :     -0.33660492 eV

  Integrating Hamiltonian matrix: batch-based integration.
  Time summed over all CPUs for integration: real work        0.074 s, elapsed        0.074 s

  Updating Kohn-Sham eigenvalues, eigenvectors, occupation numbers, and Fermi level.
  Solving generalized eigenproblem

  Obtaining occupation numbers and chemical potential using ELSI.
  | Chemical potential (Fermi level):    -4.78660682eV
  What follows are estimated values for band gap, HOMO, LUMO, etc.
  | They are estimated on a discrete k-point grid and not necessarily exact.
  | For converged numbers, create a DOS and/or band structure plot on a denser k-grid.

  Highest occupied state (VBM) at     -4.79549333 eV (relative to internal zero)
  | Occupation number:      1.19845526
  | K-point:     672 at    0.500000    0.500000    0.583333 (in units of recip. lattice)

  Lowest unoccupied state (CBM) at    -4.76092392 eV (relative to internal zero)
  | Occupation number:      0.46757998
  | K-point:     518 at    0.416667    0.083333    0.250000 (in units of recip. lattice)

  ESTIMATED overall HOMO-LUMO gap:      0.03456941 eV between HOMO at k-point 672 and LUMO at k-point 518
  | This appears to be an indirect band gap.
  | Smallest direct gap :      0.04479735 eV for k_point 672 at    0.416667    0.083333    0.250000 (in units of recip. lattice)
  However, this system has fractional occupation numbers. Since we use a finite k-point grid,
  this material is metallic within the approximate finite broadening function (occupation_type)
  applied to determine the occupation numbers.

  Total energy components:
  | Sum of eigenvalues            :        -163.82591650 Ha       -4457.93000506 eV
  | XC energy correction          :         -19.60420701 Ha        -533.45761464 eV
  | XC potential correction       :          25.90240607 Ha         704.84033108 eV
  | Free-atom electrostatic energy:        -132.20141171 Ha       -3597.38344543 eV
  | Hartree energy correction     :           0.48558606 Ha          13.21346904 eV
  | Entropy correction            :          -0.00003324 Ha          -0.00090448 eV
  | ---------------------------
  | Total energy                  :        -289.24354308 Ha       -7870.71726502 eV
  | Total energy, T -> 0          :        -289.24357632 Ha       -7870.71816950 eV  <-- do not rely on this value for anything but (periodic) metals
  | Electronic free energy        :        -289.24360956 Ha       -7870.71907398 eV

  Derived energy quantities:
  | Kinetic energy                :         289.32069800 Ha        7872.81675702 eV
  | Electrostatic energy          :        -558.96003408 Ha      -15210.07640741 eV
  | Energy correction for multipole
  | error in Hartree potential    :           0.00018404 Ha           0.00500785 eV
  | Sum of eigenvalues per atom                           :       -4457.93000506 eV
  | Total energy (T->0) per atom                          :       -7870.71816950 eV  <-- do not rely on this value for anything but (periodic) metals
  | Electronic free energy per atom                       :       -7870.71907398 eV

  Self-consistency convergence accuracy:
  | Change of charge density      :  0.2655E-05
  | Change of sum of eigenvalues  : -0.8846E-03 eV
  | Change of total energy        :  0.1520E-06 eV

  End self-consistency iteration #    10       :  max(cpu_time)    wall_clock(cpu1)
  | Time for this iteration                    :        0.462 s           0.462 s
  | Charge density update                      :        0.125 s           0.125 s
  | Density mixing & preconditioning           :        0.014 s           0.014 s
  | Hartree multipole update                   :        0.000 s           0.001 s
  | Hartree multipole summation                :        0.144 s           0.144 s
  | Integration                                :        0.074 s           0.075 s
  | Solution of K.-S. eqns.                    :        0.103 s           0.103 s
  | Total energy evaluation                    :        0.000 s           0.000 s

  Partial memory accounting:
  | Current value for overall tracked memory usage on task 0  :           2.632 MB
  | Peak value for overall tracked memory usage on task 0     :           3.526 MB after allocating wave
  | Largest tracked array allocation on task 0 so far         :           2.500 MB  when allocating +KS_eigenvector_complex
  Note:  These values currently only include a subset of arrays which are explicitly tracked.
  The "true" memory usage will be greater.
------------------------------------------------------------

------------------------------------------------------------
          Begin self-consistency iteration #   11

  Date     :  20190514, Time     :  123608.879
------------------------------------------------------------
  Evaluating new KS density using the density matrix
  Evaluating density matrix
  Time summed over all CPUs for getting density from density matrix: real work        0.114 s, elapsed        0.114 s
  Integration grid: deviation in total charge (<rho> - N_e) =  -3.659295E-13
  Pulay mixing of updated and previous charge densities.

  Evaluating partitioned Hartree potential by multipole expansion.
  | Analytical far-field extrapolation by fixed multipoles:
  | Hartree multipole sum: apparent total charge =   0.160548E-04
  Summing up the Hartree potential.
  Time summed over all CPUs for potential: real work        0.144 s, elapsed        0.144 s
  | RMS charge density error from multipole expansion :   0.141698E-02
  | Average real-space part of the electrostatic potential :     -0.33660433 eV

  Integrating Hamiltonian matrix: batch-based integration.
  Time summed over all CPUs for integration: real work        0.075 s, elapsed        0.075 s

  Updating Kohn-Sham eigenvalues, eigenvectors, occupation numbers, and Fermi level.
  Solving generalized eigenproblem

  Obtaining occupation numbers and chemical potential using ELSI.
  | Chemical potential (Fermi level):    -4.78660679eV
  What follows are estimated values for band gap, HOMO, LUMO, etc.
  | They are estimated on a discrete k-point grid and not necessarily exact.
  | For converged numbers, create a DOS and/or band structure plot on a denser k-grid.

  Highest occupied state (VBM) at     -4.79549328 eV (relative to internal zero)
  | Occupation number:      1.19845488
  | K-point:     672 at    0.500000    0.500000    0.583333 (in units of recip. lattice)

  Lowest unoccupied state (CBM) at    -4.76092390 eV (relative to internal zero)
  | Occupation number:      0.46758023
  | K-point:     789 at    0.750000    0.750000    0.583333 (in units of recip. lattice)

  ESTIMATED overall HOMO-LUMO gap:      0.03456938 eV between HOMO at k-point 672 and LUMO at k-point 789
  | This appears to be an indirect band gap.
  | Smallest direct gap :      0.04479733 eV for k_point 662 at    0.750000    0.750000    0.583333 (in units of recip. lattice)
  However, this system has fractional occupation numbers. Since we use a finite k-point grid,
  this material is metallic within the approximate finite broadening function (occupation_type)
  applied to determine the occupation numbers.

  Total energy components:
  | Sum of eigenvalues            :        -163.82591637 Ha       -4457.93000141 eV
  | XC energy correction          :         -19.60420705 Ha        -533.45761577 eV
  | XC potential correction       :          25.90240613 Ha         704.84033256 eV
  | Free-atom electrostatic energy:        -132.20141171 Ha       -3597.38344543 eV
  | Hartree energy correction     :           0.48558591 Ha          13.21346503 eV
  | Entropy correction            :          -0.00003324 Ha          -0.00090448 eV
  | ---------------------------
  | Total energy                  :        -289.24354308 Ha       -7870.71726502 eV
  | Total energy, T -> 0          :        -289.24357632 Ha       -7870.71816950 eV  <-- do not rely on this value for anything but (periodic) metals
  | Electronic free energy        :        -289.24360956 Ha       -7870.71907398 eV

  Derived energy quantities:
  | Kinetic energy                :         289.32069810 Ha        7872.81675983 eV
  | Electrostatic energy          :        -558.96003414 Ha      -15210.07640909 eV
  | Energy correction for multipole
  | error in Hartree potential    :           0.00018403 Ha           0.00500785 eV
  | Sum of eigenvalues per atom                           :       -4457.93000141 eV
  | Total energy (T->0) per atom                          :       -7870.71816950 eV  <-- do not rely on this value for anything but (periodic) metals
  | Electronic free energy per atom                       :       -7870.71907398 eV

  Self-consistency convergence accuracy:
  | Change of charge density      :  0.1046E-06
  | Change of sum of eigenvalues  :  0.3653E-05 eV
  | Change of total energy        : -0.1358E-08 eV

  Preliminary charge convergence reached. Turning off preconditioner.

  Writing Kohn-Sham eigenvalues.
  K-point:       1 at    0.000000    0.000000    0.000000 (in units of recip. lattice)

  State    Occupation    Eigenvalue [Ha]    Eigenvalue [eV]
      1       2.00000         -65.540370        -1783.44422
      2       2.00000          -5.128257         -139.54696
      3       2.00000          -3.543158          -96.41423
      4       2.00000          -3.543158          -96.41423
      5       2.00000          -3.543158          -96.41423
      6       2.00000          -0.450808          -12.26711
      7       0.00000          -0.092761           -2.52415
      8       0.00000          -0.092761           -2.52415
      9       0.00000          -0.092761           -2.52415
     10       0.00000           0.060667            1.65083

  What follows are estimated values for band gap, HOMO, LUMO, etc.
  | They are estimated on a discrete k-point grid and not necessarily exact.
  | For converged numbers, create a DOS and/or band structure plot on a denser k-grid.

  Highest occupied state (VBM) at     -4.79549328 eV (relative to internal zero)
  | Occupation number:      1.19845488
  | K-point:     672 at    0.500000    0.500000    0.583333 (in units of recip. lattice)

  Lowest unoccupied state (CBM) at    -4.76092390 eV (relative to internal zero)
  | Occupation number:      0.46758023
  | K-point:     789 at    0.750000    0.750000    0.583333 (in units of recip. lattice)

  ESTIMATED overall HOMO-LUMO gap:      0.03456938 eV between HOMO at k-point 672 and LUMO at k-point 789
  | This appears to be an indirect band gap.
  | Smallest direct gap :      0.04479733 eV for k_point 662 at    0.750000    0.750000    0.583333 (in units of recip. lattice)
  However, this system has fractional occupation numbers. Since we use a finite k-point grid,
  this material is metallic within the approximate finite broadening function (occupation_type)
  applied to determine the occupation numbers.

  Self-consistency cycle converged.

  End self-consistency iteration #    11       :  max(cpu_time)    wall_clock(cpu1)
  | Time for this iteration                    :        0.463 s           0.463 s
  | Charge density update                      :        0.125 s           0.125 s
  | Density mixing                             :        0.013 s           0.014 s
  | Hartree multipole update                   :        0.000 s           0.000 s
  | Hartree multipole summation                :        0.146 s           0.146 s
  | Integration                                :        0.075 s           0.075 s
  | Solution of K.-S. eqns.                    :        0.102 s           0.102 s
  | Total energy evaluation                    :        0.000 s           0.000 s

  Partial memory accounting:
  | Current value for overall tracked memory usage on task 0  :           2.632 MB
  | Peak value for overall tracked memory usage on task 0     :           3.526 MB after allocating wave
  | Largest tracked array allocation on task 0 so far         :           2.500 MB  when allocating +KS_eigenvector_complex
  Note:  These values currently only include a subset of arrays which are explicitly tracked.
  The "true" memory usage will be greater.
------------------------------------------------------------

  Energy and forces in a compact form:
  | Total energy uncorrected      :         -0.787071726502344E+04 eV
  | Total energy corrected        :         -0.787071816950025E+04 eV  <-- do not rely on this value for anything but (periodic) metals
  | Electronic free energy        :         -0.787071907397706E+04 eV

  ------------------------------------ 
  Start decomposition of the XC Energy 
  ------------------------------------ 
  X and C from original XC functional choice 
  Hartree-Fock Energy :          0.000000000 Ha              0.000000000 eV
  X Energy            :        -18.551835917 Ha           -504.821140305 eV
  C Energy            :         -1.052371130 Ha            -28.636475462 eV
  Total XC Energy     :        -19.604207047 Ha           -533.457615767 eV
  ------------------------------------ 
  LDA X and C from self-consistent density 
  X Energy LDA        :        -18.551835917 Ha           -504.821140305 eV
  C Energy LDA        :         -1.052371130 Ha            -28.636475462 eV
  ------------------------------------ 
  End decomposition of the XC Energy 
  ------------------------------------ 

------------------------------------------------------------

------------------------------------------------------------------------------
  Final output of selected total energy values:

  The following output summarizes some interesting total energy values
  at the end of a run (AFTER all relaxation, molecular dynamics, etc.).

  | Total energy of the DFT / Hartree-Fock s.c.f. calculation      :          -7870.717265023 eV
  | Final zero-broadening corrected energy (caution - metals only) :          -7870.718169500 eV
  | For reference only, the value of 1 Hartree used in FHI-aims is :             27.211384500 eV

  Before relying on these values, please be sure to understand exactly which
  total energy value is referred to by a given number. Different objects may
  all carry the same name 'total energy'. Definitions:

  Total energy of the DFT / Hartree-Fock s.c.f. calculation:
  | Note that this energy does not include ANY quantities calculated after the
  | s.c.f. cycle, in particular not ANY RPA, MP2, etc. many-body perturbation terms.

  Final zero-broadening corrected energy:
  | For metallic systems only, a broadening of the occupation numbers at the Fermi
  | level can be extrapolated back to zero broadening by an electron-gas inspired
  | formula. For all systems that are not real metals, this value can be
  | meaningless and should be avoided.

------------------------------------------------------------------------------
  Methods described in the following list of references were used in this FHI-aims run.
  If you publish the results, please make sure to cite these reference if they apply.
  FHI-aims is an academic code, and for our developers (often, Ph.D. students
  and postdocs), scientific credit in the community is essential.
  Thank you for helping us!

  For any use of FHI-aims, please cite:

    Volker Blum, Ralf Gehrke, Felix Hanke, Paula Havu, Ville Havu,
    Xinguo Ren, Karsten Reuter, and Matthias Scheffler
    'Ab initio molecular simulations with numeric atom-centered orbitals'
    Computer Physics Communications 180, 2175-2196 (2009)
    http://dx.doi.org/10.1016/j.cpc.2009.06.022


  For the real-space grid partitioning and parallelization used in this calculation, please cite:

    Ville Havu, Volker Blum, Paula Havu, and Matthias Scheffler,
    'Efficient O(N) integration for all-electron electronic structure calculation'
    'using numerically tabulated basis functions'
    Journal of Computational Physics 228, 8367-8379 (2009).
    http://dx.doi.org/10.1016/j.jcp.2009.08.008

  Of course, there are many other important community references, e.g., those cited in the
  above references. Our list is limited to references that describe implementations in the
  FHI-aims code. The reason is purely practical (length of this list) - please credit others as well.

------------------------------------------------------------
          Leaving FHI-aims.
          Date     :  20190514, Time     :  123609.347

          Computational steps:
          | Number of self-consistency cycles          :           11
          | Number of SCF (re)initializations          :            1

          Detailed time accounting                     :  max(cpu_time)    wall_clock(cpu1)
          | Total time                                 :        5.585 s           5.589 s
          | Preparation time                           :        0.103 s           0.102 s
          | Boundary condition initalization           :        0.034 s           0.034 s
          | Grid partitioning                          :        0.008 s           0.008 s
          | Preloading free-atom quantities on grid    :        0.001 s           0.001 s
          | Free-atom superposition energy             :        0.008 s           0.008 s
          | Total time for integrations                :        0.938 s           0.937 s
          | Total time for solution of K.-S. equations :        1.368 s           1.370 s
          | Total time for density update              :        1.378 s           1.375 s
          | Total time for mixing & preconditioning    :        0.154 s           0.155 s
          | Total time for Hartree multipole update    :        0.004 s           0.006 s
          | Total time for Hartree multipole sum       :        1.557 s           1.558 s
          | Total time for total energy evaluation     :        0.002 s           0.002 s
          | Total time for scaled ZORA corrections     :        0.000 s           0.000 s

 This is a stub MPI_ALLREDUCE call.
 You should not be here. Check your
 setting on the use_mpi variable, or
 link against true MPI-libraries.
