------------------------------------------------------------
          Invoking FHI-aims ...
          Version 171221_1
          Compiled on 2019/05/06 at 14:26:40 on host ffph0xx.

          When using FHI-aims, please cite the following reference:

          Volker Blum, Ralf Gehrke, Felix Hanke, Paula Havu,
          Ville Havu, Xinguo Ren, Karsten Reuter, and Matthias Scheffler,
          'Ab Initio Molecular Simulations with Numeric Atom-Centered Orbitals',
          Computer Physics Communications 180, 2175-2196 (2009)

          For any questions about FHI-aims, please visit the aimsclub website
          with its forums and wiki. Contributions to both the forums and the
          wiki are warmly encouraged - they are for you, and everyone is welcome there.

------------------------------------------------------------



  Date     :  20190514, Time     :  105048.883
  Time zero on CPU 1             :   0.741000000000000E-03  s.
  Internal wall clock time zero  :           327063048.883  s.

  FHI-aims created a unique identifier for this run for later identification
  aims_uuid : F14EE223-B128-49EE-A1AA-0C77B756F56C


  Performing system and environment tests:
  *** Environment variable OMP_NUM_THREADS is not set
  *** For performance reasons you might want to set it to 1
  | Stacksize not measured: no C compiler

  Obtaining array dimensions for all initial allocations:
  
  -----------------------------------------------------------------------
  Parsing control.in (first pass over file, find array dimensions only).
  The contents of control.in will be repeated verbatim below
  unless switched off by setting 'verbatim_writeout .false.' .
  in the first line of control.in .
  -----------------------------------------------------------------------
  
  #--- method ---
  xc pw-lda
  spin none
  relativistic atomic_zora scalar
  #---
  
  #--- k-grid settings ---
  k_grid 12 12 12
  #---
  
  
  
  
  
  
  
  
  
  
  
  #-------------------------------------------------------------------------------
  #--- Species defaults for Si
  #-------------------------------------------------------------------------------
  
  ################################################################################
  #
  #  FHI-aims code project
  #  VB, Fritz-Haber Institut, 2009
  #
  #  Suggested "light" defaults for Si atom (to be pasted into control.in file)
  #  Be sure to double-check any results obtained with these settings for post-processing,
  #  e.g., with the "tight" defaults and larger basis sets.
  #
  ################################################################################
    species        Si
  #     global species definitions
      nucleus             14
      mass                28.0855
  #
      l_hartree           4
  #
      cut_pot             3.5          1.5  1.0
      basis_dep_cutoff    1e-4
  #
      radial_base         42 5.0
      radial_multiplier   1
      angular_grids       specified
        division   0.5866   50
        division   0.9616  110
        division   1.2249  194
        division   1.3795  302
  #      division   1.4810  434
  #      division   1.5529  590
  #      division   1.6284  770
  #      division   1.7077  974
  #      division   2.4068 1202
  #      outer_grid   974
        outer_grid 302
  ################################################################################
  #
  #  Definition of "minimal" basis
  #
  ################################################################################
  #     valence basis states
      valence      3  s   2.
      valence      3  p   2.
  #     ion occupancy
      ion_occ      3  s   1.
      ion_occ      3  p   1.
  ################################################################################
  #
  #  Suggested additional basis functions. For production calculations,
  #  uncomment them one after another (the most important basis functions are
  #  listed first).
  #
  #  Constructed for dimers: 1.75 A, 2.0 A, 2.25 A, 2.75 A, 3.75 A
  #
  ################################################################################
  #  "First tier" - improvements: -571.96 meV to -37.03 meV
       hydro 3 d 4.2
       hydro 2 p 1.4
  #     hydro 4 f 6.2
       ionic 3 s auto
  #  "Second tier" - improvements: -16.76 meV to -3.03 meV
  #     hydro 3 d 9
  #     hydro 5 g 9.4
  #     hydro 4 p 4
  #     hydro 1 s 0.65
  #  "Third tier" - improvements: -3.89 meV to -0.60 meV
  #     ionic 3 d auto
  #     hydro 3 s 2.6
  #     hydro 4 f 8.4
  #     hydro 3 d 3.4
  #     hydro 3 p 7.8
  #  "Fourth tier" - improvements: -0.33 meV to -0.11 meV
  #     hydro 2 p 1.6
  #     hydro 5 g 10.8
  #     hydro 5 f 11.2
  #     hydro 3 d 1
  #     hydro 4 s 4.5
  #  Further basis functions that fell out of the optimization - noise
  #  level... < -0.08 meV
  #     hydro 4 d 6.6
  #     hydro 5 g 16.4
  #     hydro 4 d 9
  
  -----------------------------------------------------------------------
  Completed first pass over input file control.in .
  -----------------------------------------------------------------------
  
  
  -----------------------------------------------------------------------
  Parsing geometry.in (first pass over file, find array dimensions only).
  The contents of geometry.in will be repeated verbatim below
  unless switched off by setting 'verbatim_writeout .false.' .
  in the first line of geometry.in .
  -----------------------------------------------------------------------
  
  lattice_vector   0.000000   2.850000   2.850000
  lattice_vector   2.850000   0.000000   2.850000
  lattice_vector   2.850000   2.850000   0.000000
  atom_frac   0.000000   0.000000   0.000000 Si
  
  -----------------------------------------------------------------------
  Completed first pass over input file geometry.in .
  -----------------------------------------------------------------------
  

  Basic array size parameters:
  | Number of species                 :        1
  | Number of atoms                   :        1
  | Number of lattice vectors         :        3
  | Max. basis fn. angular momentum   :        2
  | Max. atomic/ionic basis occupied n:        3
  | Max. number of basis fn. types    :        3
  | Max. radial fns per species/type  :        5
  | Max. logarithmic grid size        :     1346
  | Max. radial integration grid size :       42
  | Max. angular integration grid size:      302
  | Max. angular grid division number :        8
  | Radial grid for Hartree potential :     1346
  | Number of spin channels           :        1

------------------------------------------------------------
          Reading file control.in.
------------------------------------------------------------
  XC: Using Perdew-Wang parametrisation of Ceperley-Alder LDA.
  Spin treatment: No spin polarisation.
  Scalar relativistic treatment of kinetic energy: on-site free-atom approximation to ZORA.
  Found k-point grid:        12        12        12

  Reading configuration options for species Si                  .
  | Found nuclear charge :  14.0000
  | Found atomic mass :    28.085500000000000      amu
  | Found l_max for Hartree potential  :   4
  | Found cutoff potl. onset [A], width [A], scale factor :    3.50000    1.50000    1.00000
  | Threshold for basis-dependent cutoff potential is   0.100000E-03
  | Found data for basic radial integration grid :    42 points, outermost radius =    5.000 A
  | Found multiplier for basic radial grid :   1
  | Found angular grid specification: user-specified.
  | Specified grid contains     5 separate shells.
  | Check grid settings after all constraints further below.
  | Found free-atom valence shell :  3 s   2.000
  | Found free-atom valence shell :  3 p   2.000
  | Found free-ion valence shell :  3 s   1.000
  | Found free-ion valence shell :  3 p   1.000
  | Found hydrogenic basis function :  3 d   4.200
  | Found hydrogenic basis function :  2 p   1.400
  | Found ionic basis function :  3 s , default cutoff radius.
  Species Si                  : Missing cutoff potential type.
  Defaulting to exp(1/x)/(1-x)^2 type cutoff potential.
  Species Si: No 'logarithmic' tag. Using default grid for free atom:
  | Default logarithmic grid data [bohr] : 0.1000E-03 0.1000E+03 0.1012E+01
  | Will include ionic basis functions of  2.0-fold positive Si                   ion.
  Species Si: On-site basis accuracy parameter (for Gram-Schmidt orthonormalisation) not specified.
  Using default value basis_acc =  0.1000000E-03.
  Species Si                  : Using default innermost maximum threshold i_radial=  2 for radial functions.
  Species Si                  : Default cutoff onset for free atom density etc. : 0.35000000E+01 AA.
  Species Si                  : Basic radial grid will be enhanced according to radial_multiplier =   1, to contain    42 grid points.

  Finished reading input file 'control.in'. Consistency checks are next.

  MPI_IN_PLACE appears to work with this MPI implementation.
  | Keeping use_mpi_in_place .true. (see manual).
  Target number of points in a grid batch is not set. Defaulting to  100
  Method for grid partitioning is not set. Defaulting to 'maxmin' partitioning.
  Batch size limit is not set. Defaulting to    200
  By default, will store active basis functions for each batch.
  If in need of memory, prune_basis_once .false. can be used to disable this option.
  communication_type for Hartree potential was not specified.
  Defaulting to calc_hartree .
 * Attention: 
 * You may want to set distributed_spline_storage to .true. in order to save memory.
 * This doesn't harm performance and is perfectly ok unless:
 * - you get error messages in postprocessing (about missing atoms in get_rho_multipole_spl)
 * - you need full spline storage in hirshfeld_analysis
  Defaulting to Pulay charge density mixer.
  Pulay mixer: Number of relevant iterations not set.
  Defaulting to    8 iterations.
  Pulay mixer: Number of initial linear mixing iterations not set.
  Defaulting to    0 iterations.
  Work space size for distributed Hartree potential not set.
  Defaulting to   0.200000E+03 MB.
  Mixing parameter for charge density mixing has not been set.
  Using default: charge_mix_param =     0.0500.
  The mixing parameter will be adjusted in iteration number     2 of the first full s.c.f. cycle only.
  Algorithm-dependent basis array size parameters:
  | n_max_pulay                         :        8
 * Notice: The s.c.f. convergence criterion sc_accuracy_rho was not provided.
 * We used to stop in this case, and ask the user to provide reasonable
 * scf convergence criteria. However, this led some users to employ criteria
 * that led to extremely long run times, e.g., for simple relaxation.
 * We now preset a default value for sc_accuracy_rho if it is not set.
 * You may still wish to check if this setting is too tight or too loose for your needs.
 * Based on n_atoms, FHI-aims chose sc_accuracy_rho =  0.100000E-05 .
  Maximum number of self-consistency iterations not provided.
  Presetting  1000 iterations.
  Presetting      1001 iterations before the initial mixing cycle
  is restarted anyway using the sc_init_iter criterion / keyword.
  Presetting a factor      1.000 between actual scf density residual
  and density convergence criterion sc_accuracy_rho below which sc_init_iter
  takes no effect.
 * No s.c.f. convergence criteria (sc_accuracy_*) were provided in control.in.
 * The run will proceed with a reasonable default guess, but please check whether.
 * the s.c.f. cycles seem to take too much or too little time.
  Calculation of forces was not defined in control.in. No forces will be calculated.
  Geometry relaxation not requested: no relaxation will be performed.
  No accuracy limit for integral partition fn. given. Defaulting to  0.1000E-14.
  No threshold value for u(r) in integrations given. Defaulting to  0.1000E-05.
  No occupation type (smearing scheme) given. Defaulting to Gaussian broadening, width =  0.1000E-01 eV.
  The width will be adjusted in iteration number     2 of the first full s.c.f. cycle only.
  S.C.F. convergence parameters will be adjusted in iteration number     2 of the first full s.c.f. cycle only.
  No accuracy for occupation numbers given. Defaulting to  0.1000E-12.
  No threshold value for occupation numbers given. Defaulting to  0.0000E+00.
  No accuracy for fermi level given. Defaulting to  0.1000E-19.
  Maximum # of iterations to find E_F not set. Defaulting to  200.
  Preferred method for the eigenvalue solver ('KS_method') not specified in 'control.in'.
  Defaulting to serial version, 'lapack_fast'.
  Will not use alltoall communication since running on < 1024 CPUs.
  Threshold for basis singularities not set.
  Default threshold for basis singularities:  0.1000E-04
  partition_type (choice of integration weights) for integrals was not specified.
  | Using a version of the partition function of Stratmann and coworkers ('stratmann_smoother').
  | At each grid point, the set of atoms used to build the partition table is smoothly restricted to
  | only those atoms whose free-atom density would be non-zero at that grid point.
  Partitioning for Hartree potential was not defined. Using partition_type for integrals.
  | Adjusted default value of keyword multip_moments_threshold to:       0.10000000E-11
  | This value may affect high angular momentum components of the Hartree potential in periodic systems.
  Angular momentum expansion for Kerker preconditioner not set explicitly.
  | Using default value of   0
  No explicit requirement for turning off preconditioner.
  | By default, it will be turned off when the charge convergence reaches
  | sc_accuracy_rho  =   0.100000E-05
  No special mixing parameter while Kerker preconditioner is on.
  Using default: charge_mix_param =     0.0500.
  No q(lm)/r^(l+1) cutoff set for long-range Hartree potential.
  | Using default value of  0.100000E-09 .
  | Verify using the multipole_threshold keyword.
  Defaulting to new monopole extrapolation.
  Density update method: automatic selection selected.
  Using density matrix based charge density update.
  Using density matrix based charge density update.
  Using packed matrix style: index .
  Defaulting to use time-reversal symmetry for k-point grid.
------------------------------------------------------------


------------------------------------------------------------
          Reading geometry description geometry.in.
------------------------------------------------------------
  Input structure read successfully.
  The structure contains        1 atoms,  and a total of         14.000 electrons.

  Input geometry:
  | Unit cell:
  |        0.00000000        2.85000000        2.85000000
  |        2.85000000        0.00000000        2.85000000
  |        2.85000000        2.85000000        0.00000000
  | Atomic structure:
  |       Atom                x [A]            y [A]            z [A]
  |    1: Species Si            0.00000000        0.00000000        0.00000000

  Lattice parameters for 3D lattice (in Angstroms) :     4.030509    4.030509    4.030509
  Angle(s) between unit vectors (in degrees)      :    60.000000   60.000000   60.000000

  |

  | The smallest distance between any two atoms is         4.03050865 AA.
  |
  | The first atom of this pair is atom number                      1 .
  | The second atom of this pair is atom number                     1 .
  | Wigner-Seitz cell of the first atom image          -1     0     1 .
  | (The Wigner-Seitz cell of the second atom is 0 0 0  by definition.)

  Quantities derived from the lattice vectors:
  | Reciprocal lattice vector 1: -1.102313  1.102313  1.102313
  | Reciprocal lattice vector 2:  1.102313 -1.102313  1.102313
  | Reciprocal lattice vector 3:  1.102313  1.102313 -1.102313
  | Unit cell volume                               :   0.462982E+02  A^3

  Range separation radius for Ewald summation (hartree_convergence_parameter):      5.00000000 bohr.

  Fractional coordinates:
                         L1                L2                L3
       atom_frac         0.00000000        0.00000000        0.00000000  Si

  Number of empty states per atom not set in control.in - providing a guess from actual geometry.
  | Total number of empty states used during s.c.f. cycle:        3
  If you use a very high smearing, use empty_states (per atom!) in control.in to increase this value.

  Structure-dependent array size parameters: 
  | Maximum number of distinct radial functions  :        8
  | Maximum number of basis functions            :       18
  | Number of Kohn-Sham states (occupied + empty):       10
------------------------------------------------------------

------------------------------------------------------------
          Preparing all fixed parts of the calculation.
------------------------------------------------------------
  Determining machine precision:
     2.2250738585072014E-308
  Setting up grids for atomic and cluster calculations.

  Creating wave function, potential, and density for free atoms.

  Species: Si

  List of occupied orbitals and eigenvalues:
    n    l              occ      energy [Ha]    energy [eV]
    1    0           2.0000       -65.491668     -1782.1190
    2    0           2.0000        -5.087967      -138.4506
    3    0           2.0000        -0.391471       -10.6525
    2    1           6.0000        -3.502246       -95.3010
    3    1           2.0000        -0.143943        -3.9169

  Creating fixed part of basis set: Ionic, confined, hydrogenic.

  Si                   ion:

  List of free ionic orbitals and eigenvalues:
    n    l      energy [Ha]    energy [eV]
    1    0       -66.364436     -1805.8682
    2    0        -5.935799      -161.5213
    3    0        -1.078166       -29.3384
    2    1        -4.351123      -118.4001
    3    1        -0.781733       -21.2720


  List of ionic basis orbitals and eigenvalues:
    n    l      energy [Ha]    energy [eV]    outer radius [A]
    3    0        -1.078146       -29.3378       4.214062


  Si                   hydrogenic:

  List of hydrogenic basis orbitals: 
    n    l      effective z      eigenvalue [eV]  inner max. [A]     outer max. [A]     outer radius [A]   
    3    2         4.200000       -26.6624           1.139231           1.139231           4.534782
    2    1         1.400000        -6.4613           1.472672           1.472672           4.590560


  Adding cutoff potential to free-atom effective potential.
  Creating atomic-like basis functions for current effective potential.

  Species Si                  :

  List of atomic basis orbitals and eigenvalues:
    n    l      energy [Ha]    energy [eV]    outer radius [A]
    1    0       -65.491668     -1782.1190       0.789468
    2    0        -5.087967      -138.4506       2.815114
    3    0        -0.391471       -10.6525       4.534782
    2    1        -3.502246       -95.3010       3.259919
    3    1        -0.143943        -3.9169       4.590560

  Assembling full basis from fixed parts.
  | Species Si :   atomic orbital   1 s accepted.
  | Species Si :   atomic orbital   2 s accepted.
  | Species Si :    ionic orbital   3 s accepted.
  | Species Si :   atomic orbital   3 s accepted.
  | Species Si :   atomic orbital   2 p accepted.
  | Species Si :   atomic orbital   3 p accepted.
  | Species Si :    hydro orbital   2 p accepted.
  | Species Si :    hydro orbital   3 d accepted.

  Basis size parameters after reduction:
  | Total number of radial functions:        8
  | Total number of basis functions :       18

  Per-task memory consumption for arrays in subroutine allocate_ext:
  |           2.757468MB.
  Testing on-site integration grid accuracy.
  |  Species  Function  <phi|h_atom|phi> (log., in eV)  <phi|h_atom|phi> (rad., in eV)
           1        1              -1782.1189727076              -1782.1182429251
           1        2               -138.4506350693               -138.4506310079
           1        3                -10.3030408815                -10.3029120678
           1        4                  5.0238999146                  4.9457540310 ***
           1        5                -95.3009689499                -95.3009689315
           1        6                 -3.9266496564                 -3.9420918374
           1        7                  6.3453628447                  6.1632372158 ***
           1        8                  6.2883050744                  6.2861881409
 * Note: Onsite integrals marked "***" above are less accurate than
 * onsite_accuracy_threshold =    0.03000 eV. Usually, this is harmless.
 * When in doubt, tighten the "radial" and/or "radial_multiplier" flags to check.

  Preparing densities etc. for the partition functions (integrals / Hartree potential).

  Preparations completed.
  max(cpu_time)          :      0.114 s.
  Wall clock time (cpu1) :      0.114 s.
------------------------------------------------------------

------------------------------------------------------------
          Begin self-consistency loop: Initialization.

          Date     :  20190514, Time     :  105049.000
------------------------------------------------------------

  Initializing index lists of integration centers etc. from given atomic structure:
  Mapping all atomic coordinates to central unit cell.

  Initializing the k-points
          Using symmetry for reducing the k-points
  | k-points reduced from:     1728 to      868
  | Number of k-points                             :       868
  The eigenvectors in the calculations are COMPLEX.
  | K-points in task   0:       868
  | Number of basis functions in the Hamiltonian integrals :       426
  | Number of basis functions in a single unit cell        :        18
  | Number of centers in hartree potential         :       429
  | Number of centers in hartree multipole         :       135
  | Number of centers in electron density summation:        79
  | Number of centers in basis integrals           :        81
  | Number of centers in integrals                 :        51
  | Number of centers in hamiltonian               :        79
  | Consuming       1085 KiB for k_phase.
  | Number of super-cells (origin) [n_cells]                     :        2197
  | Number of super-cells (after PM_index) [n_cells]             :          80
  | Number of super-cells in hamiltonian [n_cells_in_hamiltonian]:          80
  | Size of matrix packed + index [n_hamiltonian_matrix_size] :       10414
  Partitioning the integration grid into batches with maxmin method.
  | Maximal weight for a single point:     1.000
  | Minimal weight for a single point:     0.560
  | Number of batches:       64
  | Maximal batch size:      90
  | Minimal batch size:      85
  | Average batch size:      87.562
  | Standard deviation of batch sizes:       1.499
  Initializing partition tables, free-atom densities, potentials, etc. across the integration grid (initialize_grid_storage).
  | initialize_grid_storage: Actual outermost partition radius vs. multipole_radius_free
  | (-- VB: in principle, multipole_radius_free should be larger, hence this output)
  | Species        1: Confinement radius =              4.999999999999999 AA, multipole_radius_free =              5.000694715736543 AA.
  | Species        1: outer_partition_radius set to              5.000694715736543 AA .
  | Original list of interatomic distances with          81 x         81 entries is created.
  | Net number of integration points:     5604
  | of which are non-zero points    :     5310
  | Numerical average free-atom electrostatic potential    :     -5.68206207 eV
  Renormalizing the initial density to the exact electron count on the 3D integration grid.
  | Initial density: Formal number of electrons (from input files) :      14.0000000000
  | Integrated number of electrons on 3D grid     :      14.0001385382
  | Charge integration error                      :       0.0001385382
  | Normalization factor for density and gradient :       0.9999901045
  Obtaining max. number of non-zero basis functions in each batch (get_n_compute_maxes).
  | Maximal number of non-zero basis functions:      230 in task     0
  Allocating        2.500 MB for KS_eigenvector_complex
  Integrating Hamiltonian matrix: batch-based integration.
  Time summed over all CPUs for integration: real work        0.110 s, elapsed        0.110 s
  Integrating overlap matrix.
  Time summed over all CPUs for integration: real work        0.073 s, elapsed        0.073 s
  Decreasing sparse matrix size:
   Tolerance:   9.9999998245167004E-014
   Hamiltonian matrix
  | Array has     6663 nonzero elements out of    10414 elements
  | Sparsity factor is 0.360
   Overlap matrix
  | Array has     6167 nonzero elements out of    10414 elements
  | Sparsity factor is 0.408
  New size of hamiltonian matrix:        6802

  Updating Kohn-Sham eigenvalues, eigenvectors, occupation numbers, and Fermi level.
  Solving generalized eigenproblem
  Transforming overlap matrix and checking for singularities.
  Overlap matrix is nonsingular at first k-point:
  | Lowest eigenvalue:  0.390719E-01

  Obtaining occupation numbers and chemical potential using ELSI.
  | Chemical potential (Fermi level):    -4.51024712eV
  Writing Kohn-Sham eigenvalues.
  K-point:       1 at    0.000000    0.000000    0.000000 (in units of recip. lattice)

  State    Occupation    Eigenvalue [Ha]    Eigenvalue [eV]
      1       2.00000         -65.491652        -1782.11852
      2       2.00000          -5.087981         -138.45100
      3       2.00000          -3.502261          -95.30137
      4       2.00000          -3.502261          -95.30137
      5       2.00000          -3.502261          -95.30137
      6       2.00000          -0.450127          -12.24858
      7       0.00000          -0.065934           -1.79417
      8       0.00000          -0.065934           -1.79417
      9       0.00000          -0.065934           -1.79417
     10       0.00000           0.098152            2.67086

  What follows are estimated values for band gap, HOMO, LUMO, etc.
  | They are estimated on a discrete k-point grid and not necessarily exact.
  | For converged numbers, create a DOS and/or band structure plot on a denser k-grid.

  Highest occupied state (VBM) at     -4.51863600 eV (relative to internal zero)
  | Occupation number:      1.76452254
  | K-point:     698 at    0.583333    0.250000    0.250000 (in units of recip. lattice)

  Lowest unoccupied state (CBM) at    -4.50029760 eV (relative to internal zero)
  | Occupation number:      0.15940540
  | K-point:     785 at    0.750000    0.666667    0.250000 (in units of recip. lattice)

  ESTIMATED overall HOMO-LUMO gap:      0.01833840 eV between HOMO at k-point 698 and LUMO at k-point 785
  | This appears to be an indirect band gap.
  | Smallest direct gap :      0.94932092 eV for k_point 779 at    0.750000    0.666667    0.250000 (in units of recip. lattice)
  However, this system has fractional occupation numbers. Since we use a finite k-point grid,
  this material is metallic within the approximate finite broadening function (occupation_type)
  applied to determine the occupation numbers.
  Calculating total energy contributions from superposition of free atom densities.

  Total energy components:
  | Sum of eigenvalues            :        -163.37222818 Ha       -4445.58451774 eV
  | XC energy correction          :         -19.65206656 Ha        -534.75993944 eV
  | XC potential correction       :          25.96529711 Ha         706.55168321 eV
  | Free-atom electrostatic energy:        -132.19815435 Ha       -3597.29480830 eV
  | Hartree energy correction     :          -0.00000000 Ha          -0.00000000 eV
  | Entropy correction            :          -0.00000178 Ha          -0.00004850 eV
  | ---------------------------
  | Total energy                  :        -289.25715199 Ha       -7871.08758227 eV
  | Total energy, T -> 0          :        -289.25715378 Ha       -7871.08763078 eV  <-- do not rely on this value for anything but (periodic) metals
  | Electronic free energy        :        -289.25715556 Ha       -7871.08767928 eV

  Derived energy quantities:
  | Kinetic energy                :         289.54535465 Ha        7878.92997562 eV
  | Electrostatic energy          :        -559.15044008 Ha      -15215.25761846 eV
  | Energy correction for multipole
  | error in Hartree potential    :           0.00000000 Ha           0.00000000 eV
  | Sum of eigenvalues per atom                           :       -4445.58451774 eV
  | Total energy (T->0) per atom                          :       -7871.08763078 eV  <-- do not rely on this value for anything but (periodic) metals
  | Electronic free energy per atom                       :       -7871.08767928 eV
  Initialize hartree_potential_storage
  Max. number of atoms included in rho_multipole:            1

  End scf initialization - timings             :  max(cpu_time)    wall_clock(cpu1)
  | Time for scf. initialization               :        0.510 s           0.512 s
  | Boundary condition initialization          :        0.031 s           0.031 s
  | Integration                                :        0.183 s           0.183 s
  | Solution of K.-S. eqns.                    :        0.248 s           0.248 s
  | Grid partitioning                          :        0.010 s           0.010 s
  | Preloading free-atom quantities on grid    :        0.001 s           0.001 s
  | Free-atom superposition energy             :        0.009 s           0.009 s
  | Total energy evaluation                    :        0.000 s           0.000 s

  Partial memory accounting:
  | Current value for overall tracked memory usage on task 0  :           2.636 MB
  | Peak value for overall tracked memory usage on task 0     :           3.628 MB after allocating wave
  | Largest tracked array allocation on task 0 so far         :           2.500 MB  when allocating +KS_eigenvector_complex
  Note:  These values currently only include a subset of arrays which are explicitly tracked.
  The "true" memory usage will be greater.
------------------------------------------------------------

------------------------------------------------------------
          Begin self-consistency iteration #    1

  Date     :  20190514, Time     :  105049.512
------------------------------------------------------------
  Evaluating new KS density using the density matrix
  Evaluating density matrix
  Time summed over all CPUs for getting density from density matrix: real work        0.149 s, elapsed        0.149 s
  Integration grid: deviation in total charge (<rho> - N_e) =  -2.398082E-13
  Pulay mixing of updated and previous charge densities.

  Evaluating partitioned Hartree potential by multipole expansion.
  | Analytical far-field extrapolation by fixed multipoles:
  | Hartree multipole sum: apparent total charge =  -0.120671E-05
  Summing up the Hartree potential.
  | Estimated reciprocal-space cutoff momentum G_max:         1.84432723 bohr^-1 .
  | Reciprocal lattice points for long-range Hartree potential:      26
  Time summed over all CPUs for potential: real work        0.126 s, elapsed        0.126 s
  | RMS charge density error from multipole expansion :   0.100189E-03
  | Average real-space part of the electrostatic potential :     -0.01333687 eV

  Integrating Hamiltonian matrix: batch-based integration.
  Time summed over all CPUs for integration: real work        0.098 s, elapsed        0.098 s

  Updating Kohn-Sham eigenvalues, eigenvectors, occupation numbers, and Fermi level.
  Solving generalized eigenproblem

  Obtaining occupation numbers and chemical potential using ELSI.
  | Chemical potential (Fermi level):    -4.52061050eV
  Writing Kohn-Sham eigenvalues.
  K-point:       1 at    0.000000    0.000000    0.000000 (in units of recip. lattice)

  State    Occupation    Eigenvalue [Ha]    Eigenvalue [eV]
      1       2.00000         -65.494471        -1782.19524
      2       2.00000          -5.089922         -138.50384
      3       2.00000          -3.504263          -95.35585
      4       2.00000          -3.504263          -95.35585
      5       2.00000          -3.504263          -95.35585
      6       2.00000          -0.450607          -12.26164
      7       0.00000          -0.066496           -1.80946
      8       0.00000          -0.066496           -1.80946
      9       0.00000          -0.066496           -1.80946
     10       0.00000           0.097627            2.65656

  What follows are estimated values for band gap, HOMO, LUMO, etc.
  | They are estimated on a discrete k-point grid and not necessarily exact.
  | For converged numbers, create a DOS and/or band structure plot on a denser k-grid.

  Highest occupied state (VBM) at     -4.52905427 eV (relative to internal zero)
  | Occupation number:      1.76757240
  | K-point:      42 at    0.000000    0.333333    0.750000 (in units of recip. lattice)

  Lowest unoccupied state (CBM) at    -4.51062448 eV (relative to internal zero)
  | Occupation number:      0.15788032
  | K-point:     742 at    0.666667    0.416667    0.916667 (in units of recip. lattice)

  ESTIMATED overall HOMO-LUMO gap:      0.01842979 eV between HOMO at k-point 42 and LUMO at k-point 742
  | This appears to be an indirect band gap.
  | Smallest direct gap :      0.94915234 eV for k_point 779 at    0.666667    0.416667    0.916667 (in units of recip. lattice)
  However, this system has fractional occupation numbers. Since we use a finite k-point grid,
  this material is metallic within the approximate finite broadening function (occupation_type)
  applied to determine the occupation numbers.

  Total energy components:
  | Sum of eigenvalues            :        -163.39562440 Ha       -4446.22116116 eV
  | XC energy correction          :         -19.65015372 Ha        -534.70788829 eV
  | XC potential correction       :          25.96277443 Ha         706.48303760 eV
  | Free-atom electrostatic energy:        -132.19815435 Ha       -3597.29480830 eV
  | Hartree energy correction     :           0.02412977 Ha           0.65660434 eV
  | Entropy correction            :          -0.00000177 Ha          -0.00004811 eV
  | ---------------------------
  | Total energy                  :        -289.25702828 Ha       -7871.08421582 eV
  | Total energy, T -> 0          :        -289.25703005 Ha       -7871.08426394 eV  <-- do not rely on this value for anything but (periodic) metals
  | Electronic free energy        :        -289.25703182 Ha       -7871.08431205 eV

  Derived energy quantities:
  | Kinetic energy                :         289.52559059 Ha        7878.39216825 eV
  | Electrostatic energy          :        -559.13246516 Ha      -15214.76849577 eV
  | Energy correction for multipole
  | error in Hartree potential    :           0.00000805 Ha           0.00021904 eV
  | Sum of eigenvalues per atom                           :       -4446.22116116 eV
  | Total energy (T->0) per atom                          :       -7871.08426394 eV  <-- do not rely on this value for anything but (periodic) metals
  | Electronic free energy per atom                       :       -7871.08431205 eV

  Self-consistency convergence accuracy:
  | Change of charge density      :  0.3085E-01
  | Change of sum of eigenvalues  : -0.6366E+00 eV
  | Change of total energy        :  0.3366E-02 eV

  End self-consistency iteration #     1       :  max(cpu_time)    wall_clock(cpu1)
  | Time for this iteration                    :        0.516 s           0.518 s
  | Charge density update                      :        0.162 s           0.163 s
  | Density mixing & preconditioning           :        0.016 s           0.016 s
  | Hartree multipole update                   :        0.000 s           0.000 s
  | Hartree multipole summation                :        0.127 s           0.127 s
  | Integration                                :        0.097 s           0.098 s
  | Solution of K.-S. eqns.                    :        0.112 s           0.112 s
  | Total energy evaluation                    :        0.000 s           0.001 s

  Partial memory accounting:
  | Current value for overall tracked memory usage on task 0  :           2.636 MB
  | Peak value for overall tracked memory usage on task 0     :           3.628 MB after allocating wave
  | Largest tracked array allocation on task 0 so far         :           2.500 MB  when allocating +KS_eigenvector_complex
  Note:  These values currently only include a subset of arrays which are explicitly tracked.
  The "true" memory usage will be greater.
------------------------------------------------------------

------------------------------------------------------------
          Begin self-consistency iteration #    2

  Date     :  20190514, Time     :  105050.030
------------------------------------------------------------
  Evaluating new KS density using the density matrix
  Evaluating density matrix
  Time summed over all CPUs for getting density from density matrix: real work        0.150 s, elapsed        0.150 s
  Integration grid: deviation in total charge (<rho> - N_e) =  -4.742873E-13
  Pulay mixing of updated and previous charge densities.

  Evaluating partitioned Hartree potential by multipole expansion.
  | Analytical far-field extrapolation by fixed multipoles:
  | Hartree multipole sum: apparent total charge =  -0.254430E-02
  Summing up the Hartree potential.
  Time summed over all CPUs for potential: real work        0.162 s, elapsed        0.162 s
  | RMS charge density error from multipole expansion :   0.190455E-02
  | Average real-space part of the electrostatic potential :     -0.23810053 eV

  Integrating Hamiltonian matrix: batch-based integration.
  Time summed over all CPUs for integration: real work        0.096 s, elapsed        0.096 s

  Updating Kohn-Sham eigenvalues, eigenvectors, occupation numbers, and Fermi level.
  Solving generalized eigenproblem

  Obtaining occupation numbers and chemical potential using ELSI.
  | Chemical potential (Fermi level):    -4.70074149eV
  What follows are estimated values for band gap, HOMO, LUMO, etc.
  | They are estimated on a discrete k-point grid and not necessarily exact.
  | For converged numbers, create a DOS and/or band structure plot on a denser k-grid.

  Highest occupied state (VBM) at     -4.71010702 eV (relative to internal zero)
  | Occupation number:      1.81465811
  | K-point:     480 at    0.333333    0.750000    0.000000 (in units of recip. lattice)

  Lowest unoccupied state (CBM) at    -4.69015459 eV (relative to internal zero)
  | Occupation number:      0.13433769
  | K-point:     587 at    0.416667    0.666667    0.916667 (in units of recip. lattice)

  ESTIMATED overall HOMO-LUMO gap:      0.01995242 eV between HOMO at k-point 480 and LUMO at k-point 587
  | This appears to be an indirect band gap.
  | Smallest direct gap :      0.94572558 eV for k_point 680 at    0.416667    0.666667    0.916667 (in units of recip. lattice)
  However, this system has fractional occupation numbers. Since we use a finite k-point grid,
  this material is metallic within the approximate finite broadening function (occupation_type)
  applied to determine the occupation numbers.

  Checking to see if s.c.f. parameters should be adjusted.
  Adjusted the Pulay mixing parameter (charge_mix_param) for an expected low-gap system. New value:   0.020000 .
  Adjusted the occupation broadening width for an expected low-gap system. New value:      0.05000000 eV.

  Total energy components:
  | Sum of eigenvalues            :        -163.78133306 Ha       -4456.71682777 eV
  | XC energy correction          :         -19.61666281 Ha        -533.79655439 eV
  | XC potential correction       :          25.91860421 Ha         705.28110483 eV
  | Free-atom electrostatic energy:        -132.19815435 Ha       -3597.29480830 eV
  | Hartree energy correction     :           0.42176267 Ha          11.47674631 eV
  | Entropy correction            :          -0.00003391 Ha          -0.00092277 eV
  | ---------------------------
  | Total energy                  :        -289.25578334 Ha       -7871.05033932 eV
  | Total energy, T -> 0          :        -289.25581725 Ha       -7871.05126210 eV  <-- do not rely on this value for anything but (periodic) metals
  | Electronic free energy        :        -289.25585116 Ha       -7871.05218487 eV

  Derived energy quantities:
  | Kinetic energy                :         289.25029753 Ha        7870.90106296 eV
  | Electrostatic energy          :        -558.88941806 Ha      -15208.15484789 eV
  | Energy correction for multipole
  | error in Hartree potential    :           0.00017285 Ha           0.00470353 eV
  | Sum of eigenvalues per atom                           :       -4456.71682777 eV
  | Total energy (T->0) per atom                          :       -7871.05126210 eV  <-- do not rely on this value for anything but (periodic) metals
  | Electronic free energy per atom                       :       -7871.05218487 eV

  Self-consistency convergence accuracy:
  | Change of charge density      :  0.2933E-01
  | Change of sum of eigenvalues  : -0.1050E+02 eV
  | Change of total energy        :  0.3388E-01 eV

  End self-consistency iteration #     2       :  max(cpu_time)    wall_clock(cpu1)
  | Time for this iteration                    :        0.554 s           0.556 s
  | Charge density update                      :        0.163 s           0.164 s
  | Density mixing & preconditioning           :        0.017 s           0.016 s
  | Hartree multipole update                   :        0.000 s           0.001 s
  | Hartree multipole summation                :        0.163 s           0.163 s
  | Integration                                :        0.096 s           0.096 s
  | Solution of K.-S. eqns.                    :        0.116 s           0.116 s
  | Total energy evaluation                    :        0.000 s           0.000 s

  Partial memory accounting:
  | Current value for overall tracked memory usage on task 0  :           2.637 MB
  | Peak value for overall tracked memory usage on task 0     :           3.628 MB after allocating wave
  | Largest tracked array allocation on task 0 so far         :           2.500 MB  when allocating +KS_eigenvector_complex
  Note:  These values currently only include a subset of arrays which are explicitly tracked.
  The "true" memory usage will be greater.
------------------------------------------------------------

------------------------------------------------------------
          Begin self-consistency iteration #    3

  Date     :  20190514, Time     :  105050.586
------------------------------------------------------------
  Evaluating new KS density using the density matrix
  Evaluating density matrix
  Time summed over all CPUs for getting density from density matrix: real work        0.155 s, elapsed        0.155 s
  Integration grid: deviation in total charge (<rho> - N_e) =  -2.842171E-13
  Pulay mixing of updated and previous charge densities.

  Evaluating partitioned Hartree potential by multipole expansion.
  | Analytical far-field extrapolation by fixed multipoles:
  | Hartree multipole sum: apparent total charge =  -0.359612E-02
  Summing up the Hartree potential.
  Time summed over all CPUs for potential: real work        0.172 s, elapsed        0.172 s
  | RMS charge density error from multipole expansion :   0.247416E-02
  | Average real-space part of the electrostatic potential :     -0.31602137 eV

  Integrating Hamiltonian matrix: batch-based integration.
  Time summed over all CPUs for integration: real work        0.108 s, elapsed        0.108 s

  Updating Kohn-Sham eigenvalues, eigenvectors, occupation numbers, and Fermi level.
  Solving generalized eigenproblem

  Obtaining occupation numbers and chemical potential using ELSI.
  | Chemical potential (Fermi level):    -4.77180629eV
  What follows are estimated values for band gap, HOMO, LUMO, etc.
  | They are estimated on a discrete k-point grid and not necessarily exact.
  | For converged numbers, create a DOS and/or band structure plot on a denser k-grid.

  Highest occupied state (VBM) at     -4.81746944 eV (relative to internal zero)
  | Occupation number:      1.80348654
  | K-point:     423 at    0.333333    0.166667    0.666667 (in units of recip. lattice)

  Lowest unoccupied state (CBM) at    -4.76829483 eV (relative to internal zero)
  | Occupation number:      0.92088480
  | K-point:      32 at    0.000000    0.250000    0.666667 (in units of recip. lattice)

  ESTIMATED overall HOMO-LUMO gap:      0.04917461 eV between HOMO at k-point 423 and LUMO at k-point 32
  | This appears to be an indirect band gap.
  | Smallest direct gap :      0.94471567 eV for k_point 680 at    0.000000    0.250000    0.666667 (in units of recip. lattice)
  However, this system has fractional occupation numbers. Since we use a finite k-point grid,
  this material is metallic within the approximate finite broadening function (occupation_type)
  applied to determine the occupation numbers.

  Total energy components:
  | Sum of eigenvalues            :        -163.88051190 Ha       -4459.41562125 eV
  | XC energy correction          :         -19.60934754 Ha        -533.59749561 eV
  | XC potential correction       :          25.90898773 Ha         705.01942703 eV
  | Free-atom electrostatic energy:        -132.19815435 Ha       -3597.29480830 eV
  | Hartree energy correction     :           0.52331395 Ha          14.24009702 eV
  | Entropy correction            :          -0.00002884 Ha          -0.00078483 eV
  | ---------------------------
  | Total energy                  :        -289.25571211 Ha       -7871.04840111 eV
  | Total energy, T -> 0          :        -289.25574095 Ha       -7871.04918594 eV  <-- do not rely on this value for anything but (periodic) metals
  | Electronic free energy        :        -289.25576980 Ha       -7871.04997077 eV

  Derived energy quantities:
  | Kinetic energy                :         289.22484737 Ha        7870.20852868 eV
  | Electrostatic energy          :        -558.87121194 Ha      -15207.65943418 eV
  | Energy correction for multipole
  | error in Hartree potential    :           0.00024406 Ha           0.00664108 eV
  | Sum of eigenvalues per atom                           :       -4459.41562125 eV
  | Total energy (T->0) per atom                          :       -7871.04918594 eV  <-- do not rely on this value for anything but (periodic) metals
  | Electronic free energy per atom                       :       -7871.04997077 eV

  Self-consistency convergence accuracy:
  | Change of charge density      :  0.7578E-02
  | Change of sum of eigenvalues  : -0.2699E+01 eV
  | Change of total energy        :  0.1938E-02 eV

  End self-consistency iteration #     3       :  max(cpu_time)    wall_clock(cpu1)
  | Time for this iteration                    :        0.586 s           0.588 s
  | Charge density update                      :        0.169 s           0.170 s
  | Density mixing & preconditioning           :        0.016 s           0.016 s
  | Hartree multipole update                   :        0.001 s           0.000 s
  | Hartree multipole summation                :        0.174 s           0.175 s
  | Integration                                :        0.108 s           0.108 s
  | Solution of K.-S. eqns.                    :        0.118 s           0.118 s
  | Total energy evaluation                    :        0.000 s           0.000 s

  Partial memory accounting:
  | Current value for overall tracked memory usage on task 0  :           2.638 MB
  | Peak value for overall tracked memory usage on task 0     :           3.628 MB after allocating wave
  | Largest tracked array allocation on task 0 so far         :           2.500 MB  when allocating +KS_eigenvector_complex
  Note:  These values currently only include a subset of arrays which are explicitly tracked.
  The "true" memory usage will be greater.
------------------------------------------------------------

------------------------------------------------------------
          Begin self-consistency iteration #    4

  Date     :  20190514, Time     :  105051.174
------------------------------------------------------------
  Evaluating new KS density using the density matrix
  Evaluating density matrix
  Time summed over all CPUs for getting density from density matrix: real work        0.160 s, elapsed        0.160 s
  Integration grid: deviation in total charge (<rho> - N_e) =  -3.534950E-13
  Pulay mixing of updated and previous charge densities.

  Evaluating partitioned Hartree potential by multipole expansion.
  | Analytical far-field extrapolation by fixed multipoles:
  | Hartree multipole sum: apparent total charge =  -0.361300E-02
  Summing up the Hartree potential.
  Time summed over all CPUs for potential: real work        0.171 s, elapsed        0.171 s
  | RMS charge density error from multipole expansion :   0.230986E-02
  | Average real-space part of the electrostatic potential :     -0.30377189 eV

  Integrating Hamiltonian matrix: batch-based integration.
  Time summed over all CPUs for integration: real work        0.102 s, elapsed        0.102 s

  Updating Kohn-Sham eigenvalues, eigenvectors, occupation numbers, and Fermi level.
  Solving generalized eigenproblem

  Obtaining occupation numbers and chemical potential using ELSI.
  | Chemical potential (Fermi level):    -4.75650717eV
  What follows are estimated values for band gap, HOMO, LUMO, etc.
  | They are estimated on a discrete k-point grid and not necessarily exact.
  | For converged numbers, create a DOS and/or band structure plot on a denser k-grid.

  Highest occupied state (VBM) at     -4.80220249 eV (relative to internal zero)
  | Occupation number:      1.80380172
  | K-point:     423 at    0.333333    0.166667    0.666667 (in units of recip. lattice)

  Lowest unoccupied state (CBM) at    -4.75320654 eV (relative to internal zero)
  | Occupation number:      0.92562072
  | K-point:      32 at    0.000000    0.250000    0.666667 (in units of recip. lattice)

  ESTIMATED overall HOMO-LUMO gap:      0.04899596 eV between HOMO at k-point 423 and LUMO at k-point 32
  | This appears to be an indirect band gap.
  | Smallest direct gap :      0.94564327 eV for k_point 680 at    0.000000    0.250000    0.666667 (in units of recip. lattice)
  However, this system has fractional occupation numbers. Since we use a finite k-point grid,
  this material is metallic within the approximate finite broadening function (occupation_type)
  applied to determine the occupation numbers.

  Total energy components:
  | Sum of eigenvalues            :        -163.81443051 Ha       -4457.61745533 eV
  | XC energy correction          :         -19.61633238 Ha        -533.78756291 eV
  | XC potential correction       :          25.91824405 Ha         705.27130433 eV
  | Free-atom electrostatic energy:        -132.19815435 Ha       -3597.29480830 eV
  | Hartree energy correction     :           0.45496890 Ha          12.38033380 eV
  | Entropy correction            :          -0.00002863 Ha          -0.00077912 eV
  | ---------------------------
  | Total energy                  :        -289.25570430 Ha       -7871.04818841 eV
  | Total energy, T -> 0          :        -289.25573293 Ha       -7871.04896753 eV  <-- do not rely on this value for anything but (periodic) metals
  | Electronic free energy        :        -289.25576156 Ha       -7871.04974665 eV

  Derived energy quantities:
  | Kinetic energy                :         289.33150734 Ha        7873.11089422 eV
  | Electrostatic energy          :        -558.97087926 Ha      -15210.37151972 eV
  | Energy correction for multipole
  | error in Hartree potential    :           0.00024054 Ha           0.00654551 eV
  | Sum of eigenvalues per atom                           :       -4457.61745533 eV
  | Total energy (T->0) per atom                          :       -7871.04896753 eV  <-- do not rely on this value for anything but (periodic) metals
  | Electronic free energy per atom                       :       -7871.04974665 eV

  Self-consistency convergence accuracy:
  | Change of charge density      :  0.6704E-02
  | Change of sum of eigenvalues  :  0.1798E+01 eV
  | Change of total energy        :  0.2127E-03 eV

  End self-consistency iteration #     4       :  max(cpu_time)    wall_clock(cpu1)
  | Time for this iteration                    :        0.578 s           0.581 s
  | Charge density update                      :        0.173 s           0.174 s
  | Density mixing & preconditioning           :        0.016 s           0.016 s
  | Hartree multipole update                   :        0.000 s           0.001 s
  | Hartree multipole summation                :        0.172 s           0.172 s
  | Integration                                :        0.102 s           0.102 s
  | Solution of K.-S. eqns.                    :        0.115 s           0.115 s
  | Total energy evaluation                    :        0.000 s           0.000 s

  Partial memory accounting:
  | Current value for overall tracked memory usage on task 0  :           2.638 MB
  | Peak value for overall tracked memory usage on task 0     :           3.628 MB after allocating wave
  | Largest tracked array allocation on task 0 so far         :           2.500 MB  when allocating +KS_eigenvector_complex
  Note:  These values currently only include a subset of arrays which are explicitly tracked.
  The "true" memory usage will be greater.
------------------------------------------------------------

------------------------------------------------------------
          Begin self-consistency iteration #    5

  Date     :  20190514, Time     :  105051.755
------------------------------------------------------------
  Evaluating new KS density using the density matrix
  Evaluating density matrix
  Time summed over all CPUs for getting density from density matrix: real work        0.151 s, elapsed        0.151 s
  Integration grid: deviation in total charge (<rho> - N_e) =  -3.748113E-13
  Pulay mixing of updated and previous charge densities.

  Evaluating partitioned Hartree potential by multipole expansion.
  | Analytical far-field extrapolation by fixed multipoles:
  | Hartree multipole sum: apparent total charge =  -0.314913E-02
  Summing up the Hartree potential.
  Time summed over all CPUs for potential: real work        0.164 s, elapsed        0.164 s
  | RMS charge density error from multipole expansion :   0.237782E-02
  | Average real-space part of the electrostatic potential :     -0.31564328 eV

  Integrating Hamiltonian matrix: batch-based integration.
  Time summed over all CPUs for integration: real work        0.098 s, elapsed        0.098 s

  Updating Kohn-Sham eigenvalues, eigenvectors, occupation numbers, and Fermi level.
  Solving generalized eigenproblem

  Obtaining occupation numbers and chemical potential using ELSI.
  | Chemical potential (Fermi level):    -4.76313061eV
  What follows are estimated values for band gap, HOMO, LUMO, etc.
  | They are estimated on a discrete k-point grid and not necessarily exact.
  | For converged numbers, create a DOS and/or band structure plot on a denser k-grid.

  Highest occupied state (VBM) at     -4.80883564 eV (relative to internal zero)
  | Occupation number:      1.80389671
  | K-point:     638 at    0.500000    0.166667    0.833333 (in units of recip. lattice)

  Lowest unoccupied state (CBM) at    -4.75976453 eV (relative to internal zero)
  | Occupation number:      0.92415016
  | K-point:      32 at    0.000000    0.250000    0.666667 (in units of recip. lattice)

  ESTIMATED overall HOMO-LUMO gap:      0.04907111 eV between HOMO at k-point 638 and LUMO at k-point 32
  | This appears to be an indirect band gap.
  | Smallest direct gap :      0.94550464 eV for k_point 680 at    0.000000    0.250000    0.666667 (in units of recip. lattice)
  However, this system has fractional occupation numbers. Since we use a finite k-point grid,
  this material is metallic within the approximate finite broadening function (occupation_type)
  applied to determine the occupation numbers.

  Total energy components:
  | Sum of eigenvalues            :        -163.82900075 Ha       -4458.01393152 eV
  | XC energy correction          :         -19.61489810 Ha        -533.74853410 eV
  | XC potential correction       :          25.91635433 Ha         705.21988257 eV
  | Free-atom electrostatic energy:        -132.19815435 Ha       -3597.29480830 eV
  | Hartree energy correction     :           0.46999664 Ha          12.78925925 eV
  | Entropy correction            :          -0.00002870 Ha          -0.00078105 eV
  | ---------------------------
  | Total energy                  :        -289.25570223 Ha       -7871.04813211 eV
  | Total energy, T -> 0          :        -289.25573093 Ha       -7871.04891316 eV  <-- do not rely on this value for anything but (periodic) metals
  | Electronic free energy        :        -289.25575963 Ha       -7871.04969421 eV

  Derived energy quantities:
  | Kinetic energy                :         289.32024398 Ha        7872.80440250 eV
  | Electrostatic energy          :        -558.96104811 Ha      -15210.10400051 eV
  | Energy correction for multipole
  | error in Hartree potential    :           0.00024886 Ha           0.00677193 eV
  | Sum of eigenvalues per atom                           :       -4458.01393152 eV
  | Total energy (T->0) per atom                          :       -7871.04891316 eV  <-- do not rely on this value for anything but (periodic) metals
  | Electronic free energy per atom                       :       -7871.04969421 eV

  Self-consistency convergence accuracy:
  | Change of charge density      :  0.1257E-02
  | Change of sum of eigenvalues  : -0.3965E+00 eV
  | Change of total energy        :  0.5630E-04 eV

  End self-consistency iteration #     5       :  max(cpu_time)    wall_clock(cpu1)
  | Time for this iteration                    :        0.555 s           0.557 s
  | Charge density update                      :        0.164 s           0.164 s
  | Density mixing & preconditioning           :        0.016 s           0.016 s
  | Hartree multipole update                   :        0.001 s           0.001 s
  | Hartree multipole summation                :        0.166 s           0.166 s
  | Integration                                :        0.098 s           0.098 s
  | Solution of K.-S. eqns.                    :        0.111 s           0.111 s
  | Total energy evaluation                    :        0.000 s           0.001 s

  Partial memory accounting:
  | Current value for overall tracked memory usage on task 0  :           2.638 MB
  | Peak value for overall tracked memory usage on task 0     :           3.628 MB after allocating wave
  | Largest tracked array allocation on task 0 so far         :           2.500 MB  when allocating +KS_eigenvector_complex
  Note:  These values currently only include a subset of arrays which are explicitly tracked.
  The "true" memory usage will be greater.
------------------------------------------------------------

------------------------------------------------------------
          Begin self-consistency iteration #    6

  Date     :  20190514, Time     :  105052.312
------------------------------------------------------------
  Evaluating new KS density using the density matrix
  Evaluating density matrix
  Time summed over all CPUs for getting density from density matrix: real work        0.150 s, elapsed        0.150 s
  Integration grid: deviation in total charge (<rho> - N_e) =  -1.953993E-13
  Pulay mixing of updated and previous charge densities.

  Evaluating partitioned Hartree potential by multipole expansion.
  | Analytical far-field extrapolation by fixed multipoles:
  | Hartree multipole sum: apparent total charge =  -0.338826E-03
  Summing up the Hartree potential.
  Time summed over all CPUs for potential: real work        0.177 s, elapsed        0.177 s
  | RMS charge density error from multipole expansion :   0.234216E-02
  | Average real-space part of the electrostatic potential :     -0.32613330 eV

  Integrating Hamiltonian matrix: batch-based integration.
  Time summed over all CPUs for integration: real work        0.111 s, elapsed        0.111 s

  Updating Kohn-Sham eigenvalues, eigenvectors, occupation numbers, and Fermi level.
  Solving generalized eigenproblem

  Obtaining occupation numbers and chemical potential using ELSI.
  | Chemical potential (Fermi level):    -4.75808501eV
  What follows are estimated values for band gap, HOMO, LUMO, etc.
  | They are estimated on a discrete k-point grid and not necessarily exact.
  | For converged numbers, create a DOS and/or band structure plot on a denser k-grid.

  Highest occupied state (VBM) at     -4.80379922 eV (relative to internal zero)
  | Occupation number:      1.80398658
  | K-point:     258 at    0.166667    0.666667    0.333333 (in units of recip. lattice)

  Lowest unoccupied state (CBM) at    -4.75475723 eV (relative to internal zero)
  | Occupation number:      0.92501085
  | K-point:     363 at    0.250000    0.666667    0.000000 (in units of recip. lattice)

  ESTIMATED overall HOMO-LUMO gap:      0.04904199 eV between HOMO at k-point 258 and LUMO at k-point 363
  | This appears to be an indirect band gap.
  | Smallest direct gap :      0.94572540 eV for k_point 376 at    0.250000    0.666667    0.000000 (in units of recip. lattice)
  However, this system has fractional occupation numbers. Since we use a finite k-point grid,
  this material is metallic within the approximate finite broadening function (occupation_type)
  applied to determine the occupation numbers.

  Total energy components:
  | Sum of eigenvalues            :        -163.82369047 Ha       -4457.86943166 eV
  | XC energy correction          :         -19.61419328 Ha        -533.72935494 eV
  | XC potential correction       :          25.91543117 Ha         705.19476192 eV
  | Free-atom electrostatic energy:        -132.19815435 Ha       -3597.29480830 eV
  | Hartree energy correction     :           0.46490427 Ha          12.65068881 eV
  | Entropy correction            :          -0.00002867 Ha          -0.00078004 eV
  | ---------------------------
  | Total energy                  :        -289.25570267 Ha       -7871.04814417 eV
  | Total energy, T -> 0          :        -289.25573134 Ha       -7871.04892421 eV  <-- do not rely on this value for anything but (periodic) metals
  | Electronic free energy        :        -289.25576000 Ha       -7871.04970425 eV

  Derived energy quantities:
  | Kinetic energy                :         289.31393780 Ha        7872.63280270 eV
  | Electrostatic energy          :        -558.95544719 Ha      -15209.95159193 eV
  | Energy correction for multipole
  | error in Hartree potential    :           0.00024737 Ha           0.00673116 eV
  | Sum of eigenvalues per atom                           :       -4457.86943166 eV
  | Total energy (T->0) per atom                          :       -7871.04892421 eV  <-- do not rely on this value for anything but (periodic) metals
  | Electronic free energy per atom                       :       -7871.04970425 eV

  Self-consistency convergence accuracy:
  | Change of charge density      :  0.8154E-03
  | Change of sum of eigenvalues  :  0.1445E+00 eV
  | Change of total energy        : -0.1206E-04 eV

  End self-consistency iteration #     6       :  max(cpu_time)    wall_clock(cpu1)
  | Time for this iteration                    :        0.585 s           0.588 s
  | Charge density update                      :        0.162 s           0.163 s
  | Density mixing & preconditioning           :        0.016 s           0.017 s
  | Hartree multipole update                   :        0.000 s           0.000 s
  | Hartree multipole summation                :        0.179 s           0.179 s
  | Integration                                :        0.110 s           0.111 s
  | Solution of K.-S. eqns.                    :        0.117 s           0.117 s
  | Total energy evaluation                    :        0.000 s           0.001 s

  Partial memory accounting:
  | Current value for overall tracked memory usage on task 0  :           2.638 MB
  | Peak value for overall tracked memory usage on task 0     :           3.628 MB after allocating wave
  | Largest tracked array allocation on task 0 so far         :           2.500 MB  when allocating +KS_eigenvector_complex
  Note:  These values currently only include a subset of arrays which are explicitly tracked.
  The "true" memory usage will be greater.
------------------------------------------------------------

------------------------------------------------------------
          Begin self-consistency iteration #    7

  Date     :  20190514, Time     :  105052.900
------------------------------------------------------------
  Evaluating new KS density using the density matrix
  Evaluating density matrix
  Time summed over all CPUs for getting density from density matrix: real work        0.163 s, elapsed        0.163 s
  Integration grid: deviation in total charge (<rho> - N_e) =  -3.446132E-13
  Pulay mixing of updated and previous charge densities.

  Evaluating partitioned Hartree potential by multipole expansion.
  | Analytical far-field extrapolation by fixed multipoles:
  | Hartree multipole sum: apparent total charge =  -0.530205E-03
  Summing up the Hartree potential.
  Time summed over all CPUs for potential: real work        0.175 s, elapsed        0.175 s
  | RMS charge density error from multipole expansion :   0.235713E-02
  | Average real-space part of the electrostatic potential :     -0.32712848 eV

  Integrating Hamiltonian matrix: batch-based integration.
  Time summed over all CPUs for integration: real work        0.111 s, elapsed        0.111 s

  Updating Kohn-Sham eigenvalues, eigenvectors, occupation numbers, and Fermi level.
  Solving generalized eigenproblem

  Obtaining occupation numbers and chemical potential using ELSI.
  | Chemical potential (Fermi level):    -4.75972959eV
  What follows are estimated values for band gap, HOMO, LUMO, etc.
  | They are estimated on a discrete k-point grid and not necessarily exact.
  | For converged numbers, create a DOS and/or band structure plot on a denser k-grid.

  Highest occupied state (VBM) at     -4.80544444 eV (relative to internal zero)
  | Occupation number:      1.80399285
  | K-point:     258 at    0.166667    0.666667    0.333333 (in units of recip. lattice)

  Lowest unoccupied state (CBM) at    -4.75638650 eV (relative to internal zero)
  | Occupation number:      0.92466695
  | K-point:     363 at    0.250000    0.666667    0.000000 (in units of recip. lattice)

  ESTIMATED overall HOMO-LUMO gap:      0.04905794 eV between HOMO at k-point 258 and LUMO at k-point 363
  | This appears to be an indirect band gap.
  | Smallest direct gap :      0.94567494 eV for k_point 376 at    0.250000    0.666667    0.000000 (in units of recip. lattice)
  However, this system has fractional occupation numbers. Since we use a finite k-point grid,
  this material is metallic within the approximate finite broadening function (occupation_type)
  applied to determine the occupation numbers.

  Total energy components:
  | Sum of eigenvalues            :        -163.82660687 Ha       -4457.94879079 eV
  | XC energy correction          :         -19.61403653 Ha        -533.72508960 eV
  | XC potential correction       :          25.91522435 Ha         705.18913426 eV
  | Free-atom electrostatic energy:        -132.19815435 Ha       -3597.29480830 eV
  | Hartree energy correction     :           0.46787114 Ha          12.73142158 eV
  | Entropy correction            :          -0.00002868 Ha          -0.00078047 eV
  | ---------------------------
  | Total energy                  :        -289.25570225 Ha       -7871.04813286 eV
  | Total energy, T -> 0          :        -289.25573094 Ha       -7871.04891333 eV  <-- do not rely on this value for anything but (periodic) metals
  | Electronic free energy        :        -289.25575962 Ha       -7871.04969380 eV

  Derived energy quantities:
  | Kinetic energy                :         289.31299000 Ha        7872.60701170 eV
  | Electrostatic energy          :        -558.95465572 Ha      -15209.93005496 eV
  | Energy correction for multipole
  | error in Hartree potential    :           0.00024886 Ha           0.00677188 eV
  | Sum of eigenvalues per atom                           :       -4457.94879079 eV
  | Total energy (T->0) per atom                          :       -7871.04891333 eV  <-- do not rely on this value for anything but (periodic) metals
  | Electronic free energy per atom                       :       -7871.04969380 eV

  Self-consistency convergence accuracy:
  | Change of charge density      :  0.1376E-03
  | Change of sum of eigenvalues  : -0.7936E-01 eV
  | Change of total energy        :  0.1131E-04 eV

  End self-consistency iteration #     7       :  max(cpu_time)    wall_clock(cpu1)
  | Time for this iteration                    :        0.600 s           0.601 s
  | Charge density update                      :        0.177 s           0.177 s
  | Density mixing & preconditioning           :        0.016 s           0.017 s
  | Hartree multipole update                   :        0.000 s           0.000 s
  | Hartree multipole summation                :        0.177 s           0.177 s
  | Integration                                :        0.110 s           0.111 s
  | Solution of K.-S. eqns.                    :        0.118 s           0.118 s
  | Total energy evaluation                    :        0.000 s           0.000 s

  Partial memory accounting:
  | Current value for overall tracked memory usage on task 0  :           2.639 MB
  | Peak value for overall tracked memory usage on task 0     :           3.628 MB after allocating wave
  | Largest tracked array allocation on task 0 so far         :           2.500 MB  when allocating +KS_eigenvector_complex
  Note:  These values currently only include a subset of arrays which are explicitly tracked.
  The "true" memory usage will be greater.
------------------------------------------------------------

------------------------------------------------------------
          Begin self-consistency iteration #    8

  Date     :  20190514, Time     :  105053.502
------------------------------------------------------------
  Evaluating new KS density using the density matrix
  Evaluating density matrix
  Time summed over all CPUs for getting density from density matrix: real work        0.148 s, elapsed        0.148 s
  Integration grid: deviation in total charge (<rho> - N_e) =  -3.161915E-13
  Pulay mixing of updated and previous charge densities.

  Evaluating partitioned Hartree potential by multipole expansion.
  | Analytical far-field extrapolation by fixed multipoles:
  | Hartree multipole sum: apparent total charge =   0.219035E-03
  Summing up the Hartree potential.
  Time summed over all CPUs for potential: real work        0.166 s, elapsed        0.166 s
  | RMS charge density error from multipole expansion :   0.233772E-02
  | Average real-space part of the electrostatic potential :     -0.32837759 eV

  Integrating Hamiltonian matrix: batch-based integration.
  Time summed over all CPUs for integration: real work        0.102 s, elapsed        0.102 s

  Updating Kohn-Sham eigenvalues, eigenvectors, occupation numbers, and Fermi level.
  Solving generalized eigenproblem

  Obtaining occupation numbers and chemical potential using ELSI.
  | Chemical potential (Fermi level):    -4.75745486eV
  What follows are estimated values for band gap, HOMO, LUMO, etc.
  | They are estimated on a discrete k-point grid and not necessarily exact.
  | For converged numbers, create a DOS and/or band structure plot on a denser k-grid.

  Highest occupied state (VBM) at     -4.80317073 eV (relative to internal zero)
  | Occupation number:      1.80400284
  | K-point:     655 at    0.500000    0.333333    0.666667 (in units of recip. lattice)

  Lowest unoccupied state (CBM) at    -4.75413057 eV (relative to internal zero)
  | Occupation number:      0.92508932
  | K-point:     725 at    0.666667    0.000000    0.250000 (in units of recip. lattice)

  ESTIMATED overall HOMO-LUMO gap:      0.04904016 eV between HOMO at k-point 655 and LUMO at k-point 725
  | This appears to be an indirect band gap.
  | Smallest direct gap :      0.94573240 eV for k_point 680 at    0.666667    0.000000    0.250000 (in units of recip. lattice)
  However, this system has fractional occupation numbers. Since we use a finite k-point grid,
  this material is metallic within the approximate finite broadening function (occupation_type)
  applied to determine the occupation numbers.

  Total energy components:
  | Sum of eigenvalues            :        -163.82235071 Ha       -4457.83297493 eV
  | XC energy correction          :         -19.61416833 Ha        -533.72867597 eV
  | XC potential correction       :          25.91540108 Ha         705.19394336 eV
  | Free-atom electrostatic energy:        -132.19815435 Ha       -3597.29480830 eV
  | Hartree energy correction     :           0.46356991 Ha          12.61437897 eV
  | Entropy correction            :          -0.00002866 Ha          -0.00077994 eV
  | ---------------------------
  | Total energy                  :        -289.25570240 Ha       -7871.04813686 eV
  | Total energy, T -> 0          :        -289.25573106 Ha       -7871.04891680 eV  <-- do not rely on this value for anything but (periodic) metals
  | Electronic free energy        :        -289.25575973 Ha       -7871.04969673 eV

  Derived energy quantities:
  | Kinetic energy                :         289.31516394 Ha        7872.66616776 eV
  | Electrostatic energy          :        -558.95669802 Ha      -15209.98562865 eV
  | Energy correction for multipole
  | error in Hartree potential    :           0.00024688 Ha           0.00671784 eV
  | Sum of eigenvalues per atom                           :       -4457.83297493 eV
  | Total energy (T->0) per atom                          :       -7871.04891680 eV  <-- do not rely on this value for anything but (periodic) metals
  | Electronic free energy per atom                       :       -7871.04969673 eV

  Self-consistency convergence accuracy:
  | Change of charge density      :  0.2807E-03
  | Change of sum of eigenvalues  :  0.1158E+00 eV
  | Change of total energy        : -0.4004E-05 eV

  End self-consistency iteration #     8       :  max(cpu_time)    wall_clock(cpu1)
  | Time for this iteration                    :        0.559 s           0.560 s
  | Charge density update                      :        0.161 s           0.161 s
  | Density mixing & preconditioning           :        0.016 s           0.016 s
  | Hartree multipole update                   :        0.000 s           0.000 s
  | Hartree multipole summation                :        0.168 s           0.168 s
  | Integration                                :        0.101 s           0.102 s
  | Solution of K.-S. eqns.                    :        0.112 s           0.112 s
  | Total energy evaluation                    :        0.000 s           0.001 s

  Partial memory accounting:
  | Current value for overall tracked memory usage on task 0  :           2.639 MB
  | Peak value for overall tracked memory usage on task 0     :           3.628 MB after allocating wave
  | Largest tracked array allocation on task 0 so far         :           2.500 MB  when allocating +KS_eigenvector_complex
  Note:  These values currently only include a subset of arrays which are explicitly tracked.
  The "true" memory usage will be greater.
------------------------------------------------------------

------------------------------------------------------------
          Begin self-consistency iteration #    9

  Date     :  20190514, Time     :  105054.062
------------------------------------------------------------
  Evaluating new KS density using the density matrix
  Evaluating density matrix
  Time summed over all CPUs for getting density from density matrix: real work        0.147 s, elapsed        0.147 s
  Integration grid: deviation in total charge (<rho> - N_e) =  -3.019807E-13
  Pulay mixing of updated and previous charge densities.

  Evaluating partitioned Hartree potential by multipole expansion.
  | Analytical far-field extrapolation by fixed multipoles:
  | Hartree multipole sum: apparent total charge =   0.201118E-03
  Summing up the Hartree potential.
  Time summed over all CPUs for potential: real work        0.166 s, elapsed        0.166 s
  | RMS charge density error from multipole expansion :   0.233731E-02
  | Average real-space part of the electrostatic potential :     -0.32825075 eV

  Integrating Hamiltonian matrix: batch-based integration.
  Time summed over all CPUs for integration: real work        0.096 s, elapsed        0.096 s

  Updating Kohn-Sham eigenvalues, eigenvectors, occupation numbers, and Fermi level.
  Solving generalized eigenproblem

  Obtaining occupation numbers and chemical potential using ELSI.
  | Chemical potential (Fermi level):    -4.75742043eV
  What follows are estimated values for band gap, HOMO, LUMO, etc.
  | They are estimated on a discrete k-point grid and not necessarily exact.
  | For converged numbers, create a DOS and/or band structure plot on a denser k-grid.

  Highest occupied state (VBM) at     -4.80313633 eV (relative to internal zero)
  | Occupation number:      1.80400309
  | K-point:     258 at    0.166667    0.666667    0.333333 (in units of recip. lattice)

  Lowest unoccupied state (CBM) at    -4.75409676 eV (relative to internal zero)
  | Occupation number:      0.92510325
  | K-point:     480 at    0.333333    0.750000    0.000000 (in units of recip. lattice)

  ESTIMATED overall HOMO-LUMO gap:      0.04903957 eV between HOMO at k-point 258 and LUMO at k-point 480
  | This appears to be an indirect band gap.
  | Smallest direct gap :      0.94573486 eV for k_point 376 at    0.333333    0.750000    0.000000 (in units of recip. lattice)
  However, this system has fractional occupation numbers. Since we use a finite k-point grid,
  this material is metallic within the approximate finite broadening function (occupation_type)
  applied to determine the occupation numbers.

  Total energy components:
  | Sum of eigenvalues            :        -163.82221997 Ha       -4457.82941715 eV
  | XC energy correction          :         -19.61418490 Ha        -533.72912696 eV
  | XC potential correction       :          25.91542290 Ha         705.19453710 eV
  | Free-atom electrostatic energy:        -132.19815435 Ha       -3597.29480830 eV
  | Hartree energy correction     :           0.46343391 Ha          12.61067821 eV
  | Entropy correction            :          -0.00002866 Ha          -0.00077992 eV
  | ---------------------------
  | Total energy                  :        -289.25570241 Ha       -7871.04813711 eV
  | Total energy, T -> 0          :        -289.25573107 Ha       -7871.04891703 eV  <-- do not rely on this value for anything but (periodic) metals
  | Electronic free energy        :        -289.25575973 Ha       -7871.04969695 eV

  Derived energy quantities:
  | Kinetic energy                :         289.31528993 Ha        7872.66959593 eV
  | Electrostatic energy          :        -558.95680744 Ha      -15209.98860608 eV
  | Energy correction for multipole
  | error in Hartree potential    :           0.00024686 Ha           0.00671744 eV
  | Sum of eigenvalues per atom                           :       -4457.82941715 eV
[...]
  | Hartree multipole update                   :        0.000 s           0.001 s
  | Hartree multipole summation                :        0.168 s           0.168 s
  | Integration                                :        0.096 s           0.096 s
  | Solution of K.-S. eqns.                    :        0.111 s           0.112 s
  | Total energy evaluation                    :        0.000 s           0.000 s

  Partial memory accounting:
  | Current value for overall tracked memory usage on task 0  :           2.639 MB
  | Peak value for overall tracked memory usage on task 0     :           3.628 MB after allocating wave
  | Largest tracked array allocation on task 0 so far         :           2.500 MB  when allocating +KS_eigenvector_complex
  Note:  These values currently only include a subset of arrays which are explicitly tracked.
  The "true" memory usage will be greater.
------------------------------------------------------------

------------------------------------------------------------
          Begin self-consistency iteration #   10

  Date     :  20190514, Time     :  105054.615
------------------------------------------------------------
  Evaluating new KS density using the density matrix
  Evaluating density matrix
  Time summed over all CPUs for getting density from density matrix: real work        0.146 s, elapsed        0.146 s
  Integration grid: deviation in total charge (<rho> - N_e) =  -3.304024E-13
  Pulay mixing of updated and previous charge densities.

  Evaluating partitioned Hartree potential by multipole expansion.
  | Analytical far-field extrapolation by fixed multipoles:
  | Hartree multipole sum: apparent total charge =   0.198462E-03
  Summing up the Hartree potential.
  Time summed over all CPUs for potential: real work        0.163 s, elapsed        0.163 s
  | RMS charge density error from multipole expansion :   0.233742E-02
  | Average real-space part of the electrostatic potential :     -0.32824912 eV

  Integrating Hamiltonian matrix: batch-based integration.
  Time summed over all CPUs for integration: real work        0.100 s, elapsed        0.100 s

  Updating Kohn-Sham eigenvalues, eigenvectors, occupation numbers, and Fermi level.
  Solving generalized eigenproblem

  Obtaining occupation numbers and chemical potential using ELSI.
  | Chemical potential (Fermi level):    -4.75743297eV
  What follows are estimated values for band gap, HOMO, LUMO, etc.
  | They are estimated on a discrete k-point grid and not necessarily exact.
  | For converged numbers, create a DOS and/or band structure plot on a denser k-grid.

  Highest occupied state (VBM) at     -4.80314886 eV (relative to internal zero)
  | Occupation number:      1.80400297
  | K-point:     495 at    0.333333    0.833333    0.666667 (in units of recip. lattice)

  Lowest unoccupied state (CBM) at    -4.75410918 eV (relative to internal zero)
  | Occupation number:      0.92510035
  | K-point:     363 at    0.250000    0.666667    0.000000 (in units of recip. lattice)

  ESTIMATED overall HOMO-LUMO gap:      0.04903968 eV between HOMO at k-point 495 and LUMO at k-point 363
  | This appears to be an indirect band gap.
  | Smallest direct gap :      0.94573431 eV for k_point 376 at    0.250000    0.666667    0.000000 (in units of recip. lattice)
  However, this system has fractional occupation numbers. Since we use a finite k-point grid,
  this material is metallic within the approximate finite broadening function (occupation_type)
  applied to determine the occupation numbers.

  Total energy components:
  | Sum of eigenvalues            :        -163.82224714 Ha       -4457.83015654 eV
  | XC energy correction          :         -19.61418357 Ha        -533.72909065 eV
  | XC potential correction       :          25.91542113 Ha         705.19448888 eV
  | Free-atom electrostatic energy:        -132.19815435 Ha       -3597.29480830 eV
  | Hartree energy correction     :           0.46346152 Ha          12.61142955 eV
  | Entropy correction            :          -0.00002866 Ha          -0.00077992 eV
  | ---------------------------
  | Total energy                  :        -289.25570241 Ha       -7871.04813706 eV
  | Total energy, T -> 0          :        -289.25573107 Ha       -7871.04891698 eV  <-- do not rely on this value for anything but (periodic) metals
  | Electronic free energy        :        -289.25575973 Ha       -7871.04969690 eV

  Derived energy quantities:
  | Kinetic energy                :         289.31527417 Ha        7872.66916726 eV
  | Electrostatic energy          :        -558.95679302 Ha      -15209.98821367 eV
  | Energy correction for multipole
  | error in Hartree potential    :           0.00024687 Ha           0.00671761 eV
  | Sum of eigenvalues per atom                           :       -4457.83015654 eV
  | Total energy (T->0) per atom                          :       -7871.04891698 eV  <-- do not rely on this value for anything but (periodic) metals
  | Electronic free energy per atom                       :       -7871.04969690 eV

  Self-consistency convergence accuracy:
  | Change of charge density      :  0.1977E-05
  | Change of sum of eigenvalues  : -0.7394E-03 eV
  | Change of total energy        :  0.5028E-07 eV

  End self-consistency iteration #    10       :  max(cpu_time)    wall_clock(cpu1)
  | Time for this iteration                    :        0.551 s           0.553 s
  | Charge density update                      :        0.158 s           0.159 s
  | Density mixing & preconditioning           :        0.014 s           0.014 s
  | Hartree multipole update                   :        0.001 s           0.001 s
  | Hartree multipole summation                :        0.165 s           0.165 s
  | Integration                                :        0.100 s           0.100 s
  | Solution of K.-S. eqns.                    :        0.113 s           0.113 s
  | Total energy evaluation                    :        0.000 s           0.000 s

  Partial memory accounting:
  | Current value for overall tracked memory usage on task 0  :           2.639 MB
  | Peak value for overall tracked memory usage on task 0     :           3.628 MB after allocating wave
  | Largest tracked array allocation on task 0 so far         :           2.500 MB  when allocating +KS_eigenvector_complex
  Note:  These values currently only include a subset of arrays which are explicitly tracked.
  The "true" memory usage will be greater.
------------------------------------------------------------

------------------------------------------------------------
          Begin self-consistency iteration #   11

  Date     :  20190514, Time     :  105055.168
------------------------------------------------------------
  Evaluating new KS density using the density matrix
  Evaluating density matrix
  Time summed over all CPUs for getting density from density matrix: real work        0.149 s, elapsed        0.149 s
  Integration grid: deviation in total charge (<rho> - N_e) =  -3.090861E-13
  Pulay mixing of updated and previous charge densities.

  Evaluating partitioned Hartree potential by multipole expansion.
  | Analytical far-field extrapolation by fixed multipoles:
  | Hartree multipole sum: apparent total charge =   0.197955E-03
  Summing up the Hartree potential.
  Time summed over all CPUs for potential: real work        0.165 s, elapsed        0.165 s
  | RMS charge density error from multipole expansion :   0.233742E-02
  | Average real-space part of the electrostatic potential :     -0.32824885 eV

  Integrating Hamiltonian matrix: batch-based integration.
  Time summed over all CPUs for integration: real work        0.099 s, elapsed        0.099 s

  Updating Kohn-Sham eigenvalues, eigenvectors, occupation numbers, and Fermi level.
  Solving generalized eigenproblem

  Obtaining occupation numbers and chemical potential using ELSI.
  | Chemical potential (Fermi level):    -4.75743485eV
  What follows are estimated values for band gap, HOMO, LUMO, etc.
  | They are estimated on a discrete k-point grid and not necessarily exact.
  | For converged numbers, create a DOS and/or band structure plot on a denser k-grid.

  Highest occupied state (VBM) at     -4.80315074 eV (relative to internal zero)
  | Occupation number:      1.80400297
  | K-point:     225 at    0.166667    0.333333    0.666667 (in units of recip. lattice)

  Lowest unoccupied state (CBM) at    -4.75411105 eV (relative to internal zero)
  | Occupation number:      0.92510003
  | K-point:     356 at    0.250000    0.583333    0.250000 (in units of recip. lattice)

  ESTIMATED overall HOMO-LUMO gap:      0.04903970 eV between HOMO at k-point 225 and LUMO at k-point 356
  | This appears to be an indirect band gap.
  | Smallest direct gap :      0.94573427 eV for k_point 779 at    0.250000    0.583333    0.250000 (in units of recip. lattice)
  However, this system has fractional occupation numbers. Since we use a finite k-point grid,
  this material is metallic within the approximate finite broadening function (occupation_type)
  applied to determine the occupation numbers.

  Total energy components:
  | Sum of eigenvalues            :        -163.82224887 Ha       -4457.83020357 eV
  | XC energy correction          :         -19.61418363 Ha        -533.72909243 eV
  | XC potential correction       :          25.91542122 Ha         705.19449123 eV
  | Free-atom electrostatic energy:        -132.19815435 Ha       -3597.29480830 eV
  | Hartree energy correction     :           0.46346323 Ha          12.61147603 eV
  | Entropy correction            :          -0.00002866 Ha          -0.00077992 eV
  | ---------------------------
  | Total energy                  :        -289.25570241 Ha       -7871.04813705 eV
  | Total energy, T -> 0          :        -289.25573107 Ha       -7871.04891697 eV  <-- do not rely on this value for anything but (periodic) metals
  | Electronic free energy        :        -289.25575973 Ha       -7871.04969689 eV

  Derived energy quantities:
  | Kinetic energy                :         289.31527526 Ha        7872.66919694 eV
  | Electrostatic energy          :        -558.95679404 Ha      -15209.98824156 eV
  | Energy correction for multipole
  | error in Hartree potential    :           0.00024687 Ha           0.00671765 eV
  | Sum of eigenvalues per atom                           :       -4457.83020357 eV
  | Total energy (T->0) per atom                          :       -7871.04891697 eV  <-- do not rely on this value for anything but (periodic) metals
  | Electronic free energy per atom                       :       -7871.04969689 eV

  Self-consistency convergence accuracy:
  | Change of charge density      :  0.2397E-06
  | Change of sum of eigenvalues  : -0.4703E-04 eV
  | Change of total energy        :  0.1366E-07 eV

  Preliminary charge convergence reached. Turning off preconditioner.

  Writing Kohn-Sham eigenvalues.
  K-point:       1 at    0.000000    0.000000    0.000000 (in units of recip. lattice)

  State    Occupation    Eigenvalue [Ha]    Eigenvalue [eV]
      1       2.00000         -65.539069        -1783.40879
      2       2.00000          -5.126644         -139.50308
      3       2.00000          -3.541563          -96.37084
      4       2.00000          -3.541563          -96.37084
      5       2.00000          -3.541563          -96.37084
      6       2.00000          -0.461022          -12.54505
      7       0.00000          -0.078502           -2.13614
      8       0.00000          -0.078502           -2.13614
      9       0.00000          -0.078502           -2.13614
     10       0.00000           0.086592            2.35629

  What follows are estimated values for band gap, HOMO, LUMO, etc.
  | They are estimated on a discrete k-point grid and not necessarily exact.
  | For converged numbers, create a DOS and/or band structure plot on a denser k-grid.

  Highest occupied state (VBM) at     -4.80315074 eV (relative to internal zero)
  | Occupation number:      1.80400297
  | K-point:     225 at    0.166667    0.333333    0.666667 (in units of recip. lattice)

  Lowest unoccupied state (CBM) at    -4.75411105 eV (relative to internal zero)
  | Occupation number:      0.92510003
  | K-point:     356 at    0.250000    0.583333    0.250000 (in units of recip. lattice)

  ESTIMATED overall HOMO-LUMO gap:      0.04903970 eV between HOMO at k-point 225 and LUMO at k-point 356
  | This appears to be an indirect band gap.
  | Smallest direct gap :      0.94573427 eV for k_point 779 at    0.250000    0.583333    0.250000 (in units of recip. lattice)
  However, this system has fractional occupation numbers. Since we use a finite k-point grid,
  this material is metallic within the approximate finite broadening function (occupation_type)
  applied to determine the occupation numbers.

  Self-consistency cycle converged.

  End self-consistency iteration #    11       :  max(cpu_time)    wall_clock(cpu1)
  | Time for this iteration                    :        0.558 s           0.559 s
  | Charge density update                      :        0.161 s           0.162 s
  | Density mixing                             :        0.016 s           0.016 s
  | Hartree multipole update                   :        0.000 s           0.000 s
  | Hartree multipole summation                :        0.166 s           0.167 s
  | Integration                                :        0.099 s           0.099 s
  | Solution of K.-S. eqns.                    :        0.114 s           0.115 s
  | Total energy evaluation                    :        0.000 s           0.000 s

  Partial memory accounting:
  | Current value for overall tracked memory usage on task 0  :           2.639 MB
  | Peak value for overall tracked memory usage on task 0     :           3.628 MB after allocating wave
  | Largest tracked array allocation on task 0 so far         :           2.500 MB  when allocating +KS_eigenvector_complex
  Note:  These values currently only include a subset of arrays which are explicitly tracked.
  The "true" memory usage will be greater.
------------------------------------------------------------

  Energy and forces in a compact form:
  | Total energy uncorrected      :         -0.787104813704559E+04 eV
  | Total energy corrected        :         -0.787104891696827E+04 eV  <-- do not rely on this value for anything but (periodic) metals
  | Electronic free energy        :         -0.787104969689095E+04 eV

  ------------------------------------ 
  Start decomposition of the XC Energy 
  ------------------------------------ 
  X and C from original XC functional choice 
  Hartree-Fock Energy :          0.000000000 Ha              0.000000000 eV
  X Energy            :        -18.560619269 Ha           -505.060147500 eV
  C Energy            :         -1.053564361 Ha            -28.668944930 eV
  Total XC Energy     :        -19.614183631 Ha           -533.729092430 eV
  ------------------------------------ 
  LDA X and C from self-consistent density 
  X Energy LDA        :        -18.560619269 Ha           -505.060147500 eV
  C Energy LDA        :         -1.053564361 Ha            -28.668944930 eV
  ------------------------------------ 
  End decomposition of the XC Energy 
  ------------------------------------ 

------------------------------------------------------------

------------------------------------------------------------------------------
  Final output of selected total energy values:

  The following output summarizes some interesting total energy values
  at the end of a run (AFTER all relaxation, molecular dynamics, etc.).

  | Total energy of the DFT / Hartree-Fock s.c.f. calculation      :          -7871.048137046 eV
  | Final zero-broadening corrected energy (caution - metals only) :          -7871.048916968 eV
  | For reference only, the value of 1 Hartree used in FHI-aims is :             27.211384500 eV

  Before relying on these values, please be sure to understand exactly which
  total energy value is referred to by a given number. Different objects may
  all carry the same name 'total energy'. Definitions:

  Total energy of the DFT / Hartree-Fock s.c.f. calculation:
  | Note that this energy does not include ANY quantities calculated after the
  | s.c.f. cycle, in particular not ANY RPA, MP2, etc. many-body perturbation terms.

  Final zero-broadening corrected energy:
  | For metallic systems only, a broadening of the occupation numbers at the Fermi
  | level can be extrapolated back to zero broadening by an electron-gas inspired
  | formula. For all systems that are not real metals, this value can be
  | meaningless and should be avoided.

------------------------------------------------------------------------------
  Methods described in the following list of references were used in this FHI-aims run.
  If you publish the results, please make sure to cite these reference if they apply.
  FHI-aims is an academic code, and for our developers (often, Ph.D. students
  and postdocs), scientific credit in the community is essential.
  Thank you for helping us!

  For any use of FHI-aims, please cite:

    Volker Blum, Ralf Gehrke, Felix Hanke, Paula Havu, Ville Havu,
    Xinguo Ren, Karsten Reuter, and Matthias Scheffler
    'Ab initio molecular simulations with numeric atom-centered orbitals'
    Computer Physics Communications 180, 2175-2196 (2009)
    http://dx.doi.org/10.1016/j.cpc.2009.06.022


  For the real-space grid partitioning and parallelization used in this calculation, please cite:

    Ville Havu, Volker Blum, Paula Havu, and Matthias Scheffler,
    'Efficient O(N) integration for all-electron electronic structure calculation'
    'using numerically tabulated basis functions'
    Journal of Computational Physics 228, 8367-8379 (2009).
    http://dx.doi.org/10.1016/j.jcp.2009.08.008

  Of course, there are many other important community references, e.g., those cited in the
  above references. Our list is limited to references that describe implementations in the
  FHI-aims code. The reason is purely practical (length of this list) - please credit others as well.

------------------------------------------------------------
          Leaving FHI-aims.
          Date     :  20190514, Time     :  105055.732

          Computational steps:
          | Number of self-consistency cycles          :           11
          | Number of SCF (re)initializations          :            1

          Detailed time accounting                     :  max(cpu_time)    wall_clock(cpu1)
          | Total time                                 :        6.826 s           6.849 s
          | Preparation time                           :        0.114 s           0.114 s
          | Boundary condition initalization           :        0.031 s           0.031 s
          | Grid partitioning                          :        0.010 s           0.010 s
          | Preloading free-atom quantities on grid    :        0.001 s           0.001 s
          | Free-atom superposition energy             :        0.009 s           0.009 s
          | Total time for integrations                :        1.300 s           1.304 s
          | Total time for solution of K.-S. equations :        1.504 s           1.507 s
          | Total time for density update              :        1.811 s           1.818 s
          | Total time for mixing & preconditioning    :        0.175 s           0.175 s
          | Total time for Hartree multipole update    :        0.005 s           0.005 s
          | Total time for Hartree multipole sum       :        1.823 s           1.827 s
          | Total time for total energy evaluation     :        0.003 s           0.004 s
          | Total time for scaled ZORA corrections     :        0.000 s           0.000 s

 This is a stub MPI_ALLREDUCE call.
 You should not be here. Check your
 setting on the use_mpi variable, or
 link against true MPI-libraries.
