------------------------------------------------------------
          Invoking FHI-aims ...
          Version 171221_1
          Compiled on 2019/05/06 at 14:26:40 on host ffph0xx.

          When using FHI-aims, please cite the following reference:

          Volker Blum, Ralf Gehrke, Felix Hanke, Paula Havu,
          Ville Havu, Xinguo Ren, Karsten Reuter, and Matthias Scheffler,
          'Ab Initio Molecular Simulations with Numeric Atom-Centered Orbitals',
          Computer Physics Communications 180, 2175-2196 (2009)

          For any questions about FHI-aims, please visit the aimsclub website
          with its forums and wiki. Contributions to both the forums and the
          wiki are warmly encouraged - they are for you, and everyone is welcome there.

------------------------------------------------------------



  Date     :  20190513, Time     :  134217.229
  Time zero on CPU 1             :   0.760000000000000E-03  s.
  Internal wall clock time zero  :           326986937.229  s.

  FHI-aims created a unique identifier for this run for later identification
  aims_uuid : 0A3DF8C3-4770-4295-AA01-1E08DFAC7D88


  Performing system and environment tests:
  *** Environment variable OMP_NUM_THREADS is not set
  *** For performance reasons you might want to set it to 1
  | Stacksize not measured: no C compiler

  Obtaining array dimensions for all initial allocations:
  
  -----------------------------------------------------------------------
  Parsing control.in (first pass over file, find array dimensions only).
  The contents of control.in will be repeated verbatim below
  unless switched off by setting 'verbatim_writeout .false.' .
  in the first line of control.in .
  -----------------------------------------------------------------------
  
  #--- method ---
  xc pw-lda
  spin none
  relativistic atomic_zora scalar
  #---
  
  #--- k-grid settings ---
  k_grid 8 8 8
  #---
  
  
  
  
  
  
  
  
  
  
  
  #-------------------------------------------------------------------------------
  #--- Species defaults for Si
  #-------------------------------------------------------------------------------
  
  ################################################################################
  #
  #  FHI-aims code project
  #  VB, Fritz-Haber Institut, 2009
  #
  #  Suggested "light" defaults for Si atom (to be pasted into control.in file)
  #  Be sure to double-check any results obtained with these settings for post-processing,
  #  e.g., with the "tight" defaults and larger basis sets.
  #
  ################################################################################
    species        Si
  #     global species definitions
      nucleus             14
      mass                28.0855
  #
      l_hartree           4
  #
      cut_pot             3.5          1.5  1.0
      basis_dep_cutoff    1e-4
  #
      radial_base         42 5.0
      radial_multiplier   1
      angular_grids       specified
        division   0.5866   50
        division   0.9616  110
        division   1.2249  194
        division   1.3795  302
  #      division   1.4810  434
  #      division   1.5529  590
  #      division   1.6284  770
  #      division   1.7077  974
  #      division   2.4068 1202
  #      outer_grid   974
        outer_grid 302
  ################################################################################
  #
  #  Definition of "minimal" basis
  #
  ################################################################################
  #     valence basis states
      valence      3  s   2.
      valence      3  p   2.
  #     ion occupancy
      ion_occ      3  s   1.
      ion_occ      3  p   1.
  ################################################################################
  #
  #  Suggested additional basis functions. For production calculations,
  #  uncomment them one after another (the most important basis functions are
  #  listed first).
  #
  #  Constructed for dimers: 1.75 A, 2.0 A, 2.25 A, 2.75 A, 3.75 A
  #
  ################################################################################
  #  "First tier" - improvements: -571.96 meV to -37.03 meV
       hydro 3 d 4.2
       hydro 2 p 1.4
  #     hydro 4 f 6.2
       ionic 3 s auto
  #  "Second tier" - improvements: -16.76 meV to -3.03 meV
  #     hydro 3 d 9
  #     hydro 5 g 9.4
  #     hydro 4 p 4
  #     hydro 1 s 0.65
  #  "Third tier" - improvements: -3.89 meV to -0.60 meV
  #     ionic 3 d auto
  #     hydro 3 s 2.6
  #     hydro 4 f 8.4
  #     hydro 3 d 3.4
  #     hydro 3 p 7.8
  #  "Fourth tier" - improvements: -0.33 meV to -0.11 meV
  #     hydro 2 p 1.6
  #     hydro 5 g 10.8
  #     hydro 5 f 11.2
  #     hydro 3 d 1
  #     hydro 4 s 4.5
  #  Further basis functions that fell out of the optimization - noise
  #  level... < -0.08 meV
  #     hydro 4 d 6.6
  #     hydro 5 g 16.4
  #     hydro 4 d 9
  
  -----------------------------------------------------------------------
  Completed first pass over input file control.in .
  -----------------------------------------------------------------------
  
  
  -----------------------------------------------------------------------
  Parsing geometry.in (first pass over file, find array dimensions only).
  The contents of geometry.in will be repeated verbatim below
  unless switched off by setting 'verbatim_writeout .false.' .
  in the first line of geometry.in .
  -----------------------------------------------------------------------
  
  lattice_vector   0.000000   2.800000   2.800000
  lattice_vector   2.800000   0.000000   2.800000
  lattice_vector   2.800000   2.800000   0.000000
  atom_frac   0.000000   0.000000   0.000000 Si
  atom_frac   0.250000   0.250000   0.250000 Si
  
  -----------------------------------------------------------------------
  Completed first pass over input file geometry.in .
  -----------------------------------------------------------------------
  

  Basic array size parameters:
  | Number of species                 :        1
  | Number of atoms                   :        2
  | Number of lattice vectors         :        3
  | Max. basis fn. angular momentum   :        2
  | Max. atomic/ionic basis occupied n:        3
  | Max. number of basis fn. types    :        3
  | Max. radial fns per species/type  :        5
  | Max. logarithmic grid size        :     1346
  | Max. radial integration grid size :       42
  | Max. angular integration grid size:      302
  | Max. angular grid division number :        8
  | Radial grid for Hartree potential :     1346
  | Number of spin channels           :        1

------------------------------------------------------------
          Reading file control.in.
------------------------------------------------------------
  XC: Using Perdew-Wang parametrisation of Ceperley-Alder LDA.
  Spin treatment: No spin polarisation.
  Scalar relativistic treatment of kinetic energy: on-site free-atom approximation to ZORA.
  Found k-point grid:         8         8         8

  Reading configuration options for species Si                  .
  | Found nuclear charge :  14.0000
  | Found atomic mass :    28.085500000000000      amu
  | Found l_max for Hartree potential  :   4
  | Found cutoff potl. onset [A], width [A], scale factor :    3.50000    1.50000    1.00000
  | Threshold for basis-dependent cutoff potential is   0.100000E-03
  | Found data for basic radial integration grid :    42 points, outermost radius =    5.000 A
  | Found multiplier for basic radial grid :   1
  | Found angular grid specification: user-specified.
  | Specified grid contains     5 separate shells.
  | Check grid settings after all constraints further below.
  | Found free-atom valence shell :  3 s   2.000
  | Found free-atom valence shell :  3 p   2.000
  | Found free-ion valence shell :  3 s   1.000
  | Found free-ion valence shell :  3 p   1.000
  | Found hydrogenic basis function :  3 d   4.200
  | Found hydrogenic basis function :  2 p   1.400
  | Found ionic basis function :  3 s , default cutoff radius.
  Species Si                  : Missing cutoff potential type.
  Defaulting to exp(1/x)/(1-x)^2 type cutoff potential.
  Species Si: No 'logarithmic' tag. Using default grid for free atom:
  | Default logarithmic grid data [bohr] : 0.1000E-03 0.1000E+03 0.1012E+01
  | Will include ionic basis functions of  2.0-fold positive Si                   ion.
  Species Si: On-site basis accuracy parameter (for Gram-Schmidt orthonormalisation) not specified.
  Using default value basis_acc =  0.1000000E-03.
  Species Si                  : Using default innermost maximum threshold i_radial=  2 for radial functions.
  Species Si                  : Default cutoff onset for free atom density etc. : 0.35000000E+01 AA.
  Species Si                  : Basic radial grid will be enhanced according to radial_multiplier =   1, to contain    42 grid points.

  Finished reading input file 'control.in'. Consistency checks are next.

  MPI_IN_PLACE appears to work with this MPI implementation.
  | Keeping use_mpi_in_place .true. (see manual).
  Target number of points in a grid batch is not set. Defaulting to  100
  Method for grid partitioning is not set. Defaulting to 'maxmin' partitioning.
  Batch size limit is not set. Defaulting to    200
  By default, will store active basis functions for each batch.
  If in need of memory, prune_basis_once .false. can be used to disable this option.
  communication_type for Hartree potential was not specified.
  Defaulting to calc_hartree .
 * Attention: 
 * You may want to set distributed_spline_storage to .true. in order to save memory.
 * This doesn't harm performance and is perfectly ok unless:
 * - you get error messages in postprocessing (about missing atoms in get_rho_multipole_spl)
 * - you need full spline storage in hirshfeld_analysis
  Defaulting to Pulay charge density mixer.
  Pulay mixer: Number of relevant iterations not set.
  Defaulting to    8 iterations.
  Pulay mixer: Number of initial linear mixing iterations not set.
  Defaulting to    0 iterations.
  Work space size for distributed Hartree potential not set.
  Defaulting to   0.200000E+03 MB.
  Mixing parameter for charge density mixing has not been set.
  Using default: charge_mix_param =     0.0500.
  The mixing parameter will be adjusted in iteration number     2 of the first full s.c.f. cycle only.
  Algorithm-dependent basis array size parameters:
  | n_max_pulay                         :        8
 * Notice: The s.c.f. convergence criterion sc_accuracy_rho was not provided.
 * We used to stop in this case, and ask the user to provide reasonable
 * scf convergence criteria. However, this led some users to employ criteria
 * that led to extremely long run times, e.g., for simple relaxation.
 * We now preset a default value for sc_accuracy_rho if it is not set.
 * You may still wish to check if this setting is too tight or too loose for your needs.
 * Based on n_atoms, FHI-aims chose sc_accuracy_rho =  0.100000E-05 .
  Maximum number of self-consistency iterations not provided.
  Presetting  1000 iterations.
  Presetting      1001 iterations before the initial mixing cycle
  is restarted anyway using the sc_init_iter criterion / keyword.
  Presetting a factor      1.000 between actual scf density residual
  and density convergence criterion sc_accuracy_rho below which sc_init_iter
  takes no effect.
 * No s.c.f. convergence criteria (sc_accuracy_*) were provided in control.in.
 * The run will proceed with a reasonable default guess, but please check whether.
 * the s.c.f. cycles seem to take too much or too little time.
  Calculation of forces was not defined in control.in. No forces will be calculated.
  Geometry relaxation not requested: no relaxation will be performed.
  No accuracy limit for integral partition fn. given. Defaulting to  0.1000E-14.
  No threshold value for u(r) in integrations given. Defaulting to  0.1000E-05.
  No occupation type (smearing scheme) given. Defaulting to Gaussian broadening, width =  0.1000E-01 eV.
  The width will be adjusted in iteration number     2 of the first full s.c.f. cycle only.
  S.C.F. convergence parameters will be adjusted in iteration number     2 of the first full s.c.f. cycle only.
  No accuracy for occupation numbers given. Defaulting to  0.1000E-12.
  No threshold value for occupation numbers given. Defaulting to  0.0000E+00.
  No accuracy for fermi level given. Defaulting to  0.1000E-19.
  Maximum # of iterations to find E_F not set. Defaulting to  200.
  Preferred method for the eigenvalue solver ('KS_method') not specified in 'control.in'.
  Defaulting to serial version, 'lapack_fast'.
  Will not use alltoall communication since running on < 1024 CPUs.
  Threshold for basis singularities not set.
  Default threshold for basis singularities:  0.1000E-04
  partition_type (choice of integration weights) for integrals was not specified.
  | Using a version of the partition function of Stratmann and coworkers ('stratmann_smoother').
  | At each grid point, the set of atoms used to build the partition table is smoothly restricted to
  | only those atoms whose free-atom density would be non-zero at that grid point.
  Partitioning for Hartree potential was not defined. Using partition_type for integrals.
  | Adjusted default value of keyword multip_moments_threshold to:       0.10000000E-11
  | This value may affect high angular momentum components of the Hartree potential in periodic systems.
  Angular momentum expansion for Kerker preconditioner not set explicitly.
  | Using default value of   0
  No explicit requirement for turning off preconditioner.
  | By default, it will be turned off when the charge convergence reaches
  | sc_accuracy_rho  =   0.100000E-05
  No special mixing parameter while Kerker preconditioner is on.
  Using default: charge_mix_param =     0.0500.
  No q(lm)/r^(l+1) cutoff set for long-range Hartree potential.
  | Using default value of  0.100000E-09 .
  | Verify using the multipole_threshold keyword.
  Defaulting to new monopole extrapolation.
  Density update method: automatic selection selected.
  Using density matrix based charge density update.
  Using density matrix based charge density update.
  Using packed matrix style: index .
  Defaulting to use time-reversal symmetry for k-point grid.
------------------------------------------------------------


------------------------------------------------------------
          Reading geometry description geometry.in.
------------------------------------------------------------
  Input structure read successfully.
  The structure contains        2 atoms,  and a total of         28.000 electrons.

  Input geometry:
  | Unit cell:
  |        0.00000000        2.80000000        2.80000000
  |        2.80000000        0.00000000        2.80000000
  |        2.80000000        2.80000000        0.00000000
  | Atomic structure:
  |       Atom                x [A]            y [A]            z [A]
  |    1: Species Si            0.00000000        0.00000000        0.00000000
  |    2: Species Si            1.40000000        1.40000000        1.40000000

  Lattice parameters for 3D lattice (in Angstroms) :     3.959798    3.959798    3.959798
  Angle(s) between unit vectors (in degrees)      :    60.000000   60.000000   60.000000

  |

  | The smallest distance between any two atoms is         2.42487113 AA.
  |
  | The first atom of this pair is atom number                      1 .
  | The second atom of this pair is atom number                     2 .
  | Wigner-Seitz cell of the first atom image           0     0     1 .
  | (The Wigner-Seitz cell of the second atom is 0 0 0  by definition.)

  Quantities derived from the lattice vectors:
  | Reciprocal lattice vector 1: -1.121997  1.121997  1.121997
  | Reciprocal lattice vector 2:  1.121997 -1.121997  1.121997
  | Reciprocal lattice vector 3:  1.121997  1.121997 -1.121997
  | Unit cell volume                               :   0.439040E+02  A^3

  Range separation radius for Ewald summation (hartree_convergence_parameter):      4.02196949 bohr.

  Fractional coordinates:
                         L1                L2                L3
       atom_frac         0.00000000        0.00000000        0.00000000  Si
       atom_frac         0.25000000        0.25000000        0.25000000  Si

  Number of empty states per atom not set in control.in - providing a guess from actual geometry.
  | Total number of empty states used during s.c.f. cycle:        6
  If you use a very high smearing, use empty_states (per atom!) in control.in to increase this value.

  Structure-dependent array size parameters: 
  | Maximum number of distinct radial functions  :        8
  | Maximum number of basis functions            :       36
  | Number of Kohn-Sham states (occupied + empty):       20
------------------------------------------------------------

------------------------------------------------------------
          Preparing all fixed parts of the calculation.
------------------------------------------------------------
  Determining machine precision:
     2.2250738585072014E-308
  Setting up grids for atomic and cluster calculations.

  Creating wave function, potential, and density for free atoms.

  Species: Si

  List of occupied orbitals and eigenvalues:
    n    l              occ      energy [Ha]    energy [eV]
    1    0           2.0000       -65.491668     -1782.1190
    2    0           2.0000        -5.087967      -138.4506
    3    0           2.0000        -0.391471       -10.6525
    2    1           6.0000        -3.502246       -95.3010
    3    1           2.0000        -0.143943        -3.9169

  Creating fixed part of basis set: Ionic, confined, hydrogenic.

  Si                   ion:

  List of free ionic orbitals and eigenvalues:
    n    l      energy [Ha]    energy [eV]
    1    0       -66.364436     -1805.8682
    2    0        -5.935799      -161.5213
    3    0        -1.078166       -29.3384
    2    1        -4.351123      -118.4001
    3    1        -0.781733       -21.2720


  List of ionic basis orbitals and eigenvalues:
    n    l      energy [Ha]    energy [eV]    outer radius [A]
    3    0        -1.078146       -29.3378       4.214062


  Si                   hydrogenic:

  List of hydrogenic basis orbitals: 
    n    l      effective z      eigenvalue [eV]  inner max. [A]     outer max. [A]     outer radius [A]   
    3    2         4.200000       -26.6624           1.139231           1.139231           4.534782
    2    1         1.400000        -6.4613           1.472672           1.472672           4.590560


  Adding cutoff potential to free-atom effective potential.
  Creating atomic-like basis functions for current effective potential.

  Species Si                  :

  List of atomic basis orbitals and eigenvalues:
    n    l      energy [Ha]    energy [eV]    outer radius [A]
    1    0       -65.491668     -1782.1190       0.789468
    2    0        -5.087967      -138.4506       2.815114
    3    0        -0.391471       -10.6525       4.534782
    2    1        -3.502246       -95.3010       3.259919
    3    1        -0.143943        -3.9169       4.590560

  Assembling full basis from fixed parts.
  | Species Si :   atomic orbital   1 s accepted.
  | Species Si :   atomic orbital   2 s accepted.
  | Species Si :    ionic orbital   3 s accepted.
  | Species Si :   atomic orbital   3 s accepted.
  | Species Si :   atomic orbital   2 p accepted.
  | Species Si :   atomic orbital   3 p accepted.
  | Species Si :    hydro orbital   2 p accepted.
  | Species Si :    hydro orbital   3 d accepted.

  Basis size parameters after reduction:
  | Total number of radial functions:        8
  | Total number of basis functions :       36

  Per-task memory consumption for arrays in subroutine allocate_ext:
  |           2.757868MB.
  Testing on-site integration grid accuracy.
  |  Species  Function  <phi|h_atom|phi> (log., in eV)  <phi|h_atom|phi> (rad., in eV)
           1        1              -1782.1189727076              -1782.1182429251
           1        2               -138.4506350693               -138.4506310079
           1        3                -10.3030408815                -10.3029120678
           1        4                  5.0238999146                  4.9457540310 ***
           1        5                -95.3009689499                -95.3009689315
           1        6                 -3.9266496564                 -3.9420918374
           1        7                  6.3453628447                  6.1632372158 ***
           1        8                  6.2883050744                  6.2861881409
 * Note: Onsite integrals marked "***" above are less accurate than
 * onsite_accuracy_threshold =    0.03000 eV. Usually, this is harmless.
 * When in doubt, tighten the "radial" and/or "radial_multiplier" flags to check.

  Preparing densities etc. for the partition functions (integrals / Hartree potential).

  Preparations completed.
  max(cpu_time)          :      0.095 s.
  Wall clock time (cpu1) :      0.095 s.
------------------------------------------------------------

------------------------------------------------------------
          Begin self-consistency loop: Initialization.

          Date     :  20190513, Time     :  134217.325
------------------------------------------------------------

  Initializing index lists of integration centers etc. from given atomic structure:
  Mapping all atomic coordinates to central unit cell.

  Initializing the k-points
          Using symmetry for reducing the k-points
  | k-points reduced from:      512 to      260
  | Number of k-points                             :       260
  The eigenvectors in the calculations are COMPLEX.
  | K-points in task   0:       260
  | Number of basis functions in the Hamiltonian integrals :      1246
  | Number of basis functions in a single unit cell        :        36
  | Number of centers in hartree potential         :       708
  | Number of centers in hartree multipole         :       318
  | Number of centers in electron density summation:       190
  | Number of centers in basis integrals           :       198
  | Number of centers in integrals                 :       101
  | Number of centers in hamiltonian               :       190
  | Consuming        455 KiB for k_phase.
  | Number of super-cells (origin) [n_cells]                     :        2197
  | Number of super-cells (after PM_index) [n_cells]             :         112
  | Number of super-cells in hamiltonian [n_cells_in_hamiltonian]:         112
  | Size of matrix packed + index [n_hamiltonian_matrix_size] :       39615
  Partitioning the integration grid into batches with maxmin method.
  | Maximal weight for a single point:     1.000
  | Minimal weight for a single point:     0.640
  | Number of batches:      128
  | Maximal batch size:      90
  | Minimal batch size:      85
  | Average batch size:      87.562
  | Standard deviation of batch sizes:       1.504
  Initializing partition tables, free-atom densities, potentials, etc. across the integration grid (initialize_grid_storage).
  | initialize_grid_storage: Actual outermost partition radius vs. multipole_radius_free
  | (-- VB: in principle, multipole_radius_free should be larger, hence this output)
  | Species        1: Confinement radius =              4.999999999999999 AA, multipole_radius_free =              5.000694715736543 AA.
  | Species        1: outer_partition_radius set to              5.000694715736543 AA .
  | Original list of interatomic distances with         198 x        198 entries is created.
  | Net number of integration points:    11208
  | of which are non-zero points    :     9852
  | Numerical average free-atom electrostatic potential    :    -11.98549790 eV
  Renormalizing the initial density to the exact electron count on the 3D integration grid.
  | Initial density: Formal number of electrons (from input files) :      28.0000000000
  | Integrated number of electrons on 3D grid     :      28.0040014373
  | Charge integration error                      :       0.0040014373
  | Normalization factor for density and gradient :       0.9998571119
  Obtaining max. number of non-zero basis functions in each batch (get_n_compute_maxes).
  | Maximal number of non-zero basis functions:      432 in task     0
  Allocating        2.995 MB for KS_eigenvector_complex
  Integrating Hamiltonian matrix: batch-based integration.
  Time summed over all CPUs for integration: real work        0.525 s, elapsed        0.525 s
  Integrating overlap matrix.
  Time summed over all CPUs for integration: real work        0.387 s, elapsed        0.387 s
  Decreasing sparse matrix size:
   Tolerance:   9.9999998245167004E-014
   Hamiltonian matrix
  | Array has    35422 nonzero elements out of    39615 elements
  | Sparsity factor is 0.106
   Overlap matrix
  | Array has    31976 nonzero elements out of    39615 elements
  | Sparsity factor is 0.193
  New size of hamiltonian matrix:       35679

  Updating Kohn-Sham eigenvalues, eigenvectors, occupation numbers, and Fermi level.
  Solving generalized eigenproblem
  Transforming overlap matrix and checking for singularities.
  Overlap matrix is nonsingular at first k-point:
  | Lowest eigenvalue:  0.605332E-02

  Obtaining occupation numbers and chemical potential using ELSI.
  | Chemical potential (Fermi level):    -5.60466320eV
  Writing Kohn-Sham eigenvalues.
  K-point:       1 at    0.000000    0.000000    0.000000 (in units of recip. lattice)

  State    Occupation    Eigenvalue [Ha]    Eigenvalue [eV]
      1       2.00000         -65.508398        -1782.57422
      2       2.00000         -65.508398        -1782.57422
      3       2.00000          -5.108746         -139.01605
      4       2.00000          -5.108555         -139.01085
      5       2.00000          -3.523016          -95.86614
      6       2.00000          -3.523016          -95.86614
      7       2.00000          -3.523016          -95.86614
      8       2.00000          -3.522578          -95.85421
      9       2.00000          -3.522578          -95.85421
     10       2.00000          -3.522578          -95.85421
     11       2.00000          -0.639418          -17.39944
     12       2.00000          -0.226374           -6.15995
     13       2.00000          -0.226374           -6.15995
     14       2.00000          -0.226374           -6.15995
     15       0.00000          -0.142596           -3.88024
     16       0.00000          -0.126171           -3.43329
     17       0.00000          -0.126171           -3.43329
     18       0.00000          -0.126171           -3.43329
     19       0.00000           0.070875            1.92861
     20       0.00000           0.070875            1.92861

  What follows are estimated values for band gap, HOMO, LUMO, etc.
  | They are estimated on a discrete k-point grid and not necessarily exact.
  | For converged numbers, create a DOS and/or band structure plot on a denser k-grid.

  Highest occupied state (VBM) at     -6.15995439 eV (relative to internal zero)
  | Occupation number:      2.00000000
  | K-point:       1 at    0.000000    0.000000    0.000000 (in units of recip. lattice)

  Lowest unoccupied state (CBM) at    -5.18829433 eV (relative to internal zero)
  | Occupation number:      0.00000000
  | K-point:      30 at    0.000000    0.625000    0.625000 (in units of recip. lattice)

  ESTIMATED overall HOMO-LUMO gap:      0.97166006 eV between HOMO at k-point 1 and LUMO at k-point 30
  | This appears to be an indirect band gap.
  | Smallest direct gap :      2.27971247 eV for k_point 1 at    0.000000    0.625000    0.625000 (in units of recip. lattice)
  The gap value is above 0.2 eV. Unless you are using a very sparse k-point grid,
  this system is most likely an insulator or a semiconductor.
  Calculating total energy contributions from superposition of free atom densities.

  Total energy components:
  | Sum of eigenvalues            :        -327.94266944 Ha       -8923.77407206 eV
  | XC energy correction          :         -39.61303775 Ha       -1077.92560144 eV
  | XC potential correction       :          52.33561275 Ha        1424.12448160 eV
  | Free-atom electrostatic energy:        -263.51748770 Ha       -7170.67568031 eV
  | Hartree energy correction     :          -0.00000000 Ha          -0.00000000 eV
  | Entropy correction            :          -0.00000000 Ha          -0.00000000 eV
  | ---------------------------
  | Total energy                  :        -578.73758214 Ha      -15748.25087221 eV
  | Total energy, T -> 0          :        -578.73758214 Ha      -15748.25087221 eV  <-- do not rely on this value for anything but (periodic) metals
  | Electronic free energy        :        -578.73758214 Ha      -15748.25087221 eV

  Derived energy quantities:
  | Kinetic energy                :         579.58479839 Ha       15771.30479939 eV
  | Electrostatic energy          :       -1118.70934278 Ha      -30441.63007016 eV
  | Energy correction for multipole
  | error in Hartree potential    :           0.00000000 Ha           0.00000000 eV
  | Sum of eigenvalues per atom                           :       -4461.88703603 eV
  | Total energy (T->0) per atom                          :       -7874.12543611 eV  <-- do not rely on this value for anything but (periodic) metals
  | Electronic free energy per atom                       :       -7874.12543611 eV
  Initialize hartree_potential_storage
  Max. number of atoms included in rho_multipole:            2

  End scf initialization - timings             :  max(cpu_time)    wall_clock(cpu1)
  | Time for scf. initialization               :        1.457 s           1.461 s
  | Boundary condition initialization          :        0.040 s           0.040 s
  | Integration                                :        0.910 s           0.912 s
  | Solution of K.-S. eqns.                    :        0.316 s           0.317 s
  | Grid partitioning                          :        0.028 s           0.028 s
  | Preloading free-atom quantities on grid    :        0.001 s           0.001 s
  | Free-atom superposition energy             :        0.029 s           0.028 s
  | Total energy evaluation                    :        0.000 s           0.001 s

  Partial memory accounting:
  | Current value for overall tracked memory usage on task 0  :           3.709 MB
  | Peak value for overall tracked memory usage on task 0     :           6.214 MB after allocating wave
  | Largest tracked array allocation on task 0 so far         :           2.995 MB  when allocating +KS_eigenvector_complex
  Note:  These values currently only include a subset of arrays which are explicitly tracked.
  The "true" memory usage will be greater.
------------------------------------------------------------

------------------------------------------------------------
          Begin self-consistency iteration #    1

  Date     :  20190513, Time     :  134218.786
------------------------------------------------------------
  Evaluating new KS density using the density matrix
  Evaluating density matrix
  Time summed over all CPUs for getting density from density matrix: real work        1.155 s, elapsed        1.155 s
  Integration grid: deviation in total charge (<rho> - N_e) =   6.394885E-14
  Pulay mixing of updated and previous charge densities.

  Evaluating partitioned Hartree potential by multipole expansion.
  | Analytical far-field extrapolation by fixed multipoles:
  | Hartree multipole sum: apparent total charge =   0.423878E-02
  Summing up the Hartree potential.
  | Estimated reciprocal-space cutoff momentum G_max:         2.31730601 bohr^-1 .
  | Reciprocal lattice points for long-range Hartree potential:      58
  Time summed over all CPUs for potential: real work        0.415 s, elapsed        0.415 s
  | RMS charge density error from multipole expansion :   0.442788E-03
  | Average real-space part of the electrostatic potential :     -0.00321721 eV

  Integrating Hamiltonian matrix: batch-based integration.
  Time summed over all CPUs for integration: real work        0.517 s, elapsed        0.517 s

  Updating Kohn-Sham eigenvalues, eigenvectors, occupation numbers, and Fermi level.
  Solving generalized eigenproblem

  Obtaining occupation numbers and chemical potential using ELSI.
  | Chemical potential (Fermi level):    -5.59230364eV
  Writing Kohn-Sham eigenvalues.
  K-point:       1 at    0.000000    0.000000    0.000000 (in units of recip. lattice)

  State    Occupation    Eigenvalue [Ha]    Eigenvalue [eV]
      1       2.00000         -65.511194        -1782.65029
      2       2.00000         -65.511194        -1782.65029
      3       2.00000          -5.109318         -139.03161
      4       2.00000          -5.109127         -139.02642
      5       2.00000          -3.523666          -95.88382
      6       2.00000          -3.523666          -95.88382
      7       2.00000          -3.523666          -95.88382
      8       2.00000          -3.523229          -95.87193
      9       2.00000          -3.523229          -95.87193
     10       2.00000          -3.523229          -95.87193
     11       2.00000          -0.638921          -17.38592
     12       2.00000          -0.225688           -6.14129
     13       2.00000          -0.225688           -6.14129
     14       2.00000          -0.225688           -6.14129
     15       0.00000          -0.142006           -3.86419
     16       0.00000          -0.125816           -3.42362
     17       0.00000          -0.125816           -3.42362
     18       0.00000          -0.125816           -3.42362
     19       0.00000           0.071304            1.94027
     20       0.00000           0.071304            1.94027

  What follows are estimated values for band gap, HOMO, LUMO, etc.
  | They are estimated on a discrete k-point grid and not necessarily exact.
  | For converged numbers, create a DOS and/or band structure plot on a denser k-grid.

  Highest occupied state (VBM) at     -6.14128999 eV (relative to internal zero)
  | Occupation number:      2.00000000
  | K-point:       1 at    0.000000    0.000000    0.000000 (in units of recip. lattice)

  Lowest unoccupied state (CBM) at    -5.18197526 eV (relative to internal zero)
  | Occupation number:      0.00000000
  | K-point:     133 at    0.375000    0.000000    0.375000 (in units of recip. lattice)

  ESTIMATED overall HOMO-LUMO gap:      0.95931473 eV between HOMO at k-point 1 and LUMO at k-point 133
  | This appears to be an indirect band gap.
  | Smallest direct gap :      2.27709951 eV for k_point 1 at    0.375000    0.000000    0.375000 (in units of recip. lattice)
  The gap value is above 0.2 eV. Unless you are using a very sparse k-point grid,
  this system is most likely an insulator or a semiconductor.

  Total energy components:
  | Sum of eigenvalues            :        -327.95965500 Ha       -8924.23627277 eV
  | XC energy correction          :         -39.61506308 Ha       -1077.98071354 eV
  | XC potential correction       :          52.33828002 Ha        1424.19706157 eV
  | Free-atom electrostatic energy:        -263.51748770 Ha       -7170.67568031 eV
  | Hartree energy correction     :           0.01680827 Ha           0.45737629 eV
  | Entropy correction            :          -0.00000000 Ha          -0.00000000 eV
  | ---------------------------
  | Total energy                  :        -578.73711750 Ha      -15748.23822876 eV
  | Total energy, T -> 0          :        -578.73711750 Ha      -15748.23822876 eV  <-- do not rely on this value for anything but (periodic) metals
  | Electronic free energy        :        -578.73711750 Ha      -15748.23822876 eV

  Derived energy quantities:
  | Kinetic energy                :         579.46682022 Ha       15768.09444997 eV
  | Electrostatic energy          :       -1118.58887464 Ha      -30438.35196519 eV
  | Energy correction for multipole
  | error in Hartree potential    :           0.00055586 Ha           0.01512575 eV
  | Sum of eigenvalues per atom                           :       -4462.11813639 eV
  | Total energy (T->0) per atom                          :       -7874.11911438 eV  <-- do not rely on this value for anything but (periodic) metals
  | Electronic free energy per atom                       :       -7874.11911438 eV

  Self-consistency convergence accuracy:
  | Change of charge density      :  0.9624E-01
  | Change of sum of eigenvalues  : -0.4622E+00 eV
  | Change of total energy        :  0.1264E-01 eV

  End self-consistency iteration #     1       :  max(cpu_time)    wall_clock(cpu1)
  | Time for this iteration                    :        2.311 s           2.313 s
  | Charge density update                      :        1.174 s           1.176 s
  | Density mixing & preconditioning           :        0.051 s           0.051 s
  | Hartree multipole update                   :        0.001 s           0.001 s
  | Hartree multipole summation                :        0.418 s           0.418 s
  | Integration                                :        0.517 s           0.517 s
  | Solution of K.-S. eqns.                    :        0.150 s           0.150 s
  | Total energy evaluation                    :        0.000 s           0.000 s

  Partial memory accounting:
  | Current value for overall tracked memory usage on task 0  :           3.709 MB
  | Peak value for overall tracked memory usage on task 0     :           6.214 MB after allocating wave
  | Largest tracked array allocation on task 0 so far         :           2.995 MB  when allocating +KS_eigenvector_complex
  Note:  These values currently only include a subset of arrays which are explicitly tracked.
  The "true" memory usage will be greater.
------------------------------------------------------------

------------------------------------------------------------
          Begin self-consistency iteration #    2

  Date     :  20190513, Time     :  134221.099
------------------------------------------------------------
  Evaluating new KS density using the density matrix
  Evaluating density matrix
  Time summed over all CPUs for getting density from density matrix: real work        0.884 s, elapsed        0.884 s
  Integration grid: deviation in total charge (<rho> - N_e) =   2.842171E-14
  Pulay mixing of updated and previous charge densities.

  Evaluating partitioned Hartree potential by multipole expansion.
  | Analytical far-field extrapolation by fixed multipoles:
  | Hartree multipole sum: apparent total charge =   0.852238E-02
  Summing up the Hartree potential.
  Time summed over all CPUs for potential: real work        0.459 s, elapsed        0.459 s
  | RMS charge density error from multipole expansion :   0.868747E-02
  | Average real-space part of the electrostatic potential :      0.25897398 eV

  Integrating Hamiltonian matrix: batch-based integration.
  Time summed over all CPUs for integration: real work        0.579 s, elapsed        0.579 s

  Updating Kohn-Sham eigenvalues, eigenvectors, occupation numbers, and Fermi level.
  Solving generalized eigenproblem

  Obtaining occupation numbers and chemical potential using ELSI.
  | Chemical potential (Fermi level):    -5.23443281eV
  What follows are estimated values for band gap, HOMO, LUMO, etc.
  | They are estimated on a discrete k-point grid and not necessarily exact.
  | For converged numbers, create a DOS and/or band structure plot on a denser k-grid.

  Highest occupied state (VBM) at     -5.65486340 eV (relative to internal zero)
  | Occupation number:      2.00000000
  | K-point:       1 at    0.000000    0.000000    0.000000 (in units of recip. lattice)

  Lowest unoccupied state (CBM) at    -5.02277266 eV (relative to internal zero)
  | Occupation number:      0.00000000
  | K-point:      30 at    0.000000    0.625000    0.625000 (in units of recip. lattice)

  ESTIMATED overall HOMO-LUMO gap:      0.63209073 eV between HOMO at k-point 1 and LUMO at k-point 30
  | This appears to be an indirect band gap.
  | Smallest direct gap :      2.22935146 eV for k_point 205 at    0.000000    0.625000    0.625000 (in units of recip. lattice)
  The gap value is above 0.2 eV. Unless you are using a very sparse k-point grid,
  this system is most likely an insulator or a semiconductor.

  Checking to see if s.c.f. parameters should be adjusted.
  The system likely has a gap. Increased the default Pulay mixing parameter (charge_mix_param). Value:   0.200000 .
  Kept the default occupation width. Value:   0.010000 eV.

  Total energy components:
  | Sum of eigenvalues            :        -327.33372838 Ha       -8907.20394284 eV
  | XC energy correction          :         -39.66278227 Ha       -1079.27921859 eV
  | XC potential correction       :          52.40111798 Ha        1425.90696964 eV
  | Free-atom electrostatic energy:        -263.51748770 Ha       -7170.67568031 eV
  | Hartree energy correction     :          -0.62002122 Ha         -16.87163594 eV
  | Entropy correction            :          -0.00000000 Ha          -0.00000000 eV
  | ---------------------------
  | Total energy                  :        -578.73290159 Ha      -15748.12350805 eV
  | Total energy, T -> 0          :        -578.73290159 Ha      -15748.12350805 eV  <-- do not rely on this value for anything but (periodic) metals
  | Electronic free energy        :        -578.73290159 Ha      -15748.12350805 eV

  Derived energy quantities:
  | Kinetic energy                :         579.54146485 Ha       15770.12563364 eV
  | Electrostatic energy          :       -1118.61158417 Ha      -30438.96992309 eV
  | Energy correction for multipole
  | error in Hartree potential    :           0.01089514 Ha           0.29647191 eV
  | Sum of eigenvalues per atom                           :       -4453.60197142 eV
  | Total energy (T->0) per atom                          :       -7874.06175402 eV  <-- do not rely on this value for anything but (periodic) metals
  | Electronic free energy per atom                       :       -7874.06175402 eV

  Self-consistency convergence accuracy:
  | Change of charge density      :  0.9142E-01
  | Change of sum of eigenvalues  :  0.1703E+02 eV
  | Change of total energy        :  0.1147E+00 eV

  End self-consistency iteration #     2       :  max(cpu_time)    wall_clock(cpu1)
  | Time for this iteration                    :        2.169 s           2.169 s
  | Charge density update                      :        0.903 s           0.903 s
  | Density mixing & preconditioning           :        0.045 s           0.046 s
  | Hartree multipole update                   :        0.001 s           0.001 s
  | Hartree multipole summation                :        0.463 s           0.462 s
  | Integration                                :        0.579 s           0.580 s
  | Solution of K.-S. eqns.                    :        0.177 s           0.177 s
  | Total energy evaluation                    :        0.000 s           0.000 s

  Partial memory accounting:
  | Current value for overall tracked memory usage on task 0  :           3.710 MB
  | Peak value for overall tracked memory usage on task 0     :           6.214 MB after allocating wave
  | Largest tracked array allocation on task 0 so far         :           2.995 MB  when allocating +KS_eigenvector_complex
  Note:  These values currently only include a subset of arrays which are explicitly tracked.
  The "true" memory usage will be greater.
------------------------------------------------------------

------------------------------------------------------------
          Begin self-consistency iteration #    3

  Date     :  20190513, Time     :  134223.269
------------------------------------------------------------
  Evaluating new KS density using the density matrix
  Evaluating density matrix
  Time summed over all CPUs for getting density from density matrix: real work        1.009 s, elapsed        1.009 s
  Integration grid: deviation in total charge (<rho> - N_e) =  -1.421085E-14
  Pulay mixing of updated and previous charge densities.

  Evaluating partitioned Hartree potential by multipole expansion.
  | Analytical far-field extrapolation by fixed multipoles:
  | Hartree multipole sum: apparent total charge =   0.799002E-02
  Summing up the Hartree potential.
  Time summed over all CPUs for potential: real work        0.447 s, elapsed        0.447 s
  | RMS charge density error from multipole expansion :   0.866630E-02
  | Average real-space part of the electrostatic potential :      0.25226170 eV

  Integrating Hamiltonian matrix: batch-based integration.
  Time summed over all CPUs for integration: real work        0.525 s, elapsed        0.525 s

  Updating Kohn-Sham eigenvalues, eigenvectors, occupation numbers, and Fermi level.
  Solving generalized eigenproblem

  Obtaining occupation numbers and chemical potential using ELSI.
  | Chemical potential (Fermi level):    -5.24495539eV
  What follows are estimated values for band gap, HOMO, LUMO, etc.
  | They are estimated on a discrete k-point grid and not necessarily exact.
  | For converged numbers, create a DOS and/or band structure plot on a denser k-grid.

  Highest occupied state (VBM) at     -5.66850539 eV (relative to internal zero)
  | Occupation number:      2.00000000
  | K-point:       1 at    0.000000    0.000000    0.000000 (in units of recip. lattice)

  Lowest unoccupied state (CBM) at    -5.02689359 eV (relative to internal zero)
  | Occupation number:      0.00000000
  | K-point:      30 at    0.000000    0.625000    0.625000 (in units of recip. lattice)

  ESTIMATED overall HOMO-LUMO gap:      0.64161180 eV between HOMO at k-point 1 and LUMO at k-point 30
  | This appears to be an indirect band gap.
  | Smallest direct gap :      2.23225834 eV for k_point 205 at    0.000000    0.625000    0.625000 (in units of recip. lattice)
  The gap value is above 0.2 eV. Unless you are using a very sparse k-point grid,
  this system is most likely an insulator or a semiconductor.

  Total energy components:
  | Sum of eigenvalues            :        -327.36286521 Ha       -8907.99679617 eV
  | XC energy correction          :         -39.66125495 Ha       -1079.23765807 eV
  | XC potential correction       :          52.39910481 Ha        1425.85218856 eV
  | Free-atom electrostatic energy:        -263.51748770 Ha       -7170.67568031 eV
  | Hartree energy correction     :          -0.59031877 Ha         -16.06339099 eV
  | Entropy correction            :          -0.00000000 Ha          -0.00000000 eV
  | ---------------------------
  | Total energy                  :        -578.73282181 Ha      -15748.12133699 eV
  | Total energy, T -> 0          :        -578.73282181 Ha      -15748.12133699 eV  <-- do not rely on this value for anything but (periodic) metals
  | Electronic free energy        :        -578.73282181 Ha      -15748.12133699 eV

  Derived energy quantities:
  | Kinetic energy                :         579.53332060 Ha       15769.90401730 eV
  | Electrostatic energy          :       -1118.60488746 Ha      -30438.78769621 eV
  | Energy correction for multipole
  | error in Hartree potential    :           0.01089352 Ha           0.29642772 eV
  | Sum of eigenvalues per atom                           :       -4453.99839809 eV
  | Total energy (T->0) per atom                          :       -7874.06066849 eV  <-- do not rely on this value for anything but (periodic) metals
  | Electronic free energy per atom                       :       -7874.06066849 eV

  Self-consistency convergence accuracy:
  | Change of charge density      :  0.1471E-01
  | Change of sum of eigenvalues  : -0.7929E+00 eV
  | Change of total energy        :  0.2171E-02 eV

  End self-consistency iteration #     3       :  max(cpu_time)    wall_clock(cpu1)
  | Time for this iteration                    :        2.206 s           2.205 s
  | Charge density update                      :        1.032 s           1.031 s
  | Density mixing & preconditioning           :        0.046 s           0.046 s
  | Hartree multipole update                   :        0.001 s           0.000 s
  | Hartree multipole summation                :        0.451 s           0.451 s
  | Integration                                :        0.525 s           0.525 s
  | Solution of K.-S. eqns.                    :        0.151 s           0.151 s
  | Total energy evaluation                    :        0.000 s           0.000 s

  Partial memory accounting:
  | Current value for overall tracked memory usage on task 0  :           3.710 MB
  | Peak value for overall tracked memory usage on task 0     :           6.214 MB after allocating wave
  | Largest tracked array allocation on task 0 so far         :           2.995 MB  when allocating +KS_eigenvector_complex
  Note:  These values currently only include a subset of arrays which are explicitly tracked.
  The "true" memory usage will be greater.
------------------------------------------------------------

------------------------------------------------------------
          Begin self-consistency iteration #    4

  Date     :  20190513, Time     :  134225.474
------------------------------------------------------------
  Evaluating new KS density using the density matrix
  Evaluating density matrix
  Time summed over all CPUs for getting density from density matrix: real work        0.858 s, elapsed        0.858 s
  Integration grid: deviation in total charge (<rho> - N_e) =  -7.105427E-15
  Pulay mixing of updated and previous charge densities.

  Evaluating partitioned Hartree potential by multipole expansion.
  | Analytical far-field extrapolation by fixed multipoles:
  | Hartree multipole sum: apparent total charge =   0.507147E-02
  Summing up the Hartree potential.
  Time summed over all CPUs for potential: real work        0.448 s, elapsed        0.448 s
  | RMS charge density error from multipole expansion :   0.919496E-02
  | Average real-space part of the electrostatic potential :      0.23397350 eV

  Integrating Hamiltonian matrix: batch-based integration.
  Time summed over all CPUs for integration: real work        0.526 s, elapsed        0.526 s

  Updating Kohn-Sham eigenvalues, eigenvectors, occupation numbers, and Fermi level.
  Solving generalized eigenproblem

  Obtaining occupation numbers and chemical potential using ELSI.
  | Chemical potential (Fermi level):    -5.27403044eV
  What follows are estimated values for band gap, HOMO, LUMO, etc.
  | They are estimated on a discrete k-point grid and not necessarily exact.
  | For converged numbers, create a DOS and/or band structure plot on a denser k-grid.

  Highest occupied state (VBM) at     -5.70817030 eV (relative to internal zero)
  | Occupation number:      2.00000000
  | K-point:       1 at    0.000000    0.000000    0.000000 (in units of recip. lattice)

  Lowest unoccupied state (CBM) at    -5.03674416 eV (relative to internal zero)
  | Occupation number:      0.00000000
  | K-point:      30 at    0.000000    0.625000    0.625000 (in units of recip. lattice)

  ESTIMATED overall HOMO-LUMO gap:      0.67142613 eV between HOMO at k-point 1 and LUMO at k-point 30
  | This appears to be an indirect band gap.
  | Smallest direct gap :      2.23952930 eV for k_point 179 at    0.000000    0.625000    0.625000 (in units of recip. lattice)
  The gap value is above 0.2 eV. Unless you are using a very sparse k-point grid,
  this system is most likely an insulator or a semiconductor.

  Total energy components:
  | Sum of eigenvalues            :        -327.48604699 Ha       -8911.34874304 eV
  | XC energy correction          :         -39.65658284 Ha       -1079.11052372 eV
  | XC potential correction       :          52.39293668 Ha        1425.68434513 eV
  | Free-atom electrostatic energy:        -263.51748770 Ha       -7170.67568031 eV
  | Hartree energy correction     :          -0.46538403 Ha         -12.66374379 eV
  | Entropy correction            :          -0.00000000 Ha          -0.00000000 eV
  | ---------------------------
  | Total energy                  :        -578.73256488 Ha      -15748.11434574 eV
  | Total energy, T -> 0          :        -578.73256488 Ha      -15748.11434574 eV  <-- do not rely on this value for anything but (periodic) metals
  | Electronic free energy        :        -578.73256488 Ha      -15748.11434574 eV

  Derived energy quantities:
  | Kinetic energy                :         579.48823047 Ha       15768.67705245 eV
  | Electrostatic energy          :       -1118.56421251 Ha      -30437.68087446 eV
  | Energy correction for multipole
  | error in Hartree potential    :           0.01168445 Ha           0.31795009 eV
  | Sum of eigenvalues per atom                           :       -4455.67437152 eV
  | Total energy (T->0) per atom                          :       -7874.05717287 eV  <-- do not rely on this value for anything but (periodic) metals
  | Electronic free energy per atom                       :       -7874.05717287 eV

  Self-consistency convergence accuracy:
  | Change of charge density      :  0.1299E-01
  | Change of sum of eigenvalues  : -0.3352E+01 eV
  | Change of total energy        :  0.6991E-02 eV

  End self-consistency iteration #     4       :  max(cpu_time)    wall_clock(cpu1)
  | Time for this iteration                    :        2.054 s           2.054 s
  | Charge density update                      :        0.879 s           0.879 s
  | Density mixing & preconditioning           :        0.044 s           0.044 s
  | Hartree multipole update                   :        0.001 s           0.001 s
  | Hartree multipole summation                :        0.451 s           0.452 s
  | Integration                                :        0.526 s           0.526 s
  | Solution of K.-S. eqns.                    :        0.152 s           0.152 s
  | Total energy evaluation                    :        0.000 s           0.000 s

  Partial memory accounting:
  | Current value for overall tracked memory usage on task 0  :           3.711 MB
  | Peak value for overall tracked memory usage on task 0     :           6.214 MB after allocating wave
  | Largest tracked array allocation on task 0 so far         :           2.995 MB  when allocating +KS_eigenvector_complex
  Note:  These values currently only include a subset of arrays which are explicitly tracked.
  The "true" memory usage will be greater.
------------------------------------------------------------

------------------------------------------------------------
          Begin self-consistency iteration #    5

  Date     :  20190513, Time     :  134227.528
------------------------------------------------------------
  Evaluating new KS density using the density matrix
  Evaluating density matrix
  Time summed over all CPUs for getting density from density matrix: real work        0.862 s, elapsed        0.862 s
  Integration grid: deviation in total charge (<rho> - N_e) =   1.847411E-13
  Pulay mixing of updated and previous charge densities.

  Evaluating partitioned Hartree potential by multipole expansion.
  | Analytical far-field extrapolation by fixed multipoles:
  | Hartree multipole sum: apparent total charge =   0.404038E-02
  Summing up the Hartree potential.
  Time summed over all CPUs for potential: real work        0.449 s, elapsed        0.449 s
  | RMS charge density error from multipole expansion :   0.918048E-02
  | Average real-space part of the electrostatic potential :      0.23194342 eV

  Integrating Hamiltonian matrix: batch-based integration.
  Time summed over all CPUs for integration: real work        0.524 s, elapsed        0.524 s

  Updating Kohn-Sham eigenvalues, eigenvectors, occupation numbers, and Fermi level.
  Solving generalized eigenproblem

  Obtaining occupation numbers and chemical potential using ELSI.
  | Chemical potential (Fermi level):    -5.27903742eV
  What follows are estimated values for band gap, HOMO, LUMO, etc.
  | They are estimated on a discrete k-point grid and not necessarily exact.
  | For converged numbers, create a DOS and/or band structure plot on a denser k-grid.

  Highest occupied state (VBM) at     -5.71497144 eV (relative to internal zero)
  | Occupation number:      2.00000000
  | K-point:       1 at    0.000000    0.000000    0.000000 (in units of recip. lattice)

  Lowest unoccupied state (CBM) at    -5.03951007 eV (relative to internal zero)
  | Occupation number:      0.00000000
  | K-point:      30 at    0.000000    0.625000    0.625000 (in units of recip. lattice)

  ESTIMATED overall HOMO-LUMO gap:      0.67546137 eV between HOMO at k-point 1 and LUMO at k-point 30
  | This appears to be an indirect band gap.
  | Smallest direct gap :      2.23994182 eV for k_point 205 at    0.000000    0.625000    0.625000 (in units of recip. lattice)
  The gap value is above 0.2 eV. Unless you are using a very sparse k-point grid,
  this system is most likely an insulator or a semiconductor.

  Total energy components:
  | Sum of eigenvalues            :        -327.51679759 Ha       -8912.18550943 eV
  | XC energy correction          :         -39.65424549 Ha       -1079.04692118 eV
  | XC potential correction       :          52.38983800 Ha        1425.60002581 eV
  | Free-atom electrostatic energy:        -263.51748770 Ha       -7170.67568031 eV
  | Hartree energy correction     :          -0.43384675 Ha         -11.80557073 eV
  | Entropy correction            :          -0.00000000 Ha          -0.00000000 eV
  | ---------------------------
  | Total energy                  :        -578.73253953 Ha      -15748.11365585 eV
  | Total energy, T -> 0          :        -578.73253953 Ha      -15748.11365585 eV  <-- do not rely on this value for anything but (periodic) metals
  | Electronic free energy        :        -578.73253953 Ha      -15748.11365585 eV

  Derived energy quantities:
  | Kinetic energy                :         579.46857386 Ha       15768.14216904 eV
  | Electrostatic energy          :       -1118.54686790 Ha      -30437.20890372 eV
  | Energy correction for multipole
  | error in Hartree potential    :           0.01164003 Ha           0.31674137 eV
  | Sum of eigenvalues per atom                           :       -4456.09275472 eV
  | Total energy (T->0) per atom                          :       -7874.05682792 eV  <-- do not rely on this value for anything but (periodic) metals
  | Electronic free energy per atom                       :       -7874.05682792 eV

  Self-consistency convergence accuracy:
  | Change of charge density      :  0.6974E-02
  | Change of sum of eigenvalues  : -0.8368E+00 eV
  | Change of total energy        :  0.6899E-03 eV

  End self-consistency iteration #     5       :  max(cpu_time)    wall_clock(cpu1)
  | Time for this iteration                    :        2.053 s           2.053 s
  | Charge density update                      :        0.881 s           0.881 s
  | Density mixing & preconditioning           :        0.043 s           0.043 s
  | Hartree multipole update                   :        0.001 s           0.001 s
  | Hartree multipole summation                :        0.453 s           0.453 s
  | Integration                                :        0.525 s           0.524 s
  | Solution of K.-S. eqns.                    :        0.151 s           0.151 s
  | Total energy evaluation                    :        0.000 s           0.000 s

  Partial memory accounting:
  | Current value for overall tracked memory usage on task 0  :           3.711 MB
  | Peak value for overall tracked memory usage on task 0     :           6.214 MB after allocating wave
  | Largest tracked array allocation on task 0 so far         :           2.995 MB  when allocating +KS_eigenvector_complex
  Note:  These values currently only include a subset of arrays which are explicitly tracked.
  The "true" memory usage will be greater.
------------------------------------------------------------

------------------------------------------------------------
          Begin self-consistency iteration #    6

  Date     :  20190513, Time     :  134229.581
------------------------------------------------------------
  Evaluating new KS density using the density matrix
  Evaluating density matrix
  Time summed over all CPUs for getting density from density matrix: real work        0.858 s, elapsed        0.858 s
  Integration grid: deviation in total charge (<rho> - N_e) =   6.039613E-14
  Pulay mixing of updated and previous charge densities.

  Evaluating partitioned Hartree potential by multipole expansion.
  | Analytical far-field extrapolation by fixed multipoles:
  | Hartree multipole sum: apparent total charge =   0.399857E-02
  Summing up the Hartree potential.
  Time summed over all CPUs for potential: real work        0.445 s, elapsed        0.445 s
  | RMS charge density error from multipole expansion :   0.919412E-02
  | Average real-space part of the electrostatic potential :      0.23156535 eV

  Integrating Hamiltonian matrix: batch-based integration.
  Time summed over all CPUs for integration: real work        0.524 s, elapsed        0.524 s

  Updating Kohn-Sham eigenvalues, eigenvectors, occupation numbers, and Fermi level.
  Solving generalized eigenproblem

  Obtaining occupation numbers and chemical potential using ELSI.
  | Chemical potential (Fermi level):    -5.27912408eV
  What follows are estimated values for band gap, HOMO, LUMO, etc.
  | They are estimated on a discrete k-point grid and not necessarily exact.
  | For converged numbers, create a DOS and/or band structure plot on a denser k-grid.

  Highest occupied state (VBM) at     -5.71522777 eV (relative to internal zero)
  | Occupation number:      2.00000000
  | K-point:       1 at    0.000000    0.000000    0.000000 (in units of recip. lattice)

  Lowest unoccupied state (CBM) at    -5.03963166 eV (relative to internal zero)
  | Occupation number:      0.00000000
  | K-point:      30 at    0.000000    0.625000    0.625000 (in units of recip. lattice)

  ESTIMATED overall HOMO-LUMO gap:      0.67559611 eV between HOMO at k-point 1 and LUMO at k-point 30
  | This appears to be an indirect band gap.
  | Smallest direct gap :      2.23979896 eV for k_point 205 at    0.000000    0.625000    0.625000 (in units of recip. lattice)
  The gap value is above 0.2 eV. Unless you are using a very sparse k-point grid,
  this system is most likely an insulator or a semiconductor.

  Total energy components:
  | Sum of eigenvalues            :        -327.52184430 Ha       -8912.32283738 eV
  | XC energy correction          :         -39.65375028 Ha       -1079.03344578 eV
  | XC potential correction       :          52.38918095 Ha        1425.58214643 eV
  | Free-atom electrostatic energy:        -263.51748770 Ha       -7170.67568031 eV
  | Hartree energy correction     :          -0.42863515 Ha         -11.66375584 eV
  | Entropy correction            :          -0.00000000 Ha          -0.00000000 eV
  | ---------------------------
  | Total energy                  :        -578.73253648 Ha      -15748.11357288 eV
  | Total energy, T -> 0          :        -578.73253648 Ha      -15748.11357288 eV  <-- do not rely on this value for anything but (periodic) metals
  | Electronic free energy        :        -578.73253648 Ha      -15748.11357288 eV

  Derived energy quantities:
  | Kinetic energy                :         579.46133731 Ha       15767.94525254 eV
  | Electrostatic energy          :       -1118.54012352 Ha      -30437.02537965 eV
  | Energy correction for multipole
  | error in Hartree potential    :           0.01164805 Ha           0.31695952 eV
  | Sum of eigenvalues per atom                           :       -4456.16141869 eV
  | Total energy (T->0) per atom                          :       -7874.05678644 eV  <-- do not rely on this value for anything but (periodic) metals
  | Electronic free energy per atom                       :       -7874.05678644 eV

  Self-consistency convergence accuracy:
  | Change of charge density      :  0.5707E-02
  | Change of sum of eigenvalues  : -0.1373E+00 eV
  | Change of total energy        :  0.8297E-04 eV

  End self-consistency iteration #     6       :  max(cpu_time)    wall_clock(cpu1)
  | Time for this iteration                    :        2.047 s           2.047 s
  | Charge density update                      :        0.877 s           0.877 s
  | Density mixing & preconditioning           :        0.045 s           0.046 s
  | Hartree multipole update                   :        0.001 s           0.000 s
  | Hartree multipole summation                :        0.449 s           0.449 s
  | Integration                                :        0.523 s           0.524 s
  | Solution of K.-S. eqns.                    :        0.151 s           0.151 s
  | Total energy evaluation                    :        0.000 s           0.000 s

  Partial memory accounting:
  | Current value for overall tracked memory usage on task 0  :           3.711 MB
  | Peak value for overall tracked memory usage on task 0     :           6.214 MB after allocating wave
  | Largest tracked array allocation on task 0 so far         :           2.995 MB  when allocating +KS_eigenvector_complex
  Note:  These values currently only include a subset of arrays which are explicitly tracked.
  The "true" memory usage will be greater.
------------------------------------------------------------

------------------------------------------------------------
          Begin self-consistency iteration #    7

  Date     :  20190513, Time     :  134231.629
------------------------------------------------------------
  Evaluating new KS density using the density matrix
  Evaluating density matrix
  Time summed over all CPUs for getting density from density matrix: real work        0.930 s, elapsed        0.930 s
  Integration grid: deviation in total charge (<rho> - N_e) =   4.263256E-14
  Pulay mixing of updated and previous charge densities.

  Evaluating partitioned Hartree potential by multipole expansion.
  | Analytical far-field extrapolation by fixed multipoles:
  | Hartree multipole sum: apparent total charge =   0.395188E-02
  Summing up the Hartree potential.
  Time summed over all CPUs for potential: real work        0.470 s, elapsed        0.470 s
  | RMS charge density error from multipole expansion :   0.917227E-02
  | Average real-space part of the electrostatic potential :      0.22878623 eV

  Integrating Hamiltonian matrix: batch-based integration.
  Time summed over all CPUs for integration: real work        0.525 s, elapsed        0.525 s

  Updating Kohn-Sham eigenvalues, eigenvectors, occupation numbers, and Fermi level.
  Solving generalized eigenproblem

  Obtaining occupation numbers and chemical potential using ELSI.
  | Chemical potential (Fermi level):    -5.28191688eV
  What follows are estimated values for band gap, HOMO, LUMO, etc.
  | They are estimated on a discrete k-point grid and not necessarily exact.
  | For converged numbers, create a DOS and/or band structure plot on a denser k-grid.

  Highest occupied state (VBM) at     -5.71904671 eV (relative to internal zero)
  | Occupation number:      2.00000000
  | K-point:       1 at    0.000000    0.000000    0.000000 (in units of recip. lattice)

  Lowest unoccupied state (CBM) at    -5.04104224 eV (relative to internal zero)
  | Occupation number:      0.00000000
  | K-point:      30 at    0.000000    0.625000    0.625000 (in units of recip. lattice)

  ESTIMATED overall HOMO-LUMO gap:      0.67800447 eV between HOMO at k-point 1 and LUMO at k-point 30
  | This appears to be an indirect band gap.
  | Smallest direct gap :      2.24028864 eV for k_point 205 at    0.000000    0.625000    0.625000 (in units of recip. lattice)
  The gap value is above 0.2 eV. Unless you are using a very sparse k-point grid,
  this system is most likely an insulator or a semiconductor.

  Total energy components:
  | Sum of eigenvalues            :        -327.53711529 Ha       -8912.73838219 eV
  | XC energy correction          :         -39.65224356 Ha       -1078.99244574 eV
  | XC potential correction       :          52.38718586 Ha        1425.52785721 eV
  | Free-atom electrostatic energy:        -263.51748770 Ha       -7170.67568031 eV
  | Hartree energy correction     :          -0.41286628 Ha         -11.23466311 eV
  | Entropy correction            :          -0.00000000 Ha          -0.00000000 eV
  | ---------------------------
  | Total energy                  :        -578.73252697 Ha      -15748.11331414 eV
  | Total energy, T -> 0          :        -578.73252697 Ha      -15748.11331414 eV  <-- do not rely on this value for anything but (periodic) metals
  | Electronic free energy        :        -578.73252697 Ha      -15748.11331414 eV

  Derived energy quantities:
  | Kinetic energy                :         579.44374343 Ha       15767.46649859 eV
  | Electrostatic energy          :       -1118.52402685 Ha      -30436.58736699 eV
  | Energy correction for multipole
  | error in Hartree potential    :           0.01159885 Ha           0.31562090 eV
  | Sum of eigenvalues per atom                           :       -4456.36919110 eV
  | Total energy (T->0) per atom                          :       -7874.05665707 eV  <-- do not rely on this value for anything but (periodic) metals
  | Electronic free energy per atom                       :       -7874.05665707 eV

  Self-consistency convergence accuracy:
  | Change of charge density      :  0.5415E-02
  | Change of sum of eigenvalues  : -0.4155E+00 eV
  | Change of total energy        :  0.2587E-03 eV

  End self-consistency iteration #     7       :  max(cpu_time)    wall_clock(cpu1)
  | Time for this iteration                    :        2.151 s           2.150 s
  | Charge density update                      :        0.948 s           0.948 s
  | Density mixing & preconditioning           :        0.051 s           0.051 s
  | Hartree multipole update                   :        0.001 s           0.001 s
  | Hartree multipole summation                :        0.473 s           0.474 s
  | Integration                                :        0.525 s           0.525 s
  | Solution of K.-S. eqns.                    :        0.151 s           0.151 s
  | Total energy evaluation                    :        0.000 s           0.000 s

  Partial memory accounting:
  | Current value for overall tracked memory usage on task 0  :           3.712 MB
  | Peak value for overall tracked memory usage on task 0     :           6.214 MB after allocating wave
  | Largest tracked array allocation on task 0 so far         :           2.995 MB  when allocating +KS_eigenvector_complex
  Note:  These values currently only include a subset of arrays which are explicitly tracked.
  The "true" memory usage will be greater.
------------------------------------------------------------

------------------------------------------------------------
          Begin self-consistency iteration #    8

  Date     :  20190513, Time     :  134233.779
------------------------------------------------------------
  Evaluating new KS density using the density matrix
  Evaluating density matrix
  Time summed over all CPUs for getting density from density matrix: real work        0.923 s, elapsed        0.923 s
  Integration grid: deviation in total charge (<rho> - N_e) =   7.105427E-14
  Pulay mixing of updated and previous charge densities.

  Evaluating partitioned Hartree potential by multipole expansion.
  | Analytical far-field extrapolation by fixed multipoles:
  | Hartree multipole sum: apparent total charge =   0.404161E-02
  Summing up the Hartree potential.
  Time summed over all CPUs for potential: real work        0.454 s, elapsed        0.454 s
  | RMS charge density error from multipole expansion :   0.914424E-02
  | Average real-space part of the electrostatic potential :      0.22257603 eV

  Integrating Hamiltonian matrix: batch-based integration.
  Time summed over all CPUs for integration: real work        0.531 s, elapsed        0.531 s

  Updating Kohn-Sham eigenvalues, eigenvectors, occupation numbers, and Fermi level.
  Solving generalized eigenproblem

  Obtaining occupation numbers and chemical potential using ELSI.
  | Chemical potential (Fermi level):    -5.28710469eV
  What follows are estimated values for band gap, HOMO, LUMO, etc.
  | They are estimated on a discrete k-point grid and not necessarily exact.
  | For converged numbers, create a DOS and/or band structure plot on a denser k-grid.

  Highest occupied state (VBM) at     -5.72627306 eV (relative to internal zero)
  | Occupation number:      2.00000000
  | K-point:       1 at    0.000000    0.000000    0.000000 (in units of recip. lattice)

  Lowest unoccupied state (CBM) at    -5.04362156 eV (relative to internal zero)
  | Occupation number:      0.00000000
  | K-point:      30 at    0.000000    0.625000    0.625000 (in units of recip. lattice)

  ESTIMATED overall HOMO-LUMO gap:      0.68265150 eV between HOMO at k-point 1 and LUMO at k-point 30
  | This appears to be an indirect band gap.
  | Smallest direct gap :      2.24119009 eV for k_point 5 at    0.000000    0.625000    0.625000 (in units of recip. lattice)
  The gap value is above 0.2 eV. Unless you are using a very sparse k-point grid,
  this system is most likely an insulator or a semiconductor.

  Total energy components:
  | Sum of eigenvalues            :        -327.56864610 Ha       -8913.59637916 eV
  | XC energy correction          :         -39.64907986 Ha       -1078.90635718 eV
  | XC potential correction       :          52.38299696 Ha        1425.41387151 eV
  | Free-atom electrostatic energy:        -263.51748770 Ha       -7170.67568031 eV
  | Hartree energy correction     :          -0.38029404 Ha         -10.34832741 eV
  | Entropy correction            :          -0.00000000 Ha          -0.00000000 eV
  | ---------------------------
  | Total energy                  :        -578.73251075 Ha      -15748.11287255 eV
  | Total energy, T -> 0          :        -578.73251075 Ha      -15748.11287255 eV  <-- do not rely on this value for anything but (periodic) metals
  | Electronic free energy        :        -578.73251075 Ha      -15748.11287255 eV

  Derived energy quantities:
  | Kinetic energy                :         579.40592177 Ha       15766.43731874 eV
  | Electrostatic energy          :       -1118.48935265 Ha      -30435.64383410 eV
  | Energy correction for multipole
  | error in Hartree potential    :           0.01151731 Ha           0.31340206 eV
  | Sum of eigenvalues per atom                           :       -4456.79818958 eV
  | Total energy (T->0) per atom                          :       -7874.05643627 eV  <-- do not rely on this value for anything but (periodic) metals
  | Electronic free energy per atom                       :       -7874.05643627 eV

  Self-consistency convergence accuracy:
  | Change of charge density      :  0.4513E-02
  | Change of sum of eigenvalues  : -0.8580E+00 eV
  | Change of total energy        :  0.4416E-03 eV

  End self-consistency iteration #     8       :  max(cpu_time)    wall_clock(cpu1)
  | Time for this iteration                    :        2.127 s           2.126 s
  | Charge density update                      :        0.942 s           0.941 s
  | Density mixing & preconditioning           :        0.046 s           0.046 s
  | Hartree multipole update                   :        0.001 s           0.001 s
  | Hartree multipole summation                :        0.459 s           0.458 s
  | Integration                                :        0.531 s           0.531 s
  | Solution of K.-S. eqns.                    :        0.149 s           0.149 s
  | Total energy evaluation                    :        0.000 s           0.000 s

  Partial memory accounting:
  | Current value for overall tracked memory usage on task 0  :           3.712 MB
  | Peak value for overall tracked memory usage on task 0     :           6.214 MB after allocating wave
  | Largest tracked array allocation on task 0 so far         :           2.995 MB  when allocating +KS_eigenvector_complex
  Note:  These values currently only include a subset of arrays which are explicitly tracked.
  The "true" memory usage will be greater.
------------------------------------------------------------

------------------------------------------------------------
          Begin self-consistency iteration #    9

  Date     :  20190513, Time     :  134235.906
------------------------------------------------------------
  Evaluating new KS density using the density matrix
  Evaluating density matrix
  Time summed over all CPUs for getting density from density matrix: real work        0.859 s, elapsed        0.859 s
  Integration grid: deviation in total charge (<rho> - N_e) =  -1.492140E-13
  Pulay mixing of updated and previous charge densities.

  Evaluating partitioned Hartree potential by multipole expansion.
  | Analytical far-field extrapolation by fixed multipoles:
  | Hartree multipole sum: apparent total charge =   0.405519E-02
  Summing up the Hartree potential.
  Time summed over all CPUs for potential: real work        0.445 s, elapsed        0.445 s
  | RMS charge density error from multipole expansion :   0.913049E-02
  | Average real-space part of the electrostatic potential :      0.22022030 eV

  Integrating Hamiltonian matrix: batch-based integration.
  Time summed over all CPUs for integration: real work        0.521 s, elapsed        0.521 s

  Updating Kohn-Sham eigenvalues, eigenvectors, occupation numbers, and Fermi level.
  Solving generalized eigenproblem

  Obtaining occupation numbers and chemical potential using ELSI.
  | Chemical potential (Fermi level):    -5.28920017eV
  What follows are estimated values for band gap, HOMO, LUMO, etc.
  | They are estimated on a discrete k-point grid and not necessarily exact.
  | For converged numbers, create a DOS and/or band structure plot on a denser k-grid.

  Highest occupied state (VBM) at     -5.72916717 eV (relative to internal zero)
  | Occupation number:      2.00000000
  | K-point:       1 at    0.000000    0.000000    0.000000 (in units of recip. lattice)

  Lowest unoccupied state (CBM) at    -5.04466380 eV (relative to internal zero)
  | Occupation number:      0.00000000
  | K-point:      30 at    0.000000    0.625000    0.625000 (in units of recip. lattice)

  ESTIMATED overall HOMO-LUMO gap:      0.68450336 eV between HOMO at k-point 1 and LUMO at k-point 30
  | This appears to be an indirect band gap.
  | Smallest direct gap :      2.24156886 eV for k_point 205 at    0.000000    0.625000    0.625000 (in units of recip. lattice)
  The gap value is above 0.2 eV. Unless you are using a very sparse k-point grid,
  this system is most likely an insulator or a semiconductor.

  Total energy components:
  | Sum of eigenvalues            :        -327.58069032 Ha       -8913.92411915 eV
  | XC energy correction          :         -39.64787767 Ha       -1078.87364389 eV
  | XC potential correction       :          52.38140521 Ha        1425.37055793 eV
  | Free-atom electrostatic energy:        -263.51748770 Ha       -7170.67568031 eV
  | Hartree energy correction     :          -0.36785530 Ha         -10.00985209 eV
  | Entropy correction            :          -0.00000000 Ha          -0.00000000 eV
  | ---------------------------
  | Total energy                  :        -578.73250578 Ha      -15748.11273751 eV
  | Total energy, T -> 0          :        -578.73250578 Ha      -15748.11273751 eV  <-- do not rely on this value for anything but (periodic) metals
  | Electronic free energy        :        -578.73250578 Ha      -15748.11273751 eV

  Derived energy quantities:
[...]
  | Total energy evaluation                    :        0.000 s           0.000 s

  Partial memory accounting:
  | Current value for overall tracked memory usage on task 0  :           3.712 MB
  | Peak value for overall tracked memory usage on task 0     :           6.214 MB after allocating wave
  | Largest tracked array allocation on task 0 so far         :           2.995 MB  when allocating +KS_eigenvector_complex
  Note:  These values currently only include a subset of arrays which are explicitly tracked.
  The "true" memory usage will be greater.
------------------------------------------------------------

------------------------------------------------------------
          Begin self-consistency iteration #   10

  Date     :  20190513, Time     :  134237.947
------------------------------------------------------------
  Evaluating new KS density using the density matrix
  Evaluating density matrix
  Time summed over all CPUs for getting density from density matrix: real work        0.858 s, elapsed        0.858 s
  Integration grid: deviation in total charge (<rho> - N_e) =   3.552714E-14
  Pulay mixing of updated and previous charge densities.

  Evaluating partitioned Hartree potential by multipole expansion.
  | Analytical far-field extrapolation by fixed multipoles:
  | Hartree multipole sum: apparent total charge =   0.405177E-02
  Summing up the Hartree potential.
  Time summed over all CPUs for potential: real work        0.445 s, elapsed        0.445 s
  | RMS charge density error from multipole expansion :   0.910238E-02
  | Average real-space part of the electrostatic potential :      0.21439719 eV

  Integrating Hamiltonian matrix: batch-based integration.
  Time summed over all CPUs for integration: real work        0.524 s, elapsed        0.524 s

  Updating Kohn-Sham eigenvalues, eigenvectors, occupation numbers, and Fermi level.
  Solving generalized eigenproblem

  Obtaining occupation numbers and chemical potential using ELSI.
  | Chemical potential (Fermi level):    -5.29434803eV
  What follows are estimated values for band gap, HOMO, LUMO, etc.
  | They are estimated on a discrete k-point grid and not necessarily exact.
  | For converged numbers, create a DOS and/or band structure plot on a denser k-grid.

  Highest occupied state (VBM) at     -5.73631996 eV (relative to internal zero)
  | Occupation number:      2.00000000
  | K-point:       1 at    0.000000    0.000000    0.000000 (in units of recip. lattice)

  Lowest unoccupied state (CBM) at    -5.04725010 eV (relative to internal zero)
  | Occupation number:      0.00000000
  | K-point:      30 at    0.000000    0.625000    0.625000 (in units of recip. lattice)

  ESTIMATED overall HOMO-LUMO gap:      0.68906986 eV between HOMO at k-point 1 and LUMO at k-point 30
  | This appears to be an indirect band gap.
  | Smallest direct gap :      2.24245523 eV for k_point 205 at    0.000000    0.625000    0.625000 (in units of recip. lattice)
  The gap value is above 0.2 eV. Unless you are using a very sparse k-point grid,
  this system is most likely an insulator or a semiconductor.

  Total energy components:
  | Sum of eigenvalues            :        -327.61173087 Ha       -8914.76877532 eV
  | XC energy correction          :         -39.64479747 Ha       -1078.78982734 eV
  | XC potential correction       :          52.37732629 Ha        1425.25956486 eV
  | Free-atom electrostatic energy:        -263.51748770 Ha       -7170.67568031 eV
  | Hartree energy correction     :          -0.33580627 Ha          -9.13775365 eV
  | Entropy correction            :          -0.00000000 Ha          -0.00000000 eV
  | ---------------------------
  | Total energy                  :        -578.73249602 Ha      -15748.11247177 eV
  | Total energy, T -> 0          :        -578.73249602 Ha      -15748.11247177 eV  <-- do not rely on this value for anything but (periodic) metals
  | Electronic free energy        :        -578.73249602 Ha      -15748.11247177 eV

  Derived energy quantities:
  | Kinetic energy                :         579.35450830 Ha       15765.03828722 eV
  | Electrostatic energy          :       -1118.44220685 Ha      -30434.36093165 eV
  | Energy correction for multipole
  | error in Hartree potential    :           0.01140050 Ha           0.31022331 eV
  | Sum of eigenvalues per atom                           :       -4457.38438766 eV
  | Total energy (T->0) per atom                          :       -7874.05623588 eV  <-- do not rely on this value for anything but (periodic) metals
  | Electronic free energy per atom                       :       -7874.05623588 eV

  Self-consistency convergence accuracy:
  | Change of charge density      :  0.1877E-02
  | Change of sum of eigenvalues  : -0.8447E+00 eV
  | Change of total energy        :  0.2657E-03 eV

  End self-consistency iteration #    10       :  max(cpu_time)    wall_clock(cpu1)
  | Time for this iteration                    :        2.042 s           2.042 s
  | Charge density update                      :        0.876 s           0.876 s
  | Density mixing & preconditioning           :        0.043 s           0.043 s
  | Hartree multipole update                   :        0.001 s           0.001 s
  | Hartree multipole summation                :        0.448 s           0.448 s
  | Integration                                :        0.525 s           0.524 s
  | Solution of K.-S. eqns.                    :        0.150 s           0.150 s
  | Total energy evaluation                    :        0.000 s           0.000 s

  Partial memory accounting:
  | Current value for overall tracked memory usage on task 0  :           3.712 MB
  | Peak value for overall tracked memory usage on task 0     :           6.214 MB after allocating wave
  | Largest tracked array allocation on task 0 so far         :           2.995 MB  when allocating +KS_eigenvector_complex
  Note:  These values currently only include a subset of arrays which are explicitly tracked.
  The "true" memory usage will be greater.
------------------------------------------------------------

------------------------------------------------------------
          Begin self-consistency iteration #   11

  Date     :  20190513, Time     :  134239.990
------------------------------------------------------------
  Evaluating new KS density using the density matrix
  Evaluating density matrix
  Time summed over all CPUs for getting density from density matrix: real work        0.860 s, elapsed        0.860 s
  Integration grid: deviation in total charge (<rho> - N_e) =  -1.136868E-13
  Pulay mixing of updated and previous charge densities.

  Evaluating partitioned Hartree potential by multipole expansion.
  | Analytical far-field extrapolation by fixed multipoles:
  | Hartree multipole sum: apparent total charge =   0.405064E-02
  Summing up the Hartree potential.
  Time summed over all CPUs for potential: real work        0.447 s, elapsed        0.447 s
  | RMS charge density error from multipole expansion :   0.910232E-02
  | Average real-space part of the electrostatic potential :      0.21439651 eV

  Integrating Hamiltonian matrix: batch-based integration.
  Time summed over all CPUs for integration: real work        0.526 s, elapsed        0.526 s

  Updating Kohn-Sham eigenvalues, eigenvectors, occupation numbers, and Fermi level.
  Solving generalized eigenproblem

  Obtaining occupation numbers and chemical potential using ELSI.
  | Chemical potential (Fermi level):    -5.29435181eV
  What follows are estimated values for band gap, HOMO, LUMO, etc.
  | They are estimated on a discrete k-point grid and not necessarily exact.
  | For converged numbers, create a DOS and/or band structure plot on a denser k-grid.

  Highest occupied state (VBM) at     -5.73632442 eV (relative to internal zero)
  | Occupation number:      2.00000000
  | K-point:       1 at    0.000000    0.000000    0.000000 (in units of recip. lattice)

  Lowest unoccupied state (CBM) at    -5.04725231 eV (relative to internal zero)
  | Occupation number:      0.00000000
  | K-point:      30 at    0.000000    0.625000    0.625000 (in units of recip. lattice)

  ESTIMATED overall HOMO-LUMO gap:      0.68907212 eV between HOMO at k-point 1 and LUMO at k-point 30
  | This appears to be an indirect band gap.
  | Smallest direct gap :      2.24245593 eV for k_point 179 at    0.000000    0.625000    0.625000 (in units of recip. lattice)
  The gap value is above 0.2 eV. Unless you are using a very sparse k-point grid,
  this system is most likely an insulator or a semiconductor.

  Total energy components:
  | Sum of eigenvalues            :        -327.61173451 Ha       -8914.76887435 eV
  | XC energy correction          :         -39.64479790 Ha       -1078.78983914 eV
  | XC potential correction       :          52.37732687 Ha        1425.25958046 eV
  | Free-atom electrostatic energy:        -263.51748770 Ha       -7170.67568031 eV
  | Hartree energy correction     :          -0.33580277 Ha          -9.13765836 eV
  | Entropy correction            :          -0.00000000 Ha          -0.00000000 eV
  | ---------------------------
  | Total energy                  :        -578.73249601 Ha      -15748.11247170 eV
  | Total energy, T -> 0          :        -578.73249601 Ha      -15748.11247170 eV  <-- do not rely on this value for anything but (periodic) metals
  | Electronic free energy        :        -578.73249601 Ha      -15748.11247170 eV

  Derived energy quantities:
  | Kinetic energy                :         579.35451442 Ha       15765.03845382 eV
  | Electrostatic energy          :       -1118.44221254 Ha      -30434.36108637 eV
  | Energy correction for multipole
  | error in Hartree potential    :           0.01140037 Ha           0.31021991 eV
  | Sum of eigenvalues per atom                           :       -4457.38443717 eV
  | Total energy (T->0) per atom                          :       -7874.05623585 eV  <-- do not rely on this value for anything but (periodic) metals
  | Electronic free energy per atom                       :       -7874.05623585 eV

  Self-consistency convergence accuracy:
  | Change of charge density      :  0.5267E-06
  | Change of sum of eigenvalues  : -0.9903E-04 eV
  | Change of total energy        :  0.6673E-07 eV

  Preliminary charge convergence reached. Turning off preconditioner.

  Writing Kohn-Sham eigenvalues.
  K-point:       1 at    0.000000    0.000000    0.000000 (in units of recip. lattice)

  State    Occupation    Eigenvalue [Ha]    Eigenvalue [eV]
      1       2.00000         -65.494802        -1782.20423
      2       2.00000         -65.494802        -1782.20423
      3       2.00000          -5.097960         -138.72255
      4       2.00000          -5.097771         -138.71741
      5       2.00000          -3.511636          -95.55648
      6       2.00000          -3.511636          -95.55648
      7       2.00000          -3.511636          -95.55648
      8       2.00000          -3.511205          -95.54474
      9       2.00000          -3.511205          -95.54474
     10       2.00000          -3.511205          -95.54474
     11       2.00000          -0.628222          -17.09480
     12       2.00000          -0.210806           -5.73632
     13       2.00000          -0.210806           -5.73632
     14       2.00000          -0.210806           -5.73632
     15       0.00000          -0.127635           -3.47311
     16       0.00000          -0.118262           -3.21808
     17       0.00000          -0.118262           -3.21808
     18       0.00000          -0.118262           -3.21808
     19       0.00000           0.079294            2.15771
     20       0.00000           0.079294            2.15771

  What follows are estimated values for band gap, HOMO, LUMO, etc.
  | They are estimated on a discrete k-point grid and not necessarily exact.
  | For converged numbers, create a DOS and/or band structure plot on a denser k-grid.

  Highest occupied state (VBM) at     -5.73632442 eV (relative to internal zero)
  | Occupation number:      2.00000000
  | K-point:       1 at    0.000000    0.000000    0.000000 (in units of recip. lattice)

  Lowest unoccupied state (CBM) at    -5.04725231 eV (relative to internal zero)
  | Occupation number:      0.00000000
  | K-point:      30 at    0.000000    0.625000    0.625000 (in units of recip. lattice)

  ESTIMATED overall HOMO-LUMO gap:      0.68907212 eV between HOMO at k-point 1 and LUMO at k-point 30
  | This appears to be an indirect band gap.
  | Smallest direct gap :      2.24245593 eV for k_point 179 at    0.000000    0.625000    0.625000 (in units of recip. lattice)
  The gap value is above 0.2 eV. Unless you are using a very sparse k-point grid,
  this system is most likely an insulator or a semiconductor.

  Self-consistency cycle converged.

  End self-consistency iteration #    11       :  max(cpu_time)    wall_clock(cpu1)
  | Time for this iteration                    :        2.050 s           2.049 s
  | Charge density update                      :        0.879 s           0.878 s
  | Density mixing                             :        0.043 s           0.044 s
  | Hartree multipole update                   :        0.001 s           0.000 s
  | Hartree multipole summation                :        0.450 s           0.451 s
  | Integration                                :        0.526 s           0.526 s
  | Solution of K.-S. eqns.                    :        0.150 s           0.150 s
  | Total energy evaluation                    :        0.000 s           0.000 s

  Partial memory accounting:
  | Current value for overall tracked memory usage on task 0  :           3.712 MB
  | Peak value for overall tracked memory usage on task 0     :           6.214 MB after allocating wave
  | Largest tracked array allocation on task 0 so far         :           2.995 MB  when allocating +KS_eigenvector_complex
  Note:  These values currently only include a subset of arrays which are explicitly tracked.
  The "true" memory usage will be greater.
------------------------------------------------------------

  Energy and forces in a compact form:
  | Total energy uncorrected      :         -0.157481124717000E+05 eV
  | Total energy corrected        :         -0.157481124717000E+05 eV  <-- do not rely on this value for anything but (periodic) metals
  | Electronic free energy        :         -0.157481124717000E+05 eV

  ------------------------------------ 
  Start decomposition of the XC Energy 
  ------------------------------------ 
  X and C from original XC functional choice 
  Hartree-Fock Energy :          0.000000000 Ha              0.000000000 eV
  X Energy            :        -37.503633457 Ha          -1020.525790134 eV
  C Energy            :         -2.141164446 Ha            -58.264049010 eV
  Total XC Energy     :        -39.644797902 Ha          -1078.789839144 eV
  ------------------------------------ 
  LDA X and C from self-consistent density 
  X Energy LDA        :        -37.503633457 Ha          -1020.525790134 eV
  C Energy LDA        :         -2.141164446 Ha            -58.264049010 eV
  ------------------------------------ 
  End decomposition of the XC Energy 
  ------------------------------------ 

------------------------------------------------------------

------------------------------------------------------------------------------
  Final output of selected total energy values:

  The following output summarizes some interesting total energy values
  at the end of a run (AFTER all relaxation, molecular dynamics, etc.).

  | Total energy of the DFT / Hartree-Fock s.c.f. calculation      :         -15748.112471700 eV
  | Final zero-broadening corrected energy (caution - metals only) :         -15748.112471700 eV
  | For reference only, the value of 1 Hartree used in FHI-aims is :             27.211384500 eV

  Before relying on these values, please be sure to understand exactly which
  total energy value is referred to by a given number. Different objects may
  all carry the same name 'total energy'. Definitions:

  Total energy of the DFT / Hartree-Fock s.c.f. calculation:
  | Note that this energy does not include ANY quantities calculated after the
  | s.c.f. cycle, in particular not ANY RPA, MP2, etc. many-body perturbation terms.

  Final zero-broadening corrected energy:
  | For metallic systems only, a broadening of the occupation numbers at the Fermi
  | level can be extrapolated back to zero broadening by an electron-gas inspired
  | formula. For all systems that are not real metals, this value can be
  | meaningless and should be avoided.

------------------------------------------------------------------------------
  Methods described in the following list of references were used in this FHI-aims run.
  If you publish the results, please make sure to cite these reference if they apply.
  FHI-aims is an academic code, and for our developers (often, Ph.D. students
  and postdocs), scientific credit in the community is essential.
  Thank you for helping us!

  For any use of FHI-aims, please cite:

    Volker Blum, Ralf Gehrke, Felix Hanke, Paula Havu, Ville Havu,
    Xinguo Ren, Karsten Reuter, and Matthias Scheffler
    'Ab initio molecular simulations with numeric atom-centered orbitals'
    Computer Physics Communications 180, 2175-2196 (2009)
    http://dx.doi.org/10.1016/j.cpc.2009.06.022


  For the real-space grid partitioning and parallelization used in this calculation, please cite:

    Ville Havu, Volker Blum, Paula Havu, and Matthias Scheffler,
    'Efficient O(N) integration for all-electron electronic structure calculation'
    'using numerically tabulated basis functions'
    Journal of Computational Physics 228, 8367-8379 (2009).
    http://dx.doi.org/10.1016/j.jcp.2009.08.008

  Of course, there are many other important community references, e.g., those cited in the
  above references. Our list is limited to references that describe implementations in the
  FHI-aims code. The reason is purely practical (length of this list) - please credit others as well.

------------------------------------------------------------
          Leaving FHI-aims.
          Date     :  20190513, Time     :  134242.049

          Computational steps:
          | Number of self-consistency cycles          :           11
          | Number of SCF (re)initializations          :            1

          Detailed time accounting                     :  max(cpu_time)    wall_clock(cpu1)
          | Total time                                 :       24.813 s          24.820 s
          | Preparation time                           :        0.095 s           0.095 s
          | Boundary condition initalization           :        0.040 s           0.040 s
          | Grid partitioning                          :        0.028 s           0.028 s
          | Preloading free-atom quantities on grid    :        0.001 s           0.001 s
          | Free-atom superposition energy             :        0.029 s           0.028 s
          | Total time for integrations                :        6.734 s           6.735 s
          | Total time for solution of K.-S. equations :        1.997 s           1.998 s
          | Total time for density update              :       10.268 s          10.268 s
          | Total time for mixing & preconditioning    :        0.502 s           0.503 s
          | Total time for Hartree multipole update    :        0.009 s           0.008 s
          | Total time for Hartree multipole sum       :        4.964 s           4.965 s
          | Total time for total energy evaluation     :        0.002 s           0.001 s
          | Total time for scaled ZORA corrections     :        0.000 s           0.000 s

 This is a stub MPI_ALLREDUCE call.
 You should not be here. Check your
 setting on the use_mpi variable, or
 link against true MPI-libraries.
