------------------------------------------------------------
          Invoking FHI-aims ...
          Version 171221_1
          Compiled on 2019/05/06 at 14:26:40 on host ffph0xx.

          When using FHI-aims, please cite the following reference:

          Volker Blum, Ralf Gehrke, Felix Hanke, Paula Havu,
          Ville Havu, Xinguo Ren, Karsten Reuter, and Matthias Scheffler,
          'Ab Initio Molecular Simulations with Numeric Atom-Centered Orbitals',
          Computer Physics Communications 180, 2175-2196 (2009)

          For any questions about FHI-aims, please visit the aimsclub website
          with its forums and wiki. Contributions to both the forums and the
          wiki are warmly encouraged - they are for you, and everyone is welcome there.

------------------------------------------------------------



  Date     :  20190513, Time     :  134609.435
  Time zero on CPU 1             :   0.644000000000000E-03  s.
  Internal wall clock time zero  :           326987169.435  s.

  FHI-aims created a unique identifier for this run for later identification
  aims_uuid : B343E375-57BC-453D-A749-0C3E2B3EB83A


  Performing system and environment tests:
  *** Environment variable OMP_NUM_THREADS is not set
  *** For performance reasons you might want to set it to 1
  | Stacksize not measured: no C compiler

  Obtaining array dimensions for all initial allocations:
  
  -----------------------------------------------------------------------
  Parsing control.in (first pass over file, find array dimensions only).
  The contents of control.in will be repeated verbatim below
  unless switched off by setting 'verbatim_writeout .false.' .
  in the first line of control.in .
  -----------------------------------------------------------------------
  
  #--- method ---
  xc pw-lda
  spin none
  relativistic atomic_zora scalar
  #---
  
  #--- k-grid settings ---
  k_grid 16 16 16
  #---
  
  
  
  
  
  
  
  
  
  
  
  #-------------------------------------------------------------------------------
  #--- Species defaults for Si
  #-------------------------------------------------------------------------------
  
  ################################################################################
  #
  #  FHI-aims code project
  #  VB, Fritz-Haber Institut, 2009
  #
  #  Suggested "light" defaults for Si atom (to be pasted into control.in file)
  #  Be sure to double-check any results obtained with these settings for post-processing,
  #  e.g., with the "tight" defaults and larger basis sets.
  #
  ################################################################################
    species        Si
  #     global species definitions
      nucleus             14
      mass                28.0855
  #
      l_hartree           4
  #
      cut_pot             3.5          1.5  1.0
      basis_dep_cutoff    1e-4
  #
      radial_base         42 5.0
      radial_multiplier   1
      angular_grids       specified
        division   0.5866   50
        division   0.9616  110
        division   1.2249  194
        division   1.3795  302
  #      division   1.4810  434
  #      division   1.5529  590
  #      division   1.6284  770
  #      division   1.7077  974
  #      division   2.4068 1202
  #      outer_grid   974
        outer_grid 302
  ################################################################################
  #
  #  Definition of "minimal" basis
  #
  ################################################################################
  #     valence basis states
      valence      3  s   2.
      valence      3  p   2.
  #     ion occupancy
      ion_occ      3  s   1.
      ion_occ      3  p   1.
  ################################################################################
  #
  #  Suggested additional basis functions. For production calculations,
  #  uncomment them one after another (the most important basis functions are
  #  listed first).
  #
  #  Constructed for dimers: 1.75 A, 2.0 A, 2.25 A, 2.75 A, 3.75 A
  #
  ################################################################################
  #  "First tier" - improvements: -571.96 meV to -37.03 meV
       hydro 3 d 4.2
       hydro 2 p 1.4
  #     hydro 4 f 6.2
       ionic 3 s auto
  #  "Second tier" - improvements: -16.76 meV to -3.03 meV
  #     hydro 3 d 9
  #     hydro 5 g 9.4
  #     hydro 4 p 4
  #     hydro 1 s 0.65
  #  "Third tier" - improvements: -3.89 meV to -0.60 meV
  #     ionic 3 d auto
  #     hydro 3 s 2.6
  #     hydro 4 f 8.4
  #     hydro 3 d 3.4
  #     hydro 3 p 7.8
  #  "Fourth tier" - improvements: -0.33 meV to -0.11 meV
  #     hydro 2 p 1.6
  #     hydro 5 g 10.8
  #     hydro 5 f 11.2
  #     hydro 3 d 1
  #     hydro 4 s 4.5
  #  Further basis functions that fell out of the optimization - noise
  #  level... < -0.08 meV
  #     hydro 4 d 6.6
  #     hydro 5 g 16.4
  #     hydro 4 d 9
  
  -----------------------------------------------------------------------
  Completed first pass over input file control.in .
  -----------------------------------------------------------------------
  
  
  -----------------------------------------------------------------------
  Parsing geometry.in (first pass over file, find array dimensions only).
  The contents of geometry.in will be repeated verbatim below
  unless switched off by setting 'verbatim_writeout .false.' .
  in the first line of geometry.in .
  -----------------------------------------------------------------------
  
  lattice_vector   0.000000   2.600000   2.600000
  lattice_vector   2.600000   0.000000   2.600000
  lattice_vector   2.600000   2.600000   0.000000
  atom_frac   0.000000   0.000000   0.000000 Si
  atom_frac   0.250000   0.250000   0.250000 Si
  
  -----------------------------------------------------------------------
  Completed first pass over input file geometry.in .
  -----------------------------------------------------------------------
  

  Basic array size parameters:
  | Number of species                 :        1
  | Number of atoms                   :        2
  | Number of lattice vectors         :        3
  | Max. basis fn. angular momentum   :        2
  | Max. atomic/ionic basis occupied n:        3
  | Max. number of basis fn. types    :        3
  | Max. radial fns per species/type  :        5
  | Max. logarithmic grid size        :     1346
  | Max. radial integration grid size :       42
  | Max. angular integration grid size:      302
  | Max. angular grid division number :        8
  | Radial grid for Hartree potential :     1346
  | Number of spin channels           :        1

------------------------------------------------------------
          Reading file control.in.
------------------------------------------------------------
  XC: Using Perdew-Wang parametrisation of Ceperley-Alder LDA.
  Spin treatment: No spin polarisation.
  Scalar relativistic treatment of kinetic energy: on-site free-atom approximation to ZORA.
  Found k-point grid:        16        16        16

  Reading configuration options for species Si                  .
  | Found nuclear charge :  14.0000
  | Found atomic mass :    28.085500000000000      amu
  | Found l_max for Hartree potential  :   4
  | Found cutoff potl. onset [A], width [A], scale factor :    3.50000    1.50000    1.00000
  | Threshold for basis-dependent cutoff potential is   0.100000E-03
  | Found data for basic radial integration grid :    42 points, outermost radius =    5.000 A
  | Found multiplier for basic radial grid :   1
  | Found angular grid specification: user-specified.
  | Specified grid contains     5 separate shells.
  | Check grid settings after all constraints further below.
  | Found free-atom valence shell :  3 s   2.000
  | Found free-atom valence shell :  3 p   2.000
  | Found free-ion valence shell :  3 s   1.000
  | Found free-ion valence shell :  3 p   1.000
  | Found hydrogenic basis function :  3 d   4.200
  | Found hydrogenic basis function :  2 p   1.400
  | Found ionic basis function :  3 s , default cutoff radius.
  Species Si                  : Missing cutoff potential type.
  Defaulting to exp(1/x)/(1-x)^2 type cutoff potential.
  Species Si: No 'logarithmic' tag. Using default grid for free atom:
  | Default logarithmic grid data [bohr] : 0.1000E-03 0.1000E+03 0.1012E+01
  | Will include ionic basis functions of  2.0-fold positive Si                   ion.
  Species Si: On-site basis accuracy parameter (for Gram-Schmidt orthonormalisation) not specified.
  Using default value basis_acc =  0.1000000E-03.
  Species Si                  : Using default innermost maximum threshold i_radial=  2 for radial functions.
  Species Si                  : Default cutoff onset for free atom density etc. : 0.35000000E+01 AA.
  Species Si                  : Basic radial grid will be enhanced according to radial_multiplier =   1, to contain    42 grid points.

  Finished reading input file 'control.in'. Consistency checks are next.

  MPI_IN_PLACE appears to work with this MPI implementation.
  | Keeping use_mpi_in_place .true. (see manual).
  Target number of points in a grid batch is not set. Defaulting to  100
  Method for grid partitioning is not set. Defaulting to 'maxmin' partitioning.
  Batch size limit is not set. Defaulting to    200
  By default, will store active basis functions for each batch.
  If in need of memory, prune_basis_once .false. can be used to disable this option.
  communication_type for Hartree potential was not specified.
  Defaulting to calc_hartree .
 * Attention: 
 * You may want to set distributed_spline_storage to .true. in order to save memory.
 * This doesn't harm performance and is perfectly ok unless:
 * - you get error messages in postprocessing (about missing atoms in get_rho_multipole_spl)
 * - you need full spline storage in hirshfeld_analysis
  Defaulting to Pulay charge density mixer.
  Pulay mixer: Number of relevant iterations not set.
  Defaulting to    8 iterations.
  Pulay mixer: Number of initial linear mixing iterations not set.
  Defaulting to    0 iterations.
  Work space size for distributed Hartree potential not set.
  Defaulting to   0.200000E+03 MB.
  Mixing parameter for charge density mixing has not been set.
  Using default: charge_mix_param =     0.0500.
  The mixing parameter will be adjusted in iteration number     2 of the first full s.c.f. cycle only.
  Algorithm-dependent basis array size parameters:
  | n_max_pulay                         :        8
 * Notice: The s.c.f. convergence criterion sc_accuracy_rho was not provided.
 * We used to stop in this case, and ask the user to provide reasonable
 * scf convergence criteria. However, this led some users to employ criteria
 * that led to extremely long run times, e.g., for simple relaxation.
 * We now preset a default value for sc_accuracy_rho if it is not set.
 * You may still wish to check if this setting is too tight or too loose for your needs.
 * Based on n_atoms, FHI-aims chose sc_accuracy_rho =  0.100000E-05 .
  Maximum number of self-consistency iterations not provided.
  Presetting  1000 iterations.
  Presetting      1001 iterations before the initial mixing cycle
  is restarted anyway using the sc_init_iter criterion / keyword.
  Presetting a factor      1.000 between actual scf density residual
  and density convergence criterion sc_accuracy_rho below which sc_init_iter
  takes no effect.
 * No s.c.f. convergence criteria (sc_accuracy_*) were provided in control.in.
 * The run will proceed with a reasonable default guess, but please check whether.
 * the s.c.f. cycles seem to take too much or too little time.
  Calculation of forces was not defined in control.in. No forces will be calculated.
  Geometry relaxation not requested: no relaxation will be performed.
  No accuracy limit for integral partition fn. given. Defaulting to  0.1000E-14.
  No threshold value for u(r) in integrations given. Defaulting to  0.1000E-05.
  No occupation type (smearing scheme) given. Defaulting to Gaussian broadening, width =  0.1000E-01 eV.
  The width will be adjusted in iteration number     2 of the first full s.c.f. cycle only.
  S.C.F. convergence parameters will be adjusted in iteration number     2 of the first full s.c.f. cycle only.
  No accuracy for occupation numbers given. Defaulting to  0.1000E-12.
  No threshold value for occupation numbers given. Defaulting to  0.0000E+00.
  No accuracy for fermi level given. Defaulting to  0.1000E-19.
  Maximum # of iterations to find E_F not set. Defaulting to  200.
  Preferred method for the eigenvalue solver ('KS_method') not specified in 'control.in'.
  Defaulting to serial version, 'lapack_fast'.
  Will not use alltoall communication since running on < 1024 CPUs.
  Threshold for basis singularities not set.
  Default threshold for basis singularities:  0.1000E-04
  partition_type (choice of integration weights) for integrals was not specified.
  | Using a version of the partition function of Stratmann and coworkers ('stratmann_smoother').
  | At each grid point, the set of atoms used to build the partition table is smoothly restricted to
  | only those atoms whose free-atom density would be non-zero at that grid point.
  Partitioning for Hartree potential was not defined. Using partition_type for integrals.
  | Adjusted default value of keyword multip_moments_threshold to:       0.10000000E-11
  | This value may affect high angular momentum components of the Hartree potential in periodic systems.
  Angular momentum expansion for Kerker preconditioner not set explicitly.
  | Using default value of   0
  No explicit requirement for turning off preconditioner.
  | By default, it will be turned off when the charge convergence reaches
  | sc_accuracy_rho  =   0.100000E-05
  No special mixing parameter while Kerker preconditioner is on.
  Using default: charge_mix_param =     0.0500.
  No q(lm)/r^(l+1) cutoff set for long-range Hartree potential.
  | Using default value of  0.100000E-09 .
  | Verify using the multipole_threshold keyword.
  Defaulting to new monopole extrapolation.
  Density update method: automatic selection selected.
  Using density matrix based charge density update.
  Using density matrix based charge density update.
  Using packed matrix style: index .
  Defaulting to use time-reversal symmetry for k-point grid.
------------------------------------------------------------


------------------------------------------------------------
          Reading geometry description geometry.in.
------------------------------------------------------------
  Input structure read successfully.
  The structure contains        2 atoms,  and a total of         28.000 electrons.

  Input geometry:
  | Unit cell:
  |        0.00000000        2.60000000        2.60000000
  |        2.60000000        0.00000000        2.60000000
  |        2.60000000        2.60000000        0.00000000
  | Atomic structure:
  |       Atom                x [A]            y [A]            z [A]
  |    1: Species Si            0.00000000        0.00000000        0.00000000
  |    2: Species Si            1.30000000        1.30000000        1.30000000

  Lattice parameters for 3D lattice (in Angstroms) :     3.676955    3.676955    3.676955
  Angle(s) between unit vectors (in degrees)      :    60.000000   60.000000   60.000000

  |

  | The smallest distance between any two atoms is         2.25166605 AA.
  |
  | The first atom of this pair is atom number                      1 .
  | The second atom of this pair is atom number                     2 .
  | Wigner-Seitz cell of the first atom image           0     0     0 .
  | (The Wigner-Seitz cell of the second atom is 0 0 0  by definition.)

  Quantities derived from the lattice vectors:
  | Reciprocal lattice vector 1: -1.208305  1.208305  1.208305
  | Reciprocal lattice vector 2:  1.208305 -1.208305  1.208305
  | Reciprocal lattice vector 3:  1.208305  1.208305 -1.208305
  | Unit cell volume                               :   0.351520E+02  A^3

  Range separation radius for Ewald summation (hartree_convergence_parameter):      3.70579113 bohr.

  Fractional coordinates:
                         L1                L2                L3
       atom_frac         0.00000000        0.00000000        0.00000000  Si
       atom_frac         0.25000000        0.25000000        0.25000000  Si

  Number of empty states per atom not set in control.in - providing a guess from actual geometry.
  | Total number of empty states used during s.c.f. cycle:        6
  If you use a very high smearing, use empty_states (per atom!) in control.in to increase this value.

  Structure-dependent array size parameters: 
  | Maximum number of distinct radial functions  :        8
  | Maximum number of basis functions            :       36
  | Number of Kohn-Sham states (occupied + empty):       20
------------------------------------------------------------

------------------------------------------------------------
          Preparing all fixed parts of the calculation.
------------------------------------------------------------
  Determining machine precision:
     2.2250738585072014E-308
  Setting up grids for atomic and cluster calculations.

  Creating wave function, potential, and density for free atoms.

  Species: Si

  List of occupied orbitals and eigenvalues:
    n    l              occ      energy [Ha]    energy [eV]
    1    0           2.0000       -65.491668     -1782.1190
    2    0           2.0000        -5.087967      -138.4506
    3    0           2.0000        -0.391471       -10.6525
    2    1           6.0000        -3.502246       -95.3010
    3    1           2.0000        -0.143943        -3.9169

  Creating fixed part of basis set: Ionic, confined, hydrogenic.

  Si                   ion:

  List of free ionic orbitals and eigenvalues:
    n    l      energy [Ha]    energy [eV]
    1    0       -66.364436     -1805.8682
    2    0        -5.935799      -161.5213
    3    0        -1.078166       -29.3384
    2    1        -4.351123      -118.4001
    3    1        -0.781733       -21.2720


  List of ionic basis orbitals and eigenvalues:
    n    l      energy [Ha]    energy [eV]    outer radius [A]
    3    0        -1.078146       -29.3378       4.214062


  Si                   hydrogenic:

  List of hydrogenic basis orbitals: 
    n    l      effective z      eigenvalue [eV]  inner max. [A]     outer max. [A]     outer radius [A]   
    3    2         4.200000       -26.6624           1.139231           1.139231           4.534782
    2    1         1.400000        -6.4613           1.472672           1.472672           4.590560


  Adding cutoff potential to free-atom effective potential.
  Creating atomic-like basis functions for current effective potential.

  Species Si                  :

  List of atomic basis orbitals and eigenvalues:
    n    l      energy [Ha]    energy [eV]    outer radius [A]
    1    0       -65.491668     -1782.1190       0.789468
    2    0        -5.087967      -138.4506       2.815114
    3    0        -0.391471       -10.6525       4.534782
    2    1        -3.502246       -95.3010       3.259919
    3    1        -0.143943        -3.9169       4.590560

  Assembling full basis from fixed parts.
  | Species Si :   atomic orbital   1 s accepted.
  | Species Si :   atomic orbital   2 s accepted.
  | Species Si :    ionic orbital   3 s accepted.
  | Species Si :   atomic orbital   3 s accepted.
  | Species Si :   atomic orbital   2 p accepted.
  | Species Si :   atomic orbital   3 p accepted.
  | Species Si :    hydro orbital   2 p accepted.
  | Species Si :    hydro orbital   3 d accepted.

  Basis size parameters after reduction:
  | Total number of radial functions:        8
  | Total number of basis functions :       36

  Per-task memory consumption for arrays in subroutine allocate_ext:
  |           2.757868MB.
  Testing on-site integration grid accuracy.
  |  Species  Function  <phi|h_atom|phi> (log., in eV)  <phi|h_atom|phi> (rad., in eV)
           1        1              -1782.1189727076              -1782.1182429251
           1        2               -138.4506350693               -138.4506310079
           1        3                -10.3030408815                -10.3029120678
           1        4                  5.0238999146                  4.9457540310 ***
           1        5                -95.3009689499                -95.3009689315
           1        6                 -3.9266496564                 -3.9420918374
           1        7                  6.3453628447                  6.1632372158 ***
           1        8                  6.2883050744                  6.2861881409
 * Note: Onsite integrals marked "***" above are less accurate than
 * onsite_accuracy_threshold =    0.03000 eV. Usually, this is harmless.
 * When in doubt, tighten the "radial" and/or "radial_multiplier" flags to check.

  Preparing densities etc. for the partition functions (integrals / Hartree potential).

  Preparations completed.
  max(cpu_time)          :      0.092 s.
  Wall clock time (cpu1) :      0.092 s.
------------------------------------------------------------

------------------------------------------------------------
          Begin self-consistency loop: Initialization.

          Date     :  20190513, Time     :  134609.528
------------------------------------------------------------

  Initializing index lists of integration centers etc. from given atomic structure:
  Mapping all atomic coordinates to central unit cell.

  Initializing the k-points
          Using symmetry for reducing the k-points
  | k-points reduced from:     4096 to     2052
  | Number of k-points                             :      2052
  The eigenvectors in the calculations are COMPLEX.
  | K-points in task   0:      2052
  | Number of basis functions in the Hamiltonian integrals :      1498
  | Number of basis functions in a single unit cell        :        36
  | Number of centers in hartree potential         :       732
  | Number of centers in hartree multipole         :       336
  | Number of centers in electron density summation:       228
  | Number of centers in basis integrals           :       288
  | Number of centers in integrals                 :       101
  | Number of centers in hamiltonian               :       228
  | Consuming       4552 KiB for k_phase.
  | Number of super-cells (origin) [n_cells]                     :        2197
  | Number of super-cells (after PM_index) [n_cells]             :         142
  | Number of super-cells in hamiltonian [n_cells_in_hamiltonian]:         142
  | Size of matrix packed + index [n_hamiltonian_matrix_size] :       48927
  Partitioning the integration grid into batches with maxmin method.
  | Maximal weight for a single point:     1.000
  | Minimal weight for a single point:     0.679
  | Number of batches:      128
  | Maximal batch size:      91
  | Minimal batch size:      85
  | Average batch size:      87.562
  | Standard deviation of batch sizes:       1.519
  Initializing partition tables, free-atom densities, potentials, etc. across the integration grid (initialize_grid_storage).
  | initialize_grid_storage: Actual outermost partition radius vs. multipole_radius_free
  | (-- VB: in principle, multipole_radius_free should be larger, hence this output)
  | Species        1: Confinement radius =              4.999999999999999 AA, multipole_radius_free =              5.000694715736543 AA.
  | Species        1: outer_partition_radius set to              5.000694715736543 AA .
  | Original list of interatomic distances with         288 x        288 entries is created.
  | Net number of integration points:    11208
  | of which are non-zero points    :     9628
  | Numerical average free-atom electrostatic potential    :    -14.97128553 eV
  Renormalizing the initial density to the exact electron count on the 3D integration grid.
  | Initial density: Formal number of electrons (from input files) :      28.0000000000
  | Integrated number of electrons on 3D grid     :      28.0062648448
  | Charge integration error                      :       0.0062648448
  | Normalization factor for density and gradient :       0.9997763056
  Obtaining max. number of non-zero basis functions in each batch (get_n_compute_maxes).
  | Maximal number of non-zero basis functions:      545 in task     0
  Allocating       23.639 MB for KS_eigenvector_complex
  Integrating Hamiltonian matrix: batch-based integration.
  Time summed over all CPUs for integration: real work        0.757 s, elapsed        0.757 s
  Integrating overlap matrix.
  Time summed over all CPUs for integration: real work        0.527 s, elapsed        0.527 s
  Decreasing sparse matrix size:
   Tolerance:   9.9999998245167004E-014
   Hamiltonian matrix
  | Array has    40831 nonzero elements out of    48927 elements
  | Sparsity factor is 0.165
   Overlap matrix
  | Array has    39416 nonzero elements out of    48927 elements
  | Sparsity factor is 0.194
  New size of hamiltonian matrix:       41087

  Updating Kohn-Sham eigenvalues, eigenvectors, occupation numbers, and Fermi level.
  Solving generalized eigenproblem
  Transforming overlap matrix and checking for singularities.
  Overlap matrix is nonsingular at first k-point:
  | Lowest eigenvalue:  0.272704E-02

  Obtaining occupation numbers and chemical potential using ELSI.
  | Chemical potential (Fermi level):    -6.53495572eV
  Writing Kohn-Sham eigenvalues.
  K-point:       1 at    0.000000    0.000000    0.000000 (in units of recip. lattice)

  State    Occupation    Eigenvalue [Ha]    Eigenvalue [eV]
      1       2.00000         -65.522260        -1782.95140
      2       2.00000         -65.522260        -1782.95140
      3       2.00000          -5.125437         -139.47023
      4       2.00000          -5.124876         -139.45497
      5       2.00000          -3.539742          -96.32129
      6       2.00000          -3.539742          -96.32129
      7       2.00000          -3.539742          -96.32129
      8       2.00000          -3.538675          -96.29224
      9       2.00000          -3.538675          -96.29224
     10       2.00000          -3.538675          -96.29224
     11       2.00000          -0.711565          -19.36268
     12       2.00000          -0.244530           -6.65399
     13       2.00000          -0.244530           -6.65399
     14       2.00000          -0.244530           -6.65399
     15       0.00000          -0.136690           -3.71952
     16       0.00000          -0.136690           -3.71952
     17       0.00000          -0.136690           -3.71952
     18       0.00000          -0.061220           -1.66587
     19       0.00000           0.056828            1.54638
     20       0.00000           0.056828            1.54638

  What follows are estimated values for band gap, HOMO, LUMO, etc.
  | They are estimated on a discrete k-point grid and not necessarily exact.
  | For converged numbers, create a DOS and/or band structure plot on a denser k-grid.

  Highest occupied state (VBM) at     -6.65398812 eV (relative to internal zero)
  | Occupation number:      2.00000000
  | K-point:       1 at    0.000000    0.000000    0.000000 (in units of recip. lattice)

  Lowest unoccupied state (CBM) at    -5.95720125 eV (relative to internal zero)
  | Occupation number:      0.00000000
  | K-point:     105 at    0.000000    0.562500    0.562500 (in units of recip. lattice)

  ESTIMATED overall HOMO-LUMO gap:      0.69678686 eV between HOMO at k-point 1 and LUMO at k-point 105
  | This appears to be an indirect band gap.
  | Smallest direct gap :      2.93447112 eV for k_point 1 at    0.000000    0.562500    0.562500 (in units of recip. lattice)
  The gap value is above 0.2 eV. Unless you are using a very sparse k-point grid,
  this system is most likely an insulator or a semiconductor.
  Calculating total energy contributions from superposition of free atom densities.

  Total energy components:
  | Sum of eigenvalues            :        -328.58147483 Ha       -8941.15685105 eV
  | XC energy correction          :         -39.73528977 Ha       -1081.25224815 eV
  | XC potential correction       :          52.49618852 Ha        1428.49397065 eV
  | Free-atom electrostatic energy:        -262.91798028 Ha       -7154.36225349 eV
  | Hartree energy correction     :          -0.00000000 Ha          -0.00000000 eV
  | Entropy correction            :          -0.00000000 Ha          -0.00000000 eV
  | ---------------------------
  | Total energy                  :        -578.73855636 Ha      -15748.27738204 eV
  | Total energy, T -> 0          :        -578.73855636 Ha      -15748.27738204 eV  <-- do not rely on this value for anything but (periodic) metals
  | Electronic free energy        :        -578.73855636 Ha      -15748.27738204 eV

  Derived energy quantities:
  | Kinetic energy                :         579.91695448 Ha       15780.34322637 eV
  | Electrostatic energy          :       -1118.92022107 Ha      -30447.36836027 eV
  | Energy correction for multipole
  | error in Hartree potential    :           0.00000000 Ha           0.00000000 eV
  | Sum of eigenvalues per atom                           :       -4470.57842553 eV
  | Total energy (T->0) per atom                          :       -7874.13869102 eV  <-- do not rely on this value for anything but (periodic) metals
  | Electronic free energy per atom                       :       -7874.13869102 eV
  Initialize hartree_potential_storage
  Max. number of atoms included in rho_multipole:            2

  End scf initialization - timings             :  max(cpu_time)    wall_clock(cpu1)
  | Time for scf. initialization               :        4.110 s           4.110 s
  | Boundary condition initialization          :        0.047 s           0.047 s
  | Integration                                :        1.285 s           1.285 s
  | Solution of K.-S. eqns.                    :        2.512 s           2.512 s
  | Grid partitioning                          :        0.032 s           0.032 s
  | Preloading free-atom quantities on grid    :        0.001 s           0.001 s
  | Free-atom superposition energy             :        0.035 s           0.036 s
  | Total energy evaluation                    :        0.001 s           0.000 s

  Partial memory accounting:
  | Current value for overall tracked memory usage on task 0  :          24.461 MB
  | Peak value for overall tracked memory usage on task 0     :          28.184 MB after allocating wave
  | Largest tracked array allocation on task 0 so far         :          23.639 MB  when allocating +KS_eigenvector_complex
  Note:  These values currently only include a subset of arrays which are explicitly tracked.
  The "true" memory usage will be greater.
------------------------------------------------------------

------------------------------------------------------------
          Begin self-consistency iteration #    1

  Date     :  20190513, Time     :  134613.638
------------------------------------------------------------
  Evaluating new KS density using the density matrix
  Evaluating density matrix
  Time summed over all CPUs for getting density from density matrix: real work        1.512 s, elapsed        1.512 s
  Integration grid: deviation in total charge (<rho> - N_e) =   9.237056E-14
  Pulay mixing of updated and previous charge densities.

  Evaluating partitioned Hartree potential by multipole expansion.
  | Analytical far-field extrapolation by fixed multipoles:
  | Hartree multipole sum: apparent total charge =   0.647520E-02
  Summing up the Hartree potential.
  | Estimated reciprocal-space cutoff momentum G_max:         2.52493718 bohr^-1 .
  | Reciprocal lattice points for long-range Hartree potential:      58
  Time summed over all CPUs for potential: real work        0.369 s, elapsed        0.369 s
  | RMS charge density error from multipole expansion :   0.677623E-03
  | Average real-space part of the electrostatic potential :     -0.00460591 eV

  Integrating Hamiltonian matrix: batch-based integration.
  Time summed over all CPUs for integration: real work        0.822 s, elapsed        0.822 s

  Updating Kohn-Sham eigenvalues, eigenvectors, occupation numbers, and Fermi level.
  Solving generalized eigenproblem

  Obtaining occupation numbers and chemical potential using ELSI.
  | Chemical potential (Fermi level):    -6.51736208eV
  Writing Kohn-Sham eigenvalues.
  K-point:       1 at    0.000000    0.000000    0.000000 (in units of recip. lattice)

  State    Occupation    Eigenvalue [Ha]    Eigenvalue [eV]
      1       2.00000         -65.525821        -1783.04831
      2       2.00000         -65.525821        -1783.04831
      3       2.00000          -5.125903         -139.48292
      4       2.00000          -5.125343         -139.46768
      5       2.00000          -3.540309          -96.33671
      6       2.00000          -3.540309          -96.33671
      7       2.00000          -3.540309          -96.33671
      8       2.00000          -3.539244          -96.30773
      9       2.00000          -3.539244          -96.30773
     10       2.00000          -3.539244          -96.30773
     11       2.00000          -0.710961          -19.34623
     12       2.00000          -0.243628           -6.62947
     13       2.00000          -0.243628           -6.62947
     14       2.00000          -0.243628           -6.62947
     15       0.00000          -0.136258           -3.70776
     16       0.00000          -0.136258           -3.70776
     17       0.00000          -0.136258           -3.70776
     18       0.00000          -0.060449           -1.64489
     19       0.00000           0.057352            1.56064
     20       0.00000           0.057352            1.56064

  What follows are estimated values for band gap, HOMO, LUMO, etc.
  | They are estimated on a discrete k-point grid and not necessarily exact.
  | For converged numbers, create a DOS and/or band structure plot on a denser k-grid.

  Highest occupied state (VBM) at     -6.62946630 eV (relative to internal zero)
  | Occupation number:      2.00000000
  | K-point:       1 at    0.000000    0.000000    0.000000 (in units of recip. lattice)

  Lowest unoccupied state (CBM) at    -5.95032443 eV (relative to internal zero)
  | Occupation number:      0.00000000
  | K-point:    1288 at    0.437500    0.000000    0.437500 (in units of recip. lattice)

  ESTIMATED overall HOMO-LUMO gap:      0.67914187 eV between HOMO at k-point 1 and LUMO at k-point 1288
  | This appears to be an indirect band gap.
  | Smallest direct gap :      2.92170716 eV for k_point 1 at    0.437500    0.000000    0.437500 (in units of recip. lattice)
  The gap value is above 0.2 eV. Unless you are using a very sparse k-point grid,
  this system is most likely an insulator or a semiconductor.

  Total energy components:
  | Sum of eigenvalues            :        -328.59903267 Ha       -8941.63462425 eV
  | XC energy correction          :         -39.73918026 Ha       -1081.35811375 eV
  | XC potential correction       :          52.50132623 Ha        1428.63377492 eV
  | Free-atom electrostatic energy:        -262.91798028 Ha       -7154.36225349 eV
  | Hartree energy correction     :           0.01707372 Ha           0.46459948 eV
  | Entropy correction            :          -0.00000000 Ha          -0.00000000 eV
  | ---------------------------
  | Total energy                  :        -578.73779326 Ha      -15748.25661710 eV
  | Total energy, T -> 0          :        -578.73779326 Ha      -15748.25661710 eV  <-- do not rely on this value for anything but (periodic) metals
  | Electronic free energy        :        -578.73779326 Ha      -15748.25661710 eV

  Derived energy quantities:
  | Kinetic energy                :         579.75465229 Ha       15775.92675922 eV
  | Electrostatic energy          :       -1118.75326529 Ha      -30442.82526256 eV
  | Energy correction for multipole
  | error in Hartree potential    :           0.00091660 Ha           0.02494203 eV
  | Sum of eigenvalues per atom                           :       -4470.81731213 eV
  | Total energy (T->0) per atom                          :       -7874.12830855 eV  <-- do not rely on this value for anything but (periodic) metals
  | Electronic free energy per atom                       :       -7874.12830855 eV

  Self-consistency convergence accuracy:
  | Change of charge density      :  0.1188E+00
  | Change of sum of eigenvalues  : -0.4778E+00 eV
  | Change of total energy        :  0.2076E-01 eV

  End self-consistency iteration #     1       :  max(cpu_time)    wall_clock(cpu1)
  | Time for this iteration                    :        4.377 s           4.379 s
  | Charge density update                      :        1.682 s           1.683 s
  | Density mixing & preconditioning           :        0.048 s           0.049 s
  | Hartree multipole update                   :        0.001 s           0.001 s
  | Hartree multipole summation                :        0.373 s           0.373 s
  | Integration                                :        0.823 s           0.822 s
  | Solution of K.-S. eqns.                    :        1.449 s           1.450 s
  | Total energy evaluation                    :        0.001 s           0.001 s

  Partial memory accounting:
  | Current value for overall tracked memory usage on task 0  :          24.461 MB
  | Peak value for overall tracked memory usage on task 0     :          28.184 MB after allocating wave
  | Largest tracked array allocation on task 0 so far         :          23.639 MB  when allocating +KS_eigenvector_complex
  Note:  These values currently only include a subset of arrays which are explicitly tracked.
  The "true" memory usage will be greater.
------------------------------------------------------------

------------------------------------------------------------
          Begin self-consistency iteration #    2

  Date     :  20190513, Time     :  134618.017
------------------------------------------------------------
  Evaluating new KS density using the density matrix
  Evaluating density matrix
  Time summed over all CPUs for getting density from density matrix: real work        1.280 s, elapsed        1.280 s
  Integration grid: deviation in total charge (<rho> - N_e) =  -2.131628E-14
  Pulay mixing of updated and previous charge densities.

  Evaluating partitioned Hartree potential by multipole expansion.
  | Analytical far-field extrapolation by fixed multipoles:
  | Hartree multipole sum: apparent total charge =   0.103100E-01
  Summing up the Hartree potential.
  Time summed over all CPUs for potential: real work        0.448 s, elapsed        0.448 s
  | RMS charge density error from multipole expansion :   0.132473E-01
  | Average real-space part of the electrostatic potential :      0.43964792 eV

  Integrating Hamiltonian matrix: batch-based integration.
  Time summed over all CPUs for integration: real work        0.754 s, elapsed        0.754 s

  Updating Kohn-Sham eigenvalues, eigenvectors, occupation numbers, and Fermi level.
  Solving generalized eigenproblem

  Obtaining occupation numbers and chemical potential using ELSI.
  | Chemical potential (Fermi level):    -5.85644081eV
  What follows are estimated values for band gap, HOMO, LUMO, etc.
  | They are estimated on a discrete k-point grid and not necessarily exact.
  | For converged numbers, create a DOS and/or band structure plot on a denser k-grid.

  Highest occupied state (VBM) at     -5.97018499 eV (relative to internal zero)
  | Occupation number:      2.00000000
  | K-point:       1 at    0.000000    0.000000    0.000000 (in units of recip. lattice)

  Lowest unoccupied state (CBM) at    -5.78247371 eV (relative to internal zero)
  | Occupation number:      0.00000000
  | K-point:     105 at    0.000000    0.562500    0.562500 (in units of recip. lattice)

  ESTIMATED overall HOMO-LUMO gap:      0.18771129 eV between HOMO at k-point 1 and LUMO at k-point 105
  | This appears to be an indirect band gap.
  | Smallest direct gap :      2.58408122 eV for k_point 1 at    0.000000    0.562500    0.562500 (in units of recip. lattice)
  The gap value is rather small. This may be a metal or a small-gap semiconductor.
  Since we use a finite k-point grid, a DOS and/or band structure plot is required
  for an unambiguous assignment.

  Checking to see if s.c.f. parameters should be adjusted.
  Adjusted the Pulay mixing parameter (charge_mix_param) for an expected low-gap system. New value:   0.020000 .
  Adjusted the occupation broadening width for an expected low-gap system. New value:      0.05000000 eV.

  Total energy components:
  | Sum of eigenvalues            :        -327.49268799 Ha       -8911.52945385 eV
  | XC energy correction          :         -39.82467506 Ha       -1083.68454563 eV
  | XC potential correction       :          52.61418223 Ha        1431.70474273 eV
  | Free-atom electrostatic energy:        -262.91798028 Ha       -7154.36225349 eV
  | Hartree energy correction     :          -1.10901325 Ha         -30.17778600 eV
  | Entropy correction            :          -0.00000009 Ha          -0.00000238 eV
  | ---------------------------
  | Total energy                  :        -578.73017436 Ha      -15748.04929624 eV
  | Total energy, T -> 0          :        -578.73017445 Ha      -15748.04929861 eV  <-- do not rely on this value for anything but (periodic) metals
  | Electronic free energy        :        -578.73017453 Ha      -15748.04930099 eV

  Derived energy quantities:
  | Kinetic energy                :         580.29148999 Ha       15790.53485614 eV
  | Electrostatic energy          :       -1119.19698929 Ha      -30454.89960675 eV
  | Energy correction for multipole
  | error in Hartree potential    :           0.01788905 Ha           0.48678589 eV
  | Sum of eigenvalues per atom                           :       -4455.76472693 eV
  | Total energy (T->0) per atom                          :       -7874.02464931 eV  <-- do not rely on this value for anything but (periodic) metals
  | Electronic free energy per atom                       :       -7874.02465050 eV

  Self-consistency convergence accuracy:
  | Change of charge density      :  0.1128E+00
  | Change of sum of eigenvalues  :  0.3011E+02 eV
  | Change of total energy        :  0.2073E+00 eV

  End self-consistency iteration #     2       :  max(cpu_time)    wall_clock(cpu1)
  | Time for this iteration                    :        3.990 s           3.991 s
  | Charge density update                      :        1.484 s           1.484 s
  | Density mixing & preconditioning           :        0.048 s           0.048 s
  | Hartree multipole update                   :        0.001 s           0.001 s
  | Hartree multipole summation                :        0.453 s           0.453 s
  | Integration                                :        0.754 s           0.754 s
  | Solution of K.-S. eqns.                    :        1.250 s           1.250 s
  | Total energy evaluation                    :        0.001 s           0.001 s

  Partial memory accounting:
  | Current value for overall tracked memory usage on task 0  :          24.462 MB
  | Peak value for overall tracked memory usage on task 0     :          28.184 MB after allocating wave
  | Largest tracked array allocation on task 0 so far         :          23.639 MB  when allocating +KS_eigenvector_complex
  Note:  These values currently only include a subset of arrays which are explicitly tracked.
  The "true" memory usage will be greater.
------------------------------------------------------------

------------------------------------------------------------
          Begin self-consistency iteration #    3

  Date     :  20190513, Time     :  134622.008
------------------------------------------------------------
  Evaluating new KS density using the density matrix
  Evaluating density matrix
  Time summed over all CPUs for getting density from density matrix: real work        1.215 s, elapsed        1.215 s
  Integration grid: deviation in total charge (<rho> - N_e) =   6.039613E-14
  Pulay mixing of updated and previous charge densities.

  Evaluating partitioned Hartree potential by multipole expansion.
  | Analytical far-field extrapolation by fixed multipoles:
  | Hartree multipole sum: apparent total charge =   0.101519E-01
  Summing up the Hartree potential.
  Time summed over all CPUs for potential: real work        0.443 s, elapsed        0.443 s
  | RMS charge density error from multipole expansion :   0.128466E-01
  | Average real-space part of the electrostatic potential :      0.42539740 eV

  Integrating Hamiltonian matrix: batch-based integration.
  Time summed over all CPUs for integration: real work        0.717 s, elapsed        0.717 s

  Updating Kohn-Sham eigenvalues, eigenvectors, occupation numbers, and Fermi level.
  Solving generalized eigenproblem

  Obtaining occupation numbers and chemical potential using ELSI.
  | Chemical potential (Fermi level):    -5.89429155eV
  What follows are estimated values for band gap, HOMO, LUMO, etc.
  | They are estimated on a discrete k-point grid and not necessarily exact.
  | For converged numbers, create a DOS and/or band structure plot on a denser k-grid.

  Highest occupied state (VBM) at     -5.99198168 eV (relative to internal zero)
  | Occupation number:      1.99427437
  | K-point:       1 at    0.000000    0.000000    0.000000 (in units of recip. lattice)

  Lowest unoccupied state (CBM) at    -5.78892218 eV (relative to internal zero)
  | Occupation number:      0.00287970
  | K-point:     105 at    0.000000    0.562500    0.562500 (in units of recip. lattice)

  ESTIMATED overall HOMO-LUMO gap:      0.20305950 eV between HOMO at k-point 1 and LUMO at k-point 105
  | This appears to be an indirect band gap.
  | Smallest direct gap :      2.59512206 eV for k_point 1 at    0.000000    0.562500    0.562500 (in units of recip. lattice)
  The gap value is above 0.2 eV. Unless you are using a very sparse k-point grid,
  this system is most likely an insulator or a semiconductor.

  Total energy components:
  | Sum of eigenvalues            :        -327.53086332 Ha       -8912.56825734 eV
  | XC energy correction          :         -39.82123606 Ha       -1083.59096578 eV
  | XC potential correction       :          52.60964111 Ha        1431.58117272 eV
  | Free-atom electrostatic energy:        -262.91798028 Ha       -7154.36225349 eV
  | Hartree energy correction     :          -1.06962196 Ha         -29.10589443 eV
  | Entropy correction            :          -0.00000002 Ha          -0.00000047 eV
  | ---------------------------
  | Total energy                  :        -578.73006051 Ha      -15748.04619833 eV
  | Total energy, T -> 0          :        -578.73006053 Ha      -15748.04619880 eV  <-- do not rely on this value for anything but (periodic) metals
  | Electronic free energy        :        -578.73006055 Ha      -15748.04619927 eV

  Derived energy quantities:
  | Kinetic energy                :         580.26934402 Ha       15789.93223372 eV
  | Electrostatic energy          :       -1119.17816847 Ha      -30454.38746627 eV
  | Energy correction for multipole
  | error in Hartree potential    :           0.01733778 Ha           0.47178490 eV
  | Sum of eigenvalues per atom                           :       -4456.28412867 eV
  | Total energy (T->0) per atom                          :       -7874.02309940 eV  <-- do not rely on this value for anything but (periodic) metals
  | Electronic free energy per atom                       :       -7874.02309964 eV

  Self-consistency convergence accuracy:
  | Change of charge density      :  0.1951E-01
  | Change of sum of eigenvalues  : -0.1039E+01 eV
  | Change of total energy        :  0.3098E-02 eV

  End self-consistency iteration #     3       :  max(cpu_time)    wall_clock(cpu1)
  | Time for this iteration                    :        3.853 s           3.853 s
  | Charge density update                      :        1.385 s           1.385 s
  | Density mixing & preconditioning           :        0.046 s           0.046 s
  | Hartree multipole update                   :        0.001 s           0.000 s
  | Hartree multipole summation                :        0.447 s           0.448 s
  | Integration                                :        0.717 s           0.717 s
  | Solution of K.-S. eqns.                    :        1.256 s           1.256 s
  | Total energy evaluation                    :        0.001 s           0.001 s

  Partial memory accounting:
  | Current value for overall tracked memory usage on task 0  :          24.462 MB
  | Peak value for overall tracked memory usage on task 0     :          28.184 MB after allocating wave
  | Largest tracked array allocation on task 0 so far         :          23.639 MB  when allocating +KS_eigenvector_complex
  Note:  These values currently only include a subset of arrays which are explicitly tracked.
  The "true" memory usage will be greater.
------------------------------------------------------------

------------------------------------------------------------
          Begin self-consistency iteration #    4

  Date     :  20190513, Time     :  134625.861
------------------------------------------------------------
  Evaluating new KS density using the density matrix
  Evaluating density matrix
  Time summed over all CPUs for getting density from density matrix: real work        1.211 s, elapsed        1.211 s
  Integration grid: deviation in total charge (<rho> - N_e) =  -5.684342E-14
  Pulay mixing of updated and previous charge densities.

  Evaluating partitioned Hartree potential by multipole expansion.
  | Analytical far-field extrapolation by fixed multipoles:
  | Hartree multipole sum: apparent total charge =   0.150929E-01
  Summing up the Hartree potential.
  Time summed over all CPUs for potential: real work        0.445 s, elapsed        0.445 s
  | RMS charge density error from multipole expansion :   0.144999E-01
  | Average real-space part of the electrostatic potential :      0.49626480 eV

  Integrating Hamiltonian matrix: batch-based integration.
  Time summed over all CPUs for integration: real work        0.737 s, elapsed        0.737 s

  Updating Kohn-Sham eigenvalues, eigenvectors, occupation numbers, and Fermi level.
  Solving generalized eigenproblem

  Obtaining occupation numbers and chemical potential using ELSI.
  | Chemical potential (Fermi level):    -5.83008442eV
  What follows are estimated values for band gap, HOMO, LUMO, etc.
  | They are estimated on a discrete k-point grid and not necessarily exact.
  | For converged numbers, create a DOS and/or band structure plot on a denser k-grid.

  Highest occupied state (VBM) at     -5.89672302 eV (relative to internal zero)
  | Occupation number:      1.94054643
  | K-point:       1 at    0.000000    0.000000    0.000000 (in units of recip. lattice)

  Lowest unoccupied state (CBM) at    -5.75356159 eV (relative to internal zero)
  | Occupation number:      0.03043423
  | K-point:     105 at    0.000000    0.562500    0.562500 (in units of recip. lattice)

  ESTIMATED overall HOMO-LUMO gap:      0.14316144 eV between HOMO at k-point 1 and LUMO at k-point 105
  | This appears to be an indirect band gap.
  | Smallest direct gap :      2.55153482 eV for k_point 1 at    0.000000    0.562500    0.562500 (in units of recip. lattice)
  However, this system has fractional occupation numbers. Since we use a finite k-point grid,
  this material is metallic within the approximate finite broadening function (occupation_type)
  applied to determine the occupation numbers.

  Total energy components:
  | Sum of eigenvalues            :        -327.04946493 Ha       -8899.46874085 eV
  | XC energy correction          :         -39.87589027 Ha       -1085.07818239 eV
  | XC potential correction       :          52.68212207 Ha        1433.55347982 eV
  | Free-atom electrostatic energy:        -262.91798028 Ha       -7154.36225349 eV
  | Hartree energy correction     :          -1.56999307 Ha         -42.72168521 eV
  | Entropy correction            :          -0.00000014 Ha          -0.00000381 eV
  | ---------------------------
  | Total energy                  :        -578.73120650 Ha      -15748.07738212 eV
  | Total energy, T -> 0          :        -578.73120664 Ha      -15748.07738592 eV  <-- do not rely on this value for anything but (periodic) metals
  | Electronic free energy        :        -578.73120678 Ha      -15748.07738973 eV

  Derived energy quantities:
  | Kinetic energy                :         581.00808741 Ha       15810.03446417 eV
  | Electrostatic energy          :       -1119.86340364 Ha      -30473.03366389 eV
  | Energy correction for multipole
  | error in Hartree potential    :           0.02058595 Ha           0.56017219 eV
  | Sum of eigenvalues per atom                           :       -4449.73437042 eV
  | Total energy (T->0) per atom                          :       -7874.03869296 eV  <-- do not rely on this value for anything but (periodic) metals
  | Electronic free energy per atom                       :       -7874.03869487 eV

  Self-consistency convergence accuracy:
  | Change of charge density      :  0.1751E-01
  | Change of sum of eigenvalues  :  0.1310E+02 eV
  | Change of total energy        : -0.3118E-01 eV

  End self-consistency iteration #     4       :  max(cpu_time)    wall_clock(cpu1)
  | Time for this iteration                    :        3.869 s           3.869 s
  | Charge density update                      :        1.380 s           1.379 s
  | Density mixing & preconditioning           :        0.045 s           0.045 s
  | Hartree multipole update                   :        0.001 s           0.001 s
  | Hartree multipole summation                :        0.449 s           0.449 s
  | Integration                                :        0.737 s           0.737 s
  | Solution of K.-S. eqns.                    :        1.258 s           1.258 s
  | Total energy evaluation                    :        0.001 s           0.000 s

  Partial memory accounting:
  | Current value for overall tracked memory usage on task 0  :          24.463 MB
  | Peak value for overall tracked memory usage on task 0     :          28.184 MB after allocating wave
  | Largest tracked array allocation on task 0 so far         :          23.639 MB  when allocating +KS_eigenvector_complex
  Note:  These values currently only include a subset of arrays which are explicitly tracked.
  The "true" memory usage will be greater.
------------------------------------------------------------

------------------------------------------------------------
          Begin self-consistency iteration #    5

  Date     :  20190513, Time     :  134629.730
------------------------------------------------------------
  Evaluating new KS density using the density matrix
  Evaluating density matrix
  Time summed over all CPUs for getting density from density matrix: real work        1.233 s, elapsed        1.233 s
  Integration grid: deviation in total charge (<rho> - N_e) =   0.000000E+00
  Pulay mixing of updated and previous charge densities.

  Evaluating partitioned Hartree potential by multipole expansion.
  | Analytical far-field extrapolation by fixed multipoles:
  | Hartree multipole sum: apparent total charge =   0.138536E-01
  Summing up the Hartree potential.
  Time summed over all CPUs for potential: real work        0.519 s, elapsed        0.519 s
  | RMS charge density error from multipole expansion :   0.141190E-01
  | Average real-space part of the electrostatic potential :      0.47490440 eV

  Integrating Hamiltonian matrix: batch-based integration.
  Time summed over all CPUs for integration: real work        0.845 s, elapsed        0.845 s

  Updating Kohn-Sham eigenvalues, eigenvectors, occupation numbers, and Fermi level.
  Solving generalized eigenproblem

  Obtaining occupation numbers and chemical potential using ELSI.
  | Chemical potential (Fermi level):    -5.85093572eV
  What follows are estimated values for band gap, HOMO, LUMO, etc.
  | They are estimated on a discrete k-point grid and not necessarily exact.
  | For converged numbers, create a DOS and/or band structure plot on a denser k-grid.

  Highest occupied state (VBM) at     -5.92935402 eV (relative to internal zero)
  | Occupation number:      1.97344547
  | K-point:       1 at    0.000000    0.000000    0.000000 (in units of recip. lattice)

  Lowest unoccupied state (CBM) at    -5.76356390 eV (relative to internal zero)
  | Occupation number:      0.01346423
  | K-point:     105 at    0.000000    0.562500    0.562500 (in units of recip. lattice)

  ESTIMATED overall HOMO-LUMO gap:      0.16579013 eV between HOMO at k-point 1 and LUMO at k-point 105
  | This appears to be an indirect band gap.
  | Smallest direct gap :      2.56673580 eV for k_point 1 at    0.000000    0.562500    0.562500 (in units of recip. lattice)
  The gap value is rather small. This may be a metal or a small-gap semiconductor.
  Since we use a finite k-point grid, a DOS and/or band structure plot is required
  for an unambiguous assignment.

  Total energy components:
  | Sum of eigenvalues            :        -327.16054467 Ha       -8902.49137432 eV
  | XC energy correction          :         -39.86503883 Ha       -1084.78289984 eV
  | XC potential correction       :          52.66774582 Ha        1433.16228215 eV
  | Free-atom electrostatic energy:        -262.91798028 Ha       -7154.36225349 eV
  | Hartree energy correction     :          -1.45497053 Ha         -39.59176243 eV
  | Entropy correction            :          -0.00000007 Ha          -0.00000188 eV
  | ---------------------------
  | Total energy                  :        -578.73078850 Ha      -15748.06600792 eV
  | Total energy, T -> 0          :        -578.73078857 Ha      -15748.06600980 eV  <-- do not rely on this value for anything but (periodic) metals
  | Electronic free energy        :        -578.73078864 Ha      -15748.06601168 eV

  Derived energy quantities:
  | Kinetic energy                :         580.87693891 Ha       15806.46573191 eV
  | Electrostatic energy          :       -1119.74268858 Ha      -30469.74884000 eV
  | Energy correction for multipole
  | error in Hartree potential    :           0.01993791 Ha           0.54253824 eV
  | Sum of eigenvalues per atom                           :       -4451.24568716 eV
  | Total energy (T->0) per atom                          :       -7874.03300490 eV  <-- do not rely on this value for anything but (periodic) metals
  | Electronic free energy per atom                       :       -7874.03300584 eV

  Self-consistency convergence accuracy:
  | Change of charge density      :  0.5167E-01
  | Change of sum of eigenvalues  : -0.3023E+01 eV
  | Change of total energy        :  0.1137E-01 eV

  End self-consistency iteration #     5       :  max(cpu_time)    wall_clock(cpu1)
  | Time for this iteration                    :        4.126 s           4.133 s
  | Charge density update                      :        1.402 s           1.402 s
  | Density mixing & preconditioning           :        0.051 s           0.051 s
  | Hartree multipole update                   :        0.001 s           0.001 s
  | Hartree multipole summation                :        0.523 s           0.523 s
  | Integration                                :        0.842 s           0.845 s
  | Solution of K.-S. eqns.                    :        1.308 s           1.310 s
  | Total energy evaluation                    :        0.001 s           0.000 s

  Partial memory accounting:
  | Current value for overall tracked memory usage on task 0  :          24.463 MB
  | Peak value for overall tracked memory usage on task 0     :          28.184 MB after allocating wave
  | Largest tracked array allocation on task 0 so far         :          23.639 MB  when allocating +KS_eigenvector_complex
  Note:  These values currently only include a subset of arrays which are explicitly tracked.
  The "true" memory usage will be greater.
------------------------------------------------------------

------------------------------------------------------------
          Begin self-consistency iteration #    6

  Date     :  20190513, Time     :  134633.863
------------------------------------------------------------
  Evaluating new KS density using the density matrix
  Evaluating density matrix
  Time summed over all CPUs for getting density from density matrix: real work        1.542 s, elapsed        1.542 s
  Integration grid: deviation in total charge (<rho> - N_e) =   2.842171E-14
  Pulay mixing of updated and previous charge densities.

  Evaluating partitioned Hartree potential by multipole expansion.
  | Analytical far-field extrapolation by fixed multipoles:
  | Hartree multipole sum: apparent total charge =   0.964863E-02
  Summing up the Hartree potential.
  Time summed over all CPUs for potential: real work        0.597 s, elapsed        0.597 s
  | RMS charge density error from multipole expansion :   0.138572E-01
  | Average real-space part of the electrostatic potential :      0.43376545 eV

  Integrating Hamiltonian matrix: batch-based integration.
  Time summed over all CPUs for integration: real work        0.784 s, elapsed        0.784 s

  Updating Kohn-Sham eigenvalues, eigenvectors, occupation numbers, and Fermi level.
  Solving generalized eigenproblem

  Obtaining occupation numbers and chemical potential using ELSI.
  | Chemical potential (Fermi level):    -5.89156555eV
  What follows are estimated values for band gap, HOMO, LUMO, etc.
  | They are estimated on a discrete k-point grid and not necessarily exact.
  | For converged numbers, create a DOS and/or band structure plot on a denser k-grid.

  Highest occupied state (VBM) at     -5.99345941 eV (relative to internal zero)
  | Occupation number:      1.99604832
  | K-point:       1 at    0.000000    0.000000    0.000000 (in units of recip. lattice)

  Lowest unoccupied state (CBM) at    -5.78223182 eV (relative to internal zero)
  | Occupation number:      0.00198529
  | K-point:     105 at    0.000000    0.562500    0.562500 (in units of recip. lattice)

  ESTIMATED overall HOMO-LUMO gap:      0.21122759 eV between HOMO at k-point 1 and LUMO at k-point 105
  | This appears to be an indirect band gap.
  | Smallest direct gap :      2.59420753 eV for k_point 1 at    0.000000    0.562500    0.562500 (in units of recip. lattice)
  The gap value is above 0.2 eV. Unless you are using a very sparse k-point grid,
  this system is most likely an insulator or a semiconductor.

  Total energy components:
  | Sum of eigenvalues            :        -327.46497847 Ha       -8910.77543930 eV
  | XC energy correction          :         -39.83549083 Ha       -1083.97885775 eV
  | XC potential correction       :          52.62856335 Ha        1432.09607289 eV
  | Free-atom electrostatic energy:        -262.91798028 Ha       -7154.36225349 eV
  | Hartree energy correction     :          -1.14010101 Ha         -31.02372692 eV
  | Entropy correction            :          -0.00000001 Ha          -0.00000034 eV
  | ---------------------------
  | Total energy                  :        -578.72998724 Ha      -15748.04420457 eV
  | Total energy, T -> 0          :        -578.72998726 Ha      -15748.04420491 eV  <-- do not rely on this value for anything but (periodic) metals
  | Electronic free energy        :        -578.72998727 Ha      -15748.04420524 eV

  Derived energy quantities:
  | Kinetic energy                :         580.46994913 Ha       15795.39097651 eV
  | Electrostatic energy          :       -1119.36444554 Ha      -30459.45632334 eV
  | Energy correction for multipole
  | error in Hartree potential    :           0.01915204 Ha           0.52115349 eV
  | Sum of eigenvalues per atom                           :       -4455.38771965 eV
  | Total energy (T->0) per atom                          :       -7874.02210245 eV  <-- do not rely on this value for anything but (periodic) metals
  | Electronic free energy per atom                       :       -7874.02210262 eV

  Self-consistency convergence accuracy:
  | Change of charge density      :  0.4431E-01
  | Change of sum of eigenvalues  : -0.8284E+01 eV
  | Change of total energy        :  0.2180E-01 eV

  End self-consistency iteration #     6       :  max(cpu_time)    wall_clock(cpu1)
  | Time for this iteration                    :        4.498 s           4.498 s
  | Charge density update                      :        1.735 s           1.735 s
  | Density mixing & preconditioning           :        0.064 s           0.064 s
  | Hartree multipole update                   :        0.001 s           0.001 s
  | Hartree multipole summation                :        0.601 s           0.601 s
  | Integration                                :        0.783 s           0.784 s
  | Solution of K.-S. eqns.                    :        1.312 s           1.312 s
  | Total energy evaluation                    :        0.001 s           0.001 s

  Partial memory accounting:
  | Current value for overall tracked memory usage on task 0  :          24.463 MB
  | Peak value for overall tracked memory usage on task 0     :          28.184 MB after allocating wave
  | Largest tracked array allocation on task 0 so far         :          23.639 MB  when allocating +KS_eigenvector_complex
  Note:  These values currently only include a subset of arrays which are explicitly tracked.
  The "true" memory usage will be greater.
------------------------------------------------------------

------------------------------------------------------------
          Begin self-consistency iteration #    7

  Date     :  20190513, Time     :  134638.361
------------------------------------------------------------
  Evaluating new KS density using the density matrix
  Evaluating density matrix
  Time summed over all CPUs for getting density from density matrix: real work        1.405 s, elapsed        1.405 s
  Integration grid: deviation in total charge (<rho> - N_e) =   9.947598E-14
  Pulay mixing of updated and previous charge densities.

  Evaluating partitioned Hartree potential by multipole expansion.
  | Analytical far-field extrapolation by fixed multipoles:
  | Hartree multipole sum: apparent total charge =   0.883251E-02
  Summing up the Hartree potential.
  Time summed over all CPUs for potential: real work        0.568 s, elapsed        0.568 s
  | RMS charge density error from multipole expansion :   0.136782E-01
  | Average real-space part of the electrostatic potential :      0.42038746 eV

  Integrating Hamiltonian matrix: batch-based integration.
  Time summed over all CPUs for integration: real work        0.930 s, elapsed        0.930 s

  Updating Kohn-Sham eigenvalues, eigenvectors, occupation numbers, and Fermi level.
  Solving generalized eigenproblem

  Obtaining occupation numbers and chemical potential using ELSI.
  | Chemical potential (Fermi level):    -5.90346816eV
  What follows are estimated values for band gap, HOMO, LUMO, etc.
  | They are estimated on a discrete k-point grid and not necessarily exact.
  | For converged numbers, create a DOS and/or band structure plot on a denser k-grid.

  Highest occupied state (VBM) at     -6.01184869 eV (relative to internal zero)
  | Occupation number:      1.99782668
  | K-point:       1 at    0.000000    0.000000    0.000000 (in units of recip. lattice)

  Lowest unoccupied state (CBM) at    -5.78799510 eV (relative to internal zero)
  | Occupation number:      0.00109051
  | K-point:     105 at    0.000000    0.562500    0.562500 (in units of recip. lattice)

  ESTIMATED overall HOMO-LUMO gap:      0.22385359 eV between HOMO at k-point 1 and LUMO at k-point 105
  | This appears to be an indirect band gap.
  | Smallest direct gap :      2.60236048 eV for k_point 1 at    0.000000    0.562500    0.562500 (in units of recip. lattice)
  The gap value is above 0.2 eV. Unless you are using a very sparse k-point grid,
  this system is most likely an insulator or a semiconductor.

  Total energy components:
  | Sum of eigenvalues            :        -327.54992791 Ha       -8913.08703138 eV
  | XC energy correction          :         -39.82683784 Ha       -1083.74339798 eV
  | XC potential correction       :          52.61709271 Ha        1431.78394112 eV
  | Free-atom electrostatic energy:        -262.91798028 Ha       -7154.36225349 eV
  | Hartree energy correction     :          -1.05219086 Ha         -28.63157009 eV
  | Entropy correction            :          -0.00000001 Ha          -0.00000019 eV
  | ---------------------------
  | Total energy                  :        -578.72984419 Ha      -15748.04031183 eV
  | Total energy, T -> 0          :        -578.72984420 Ha      -15748.04031202 eV  <-- do not rely on this value for anything but (periodic) metals
  | Electronic free energy        :        -578.72984420 Ha      -15748.04031222 eV

  Derived energy quantities:
  | Kinetic energy                :         580.35914851 Ha       15792.37593826 eV
  | Electrostatic energy          :       -1119.26215486 Ha      -30456.67285211 eV
  | Energy correction for multipole
  | error in Hartree potential    :           0.01877812 Ha           0.51097872 eV
  | Sum of eigenvalues per atom                           :       -4456.54351569 eV
  | Total energy (T->0) per atom                          :       -7874.02015601 eV  <-- do not rely on this value for anything but (periodic) metals
  | Electronic free energy per atom                       :       -7874.02015611 eV

  Self-consistency convergence accuracy:
  | Change of charge density      :  0.2385E-01
  | Change of sum of eigenvalues  : -0.2312E+01 eV
  | Change of total energy        :  0.3893E-02 eV

  End self-consistency iteration #     7       :  max(cpu_time)    wall_clock(cpu1)
  | Time for this iteration                    :        4.436 s           4.436 s
  | Charge density update                      :        1.582 s           1.582 s
  | Density mixing & preconditioning           :        0.050 s           0.050 s
  | Hartree multipole update                   :        0.001 s           0.001 s
  | Hartree multipole summation                :        0.571 s           0.571 s
  | Integration                                :        0.930 s           0.930 s
  | Solution of K.-S. eqns.                    :        1.302 s           1.301 s
  | Total energy evaluation                    :        0.000 s           0.001 s

  Partial memory accounting:
  | Current value for overall tracked memory usage on task 0  :          24.464 MB
  | Peak value for overall tracked memory usage on task 0     :          28.184 MB after allocating wave
  | Largest tracked array allocation on task 0 so far         :          23.639 MB  when allocating +KS_eigenvector_complex
  Note:  These values currently only include a subset of arrays which are explicitly tracked.
  The "true" memory usage will be greater.
------------------------------------------------------------

------------------------------------------------------------
          Begin self-consistency iteration #    8

  Date     :  20190513, Time     :  134642.797
------------------------------------------------------------
  Evaluating new KS density using the density matrix
  Evaluating density matrix
  Time summed over all CPUs for getting density from density matrix: real work        1.236 s, elapsed        1.236 s
  Integration grid: deviation in total charge (<rho> - N_e) =   9.592327E-14
  Pulay mixing of updated and previous charge densities.

  Evaluating partitioned Hartree potential by multipole expansion.
  | Analytical far-field extrapolation by fixed multipoles:
  | Hartree multipole sum: apparent total charge =   0.614133E-02
  Summing up the Hartree potential.
  Time summed over all CPUs for potential: real work        0.515 s, elapsed        0.515 s
  | RMS charge density error from multipole expansion :   0.135872E-01
  | Average real-space part of the electrostatic potential :      0.38986862 eV

  Integrating Hamiltonian matrix: batch-based integration.
  Time summed over all CPUs for integration: real work        0.826 s, elapsed        0.826 s

  Updating Kohn-Sham eigenvalues, eigenvectors, occupation numbers, and Fermi level.
  Solving generalized eigenproblem

  Obtaining occupation numbers and chemical potential using ELSI.
  | Chemical potential (Fermi level):    -5.93208467eV
  What follows are estimated values for band gap, HOMO, LUMO, etc.
  | They are estimated on a discrete k-point grid and not necessarily exact.
  | For converged numbers, create a DOS and/or band structure plot on a denser k-grid.

  Highest occupied state (VBM) at     -6.05733544 eV (relative to internal zero)
  | Occupation number:      1.99960384
  | K-point:       1 at    0.000000    0.000000    0.000000 (in units of recip. lattice)

  Lowest unoccupied state (CBM) at    -5.80052575 eV (relative to internal zero)
  | Occupation number:      0.00019840
  | K-point:     105 at    0.000000    0.562500    0.562500 (in units of recip. lattice)

  ESTIMATED overall HOMO-LUMO gap:      0.25680969 eV between HOMO at k-point 1 and LUMO at k-point 105
  | This appears to be an indirect band gap.
  | Smallest direct gap :      2.62157868 eV for k_point 1 at    0.000000    0.562500    0.562500 (in units of recip. lattice)
  The gap value is above 0.2 eV. Unless you are using a very sparse k-point grid,
  this system is most likely an insulator or a semiconductor.

  Total energy components:
  | Sum of eigenvalues            :        -327.76884779 Ha       -8919.04414427 eV
  | XC energy correction          :         -39.80623062 Ha       -1083.18264685 eV
  | XC potential correction       :          52.58977079 Ha        1431.04047363 eV
  | Free-atom electrostatic energy:        -262.91798028 Ha       -7154.36225349 eV
  | Hartree energy correction     :          -0.82629694 Ha         -22.48468387 eV
  | Entropy correction            :          -0.00000000 Ha          -0.00000004 eV
  | ---------------------------
  | Total energy                  :        -578.72958485 Ha      -15748.03325485 eV
  | Total energy, T -> 0          :        -578.72958485 Ha      -15748.03325489 eV  <-- do not rely on this value for anything but (periodic) metals
  | Electronic free energy        :        -578.72958485 Ha      -15748.03325493 eV

  Derived energy quantities:
  | Kinetic energy                :         580.08351807 Ha       15784.87565243 eV
  | Electrostatic energy          :       -1119.00687230 Ha      -30449.72626043 eV
  | Energy correction for multipole
  | error in Hartree potential    :           0.01836598 Ha           0.49976365 eV
  | Sum of eigenvalues per atom                           :       -4459.52207213 eV
  | Total energy (T->0) per atom                          :       -7874.01662744 eV  <-- do not rely on this value for anything but (periodic) metals
  | Electronic free energy per atom                       :       -7874.01662746 eV

  Self-consistency convergence accuracy:
  | Change of charge density      :  0.1809E-01
  | Change of sum of eigenvalues  : -0.5957E+01 eV
  | Change of total energy        :  0.7057E-02 eV

  End self-consistency iteration #     8       :  max(cpu_time)    wall_clock(cpu1)
  | Time for this iteration                    :        4.093 s           4.093 s
  | Charge density update                      :        1.412 s           1.412 s
  | Density mixing & preconditioning           :        0.048 s           0.048 s
  | Hartree multipole update                   :        0.001 s           0.001 s
  | Hartree multipole summation                :        0.518 s           0.519 s
  | Integration                                :        0.826 s           0.826 s
  | Solution of K.-S. eqns.                    :        1.286 s           1.286 s
  | Total energy evaluation                    :        0.001 s           0.001 s

  Partial memory accounting:
  | Current value for overall tracked memory usage on task 0  :          24.464 MB
  | Peak value for overall tracked memory usage on task 0     :          28.184 MB after allocating wave
  | Largest tracked array allocation on task 0 so far         :          23.639 MB  when allocating +KS_eigenvector_complex
  Note:  These values currently only include a subset of arrays which are explicitly tracked.
  The "true" memory usage will be greater.
------------------------------------------------------------

------------------------------------------------------------
          Begin self-consistency iteration #    9

  Date     :  20190513, Time     :  134646.890
------------------------------------------------------------
  Evaluating new KS density using the density matrix
  Evaluating density matrix
  Time summed over all CPUs for getting density from density matrix: real work        1.334 s, elapsed        1.334 s
  Integration grid: deviation in total charge (<rho> - N_e) =  -6.750156E-14
  Pulay mixing of updated and previous charge densities.

  Evaluating partitioned Hartree potential by multipole expansion.
  | Analytical far-field extrapolation by fixed multipoles:
  | Hartree multipole sum: apparent total charge =   0.627710E-02
  Summing up the Hartree potential.
  Time summed over all CPUs for potential: real work        0.445 s, elapsed        0.445 s
  | RMS charge density error from multipole expansion :   0.135217E-01
  | Average real-space part of the electrostatic potential :      0.38068569 eV

  Integrating Hamiltonian matrix: batch-based integration.
  Time summed over all CPUs for integration: real work        0.750 s, elapsed        0.750 s

  Updating Kohn-Sham eigenvalues, eigenvectors, occupation numbers, and Fermi level.
  Solving generalized eigenproblem

  Obtaining occupation numbers and chemical potential using ELSI.
  | Chemical potential (Fermi level):    -5.93831292eV
  What follows are estimated values for band gap, HOMO, LUMO, etc.
  | They are estimated on a discrete k-point grid and not necessarily exact.
  | For converged numbers, create a DOS and/or band structure plot on a denser k-grid.

  Highest occupied state (VBM) at     -6.06725273 eV (relative to internal zero)
  | Occupation number:      1.99973465
  | K-point:       1 at    0.000000    0.000000    0.000000 (in units of recip. lattice)

  Lowest unoccupied state (CBM) at    -5.80321639 eV (relative to internal zero)
  | Occupation number:      0.00013285
  | K-point:     105 at    0.000000    0.562500    0.562500 (in units of recip. lattice)

  ESTIMATED overall HOMO-LUMO gap:      0.26403633 eV between HOMO at k-point 1 and LUMO at k-point 105
  | This appears to be an indirect band gap.
  | Smallest direct gap :      2.62603175 eV for k_point 1 at    0.000000    0.562500    0.562500 (in units of recip. lattice)
  The gap value is above 0.2 eV. Unless you are using a very sparse k-point grid,
  this system is most likely an insulator or a semiconductor.

  Total energy components:
  | Sum of eigenvalues            :        -327.81606431 Ha       -8920.32897135 eV
  | XC energy correction          :         -39.80132021 Ha       -1083.04902794 eV
  | XC potential correction       :          52.58326590 Ha        1430.86346672 eV
  | Free-atom electrostatic energy:        -262.91798028 Ha       -7154.36225349 eV
  | Hartree energy correction     :          -0.77746281 Ha         -21.15583954 eV
  | Entropy correction            :          -0.00000000 Ha          -0.00000003 eV
  | ---------------------------
  | Total energy                  :        -578.72956172 Ha      -15748.03262559 eV
[...]
  | Total energy evaluation                    :        0.001 s           0.001 s

  Partial memory accounting:
  | Current value for overall tracked memory usage on task 0  :          24.464 MB
  | Peak value for overall tracked memory usage on task 0     :          28.184 MB after allocating wave
  | Largest tracked array allocation on task 0 so far         :          23.639 MB  when allocating +KS_eigenvector_complex
  Note:  These values currently only include a subset of arrays which are explicitly tracked.
  The "true" memory usage will be greater.
------------------------------------------------------------

------------------------------------------------------------
          Begin self-consistency iteration #   12

  Date     :  20190513, Time     :  134659.257
------------------------------------------------------------
  Evaluating new KS density using the density matrix
  Evaluating density matrix
  Time summed over all CPUs for getting density from density matrix: real work        1.262 s, elapsed        1.262 s
  Integration grid: deviation in total charge (<rho> - N_e) =   2.842171E-14
  Pulay mixing of updated and previous charge densities.

  Evaluating partitioned Hartree potential by multipole expansion.
  | Analytical far-field extrapolation by fixed multipoles:
  | Hartree multipole sum: apparent total charge =   0.629460E-02
  Summing up the Hartree potential.
  Time summed over all CPUs for potential: real work        0.472 s, elapsed        0.472 s
  | RMS charge density error from multipole expansion :   0.134942E-01
  | Average real-space part of the electrostatic potential :      0.37692889 eV

  Integrating Hamiltonian matrix: batch-based integration.
  Time summed over all CPUs for integration: real work        0.769 s, elapsed        0.769 s

  Updating Kohn-Sham eigenvalues, eigenvectors, occupation numbers, and Fermi level.
  Solving generalized eigenproblem

  Obtaining occupation numbers and chemical potential using ELSI.
  | Chemical potential (Fermi level):    -5.94111936eV
  What follows are estimated values for band gap, HOMO, LUMO, etc.
  | They are estimated on a discrete k-point grid and not necessarily exact.
  | For converged numbers, create a DOS and/or band structure plot on a denser k-grid.

  Highest occupied state (VBM) at     -6.07176373 eV (relative to internal zero)
  | Occupation number:      1.99978027
  | K-point:       1 at    0.000000    0.000000    0.000000 (in units of recip. lattice)

  Lowest unoccupied state (CBM) at    -5.80438607 eV (relative to internal zero)
  | Occupation number:      0.00011000
  | K-point:     105 at    0.000000    0.562500    0.562500 (in units of recip. lattice)

  ESTIMATED overall HOMO-LUMO gap:      0.26737766 eV between HOMO at k-point 1 and LUMO at k-point 105
  | This appears to be an indirect band gap.
  | Smallest direct gap :      2.62809872 eV for k_point 1 at    0.000000    0.562500    0.562500 (in units of recip. lattice)
  The gap value is above 0.2 eV. Unless you are using a very sparse k-point grid,
  this system is most likely an insulator or a semiconductor.

  Total energy components:
  | Sum of eigenvalues            :        -327.83426021 Ha       -8920.82410688 eV
  | XC energy correction          :         -39.79950559 Ha       -1082.99964955 eV
  | XC potential correction       :          52.58086253 Ha        1430.79806758 eV
  | Free-atom electrostatic energy:        -262.91798028 Ha       -7154.36225349 eV
  | Hartree energy correction     :          -0.75867107 Ha         -20.64449021 eV
  | Entropy correction            :          -0.00000000 Ha          -0.00000002 eV
  | ---------------------------
  | Total energy                  :        -578.72955463 Ha      -15748.03243255 eV
  | Total energy, T -> 0          :        -578.72955463 Ha      -15748.03243257 eV  <-- do not rely on this value for anything but (periodic) metals
  | Electronic free energy        :        -578.72955463 Ha      -15748.03243259 eV

  Derived energy quantities:
  | Kinetic energy                :         579.99998099 Ha       15782.60249281 eV
  | Electrostatic energy          :       -1118.93003003 Ha      -30447.63527581 eV
  | Energy correction for multipole
  | error in Hartree potential    :           0.01815260 Ha           0.49395726 eV
  | Sum of eigenvalues per atom                           :       -4460.41205344 eV
  | Total energy (T->0) per atom                          :       -7874.01621628 eV  <-- do not rely on this value for anything but (periodic) metals
  | Electronic free energy per atom                       :       -7874.01621630 eV

  Self-consistency convergence accuracy:
  | Change of charge density      :  0.2448E-04
  | Change of sum of eigenvalues  : -0.1082E-01 eV
  | Change of total energy        :  0.5288E-05 eV

  End self-consistency iteration #    12       :  max(cpu_time)    wall_clock(cpu1)
  | Time for this iteration                    :        4.055 s           4.055 s
  | Charge density update                      :        1.460 s           1.460 s
  | Density mixing & preconditioning           :        0.057 s           0.057 s
  | Hartree multipole update                   :        0.001 s           0.001 s
  | Hartree multipole summation                :        0.476 s           0.476 s
  | Integration                                :        0.769 s           0.769 s
  | Solution of K.-S. eqns.                    :        1.291 s           1.291 s
  | Total energy evaluation                    :        0.001 s           0.001 s

  Partial memory accounting:
  | Current value for overall tracked memory usage on task 0  :          24.464 MB
  | Peak value for overall tracked memory usage on task 0     :          28.184 MB after allocating wave
  | Largest tracked array allocation on task 0 so far         :          23.639 MB  when allocating +KS_eigenvector_complex
  Note:  These values currently only include a subset of arrays which are explicitly tracked.
  The "true" memory usage will be greater.
------------------------------------------------------------

------------------------------------------------------------
          Begin self-consistency iteration #   13

  Date     :  20190513, Time     :  134703.312
------------------------------------------------------------
  Evaluating new KS density using the density matrix
  Evaluating density matrix
  Time summed over all CPUs for getting density from density matrix: real work        1.291 s, elapsed        1.291 s
  Integration grid: deviation in total charge (<rho> - N_e) =   2.842171E-14
  Pulay mixing of updated and previous charge densities.

  Evaluating partitioned Hartree potential by multipole expansion.
  | Analytical far-field extrapolation by fixed multipoles:
  | Hartree multipole sum: apparent total charge =   0.629588E-02
  Summing up the Hartree potential.
  Time summed over all CPUs for potential: real work        0.481 s, elapsed        0.481 s
  | RMS charge density error from multipole expansion :   0.134943E-01
  | Average real-space part of the electrostatic potential :      0.37692453 eV

  Integrating Hamiltonian matrix: batch-based integration.
  Time summed over all CPUs for integration: real work        0.868 s, elapsed        0.868 s

  Updating Kohn-Sham eigenvalues, eigenvectors, occupation numbers, and Fermi level.
  Solving generalized eigenproblem

  Obtaining occupation numbers and chemical potential using ELSI.
  | Chemical potential (Fermi level):    -5.94111935eV
  What follows are estimated values for band gap, HOMO, LUMO, etc.
  | They are estimated on a discrete k-point grid and not necessarily exact.
  | For converged numbers, create a DOS and/or band structure plot on a denser k-grid.

  Highest occupied state (VBM) at     -6.07176428 eV (relative to internal zero)
  | Occupation number:      1.99978028
  | K-point:       1 at    0.000000    0.000000    0.000000 (in units of recip. lattice)

  Lowest unoccupied state (CBM) at    -5.80438550 eV (relative to internal zero)
  | Occupation number:      0.00010999
  | K-point:     105 at    0.000000    0.562500    0.562500 (in units of recip. lattice)

  ESTIMATED overall HOMO-LUMO gap:      0.26737878 eV between HOMO at k-point 1 and LUMO at k-point 105
  | This appears to be an indirect band gap.
  | Smallest direct gap :      2.62809915 eV for k_point 1 at    0.000000    0.562500    0.562500 (in units of recip. lattice)
  The gap value is above 0.2 eV. Unless you are using a very sparse k-point grid,
  this system is most likely an insulator or a semiconductor.

  Total energy components:
  | Sum of eigenvalues            :        -327.83426685 Ha       -8920.82428761 eV
  | XC energy correction          :         -39.79950435 Ha       -1082.99961587 eV
  | XC potential correction       :          52.58086090 Ha        1430.79802317 eV
  | Free-atom electrostatic energy:        -262.91798028 Ha       -7154.36225349 eV
  | Hartree energy correction     :          -0.75866403 Ha         -20.64429867 eV
  | Entropy correction            :          -0.00000000 Ha          -0.00000002 eV
  | ---------------------------
  | Total energy                  :        -578.72955463 Ha      -15748.03243247 eV
  | Total energy, T -> 0          :        -578.72955463 Ha      -15748.03243250 eV  <-- do not rely on this value for anything but (periodic) metals
  | Electronic free energy        :        -578.72955463 Ha      -15748.03243252 eV

  Derived energy quantities:
  | Kinetic energy                :         579.99996971 Ha       15782.60218583 eV
  | Electrostatic energy          :       -1118.93001999 Ha      -30447.63500243 eV
  | Energy correction for multipole
  | error in Hartree potential    :           0.01815265 Ha           0.49395881 eV
  | Sum of eigenvalues per atom                           :       -4460.41214381 eV
  | Total energy (T->0) per atom                          :       -7874.01621625 eV  <-- do not rely on this value for anything but (periodic) metals
  | Electronic free energy per atom                       :       -7874.01621626 eV

  Self-consistency convergence accuracy:
  | Change of charge density      :  0.3782E-06
  | Change of sum of eigenvalues  : -0.1807E-03 eV
  | Change of total energy        :  0.7330E-07 eV

  Preliminary charge convergence reached. Turning off preconditioner.

  Writing Kohn-Sham eigenvalues.
  K-point:       1 at    0.000000    0.000000    0.000000 (in units of recip. lattice)

  State    Occupation    Eigenvalue [Ha]    Eigenvalue [eV]
      1       2.00000         -65.483243        -1781.88971
      2       2.00000         -65.483243        -1781.88971
      3       2.00000          -5.097316         -138.70503
      4       2.00000          -5.096757         -138.68981
      5       2.00000          -3.510399          -95.52282
      6       2.00000          -3.510399          -95.52282
      7       2.00000          -3.510399          -95.52282
      8       2.00000          -3.509337          -95.49391
      9       2.00000          -3.509337          -95.49391
     10       2.00000          -3.509337          -95.49391
     11       2.00000          -0.697431          -18.97806
     12       1.99978          -0.223133           -6.07176
     13       1.99978          -0.223133           -6.07176
     14       1.99978          -0.223133           -6.07176
     15       0.00000          -0.126552           -3.44367
     16       0.00000          -0.126552           -3.44367
     17       0.00000          -0.126552           -3.44367
     18       0.00000          -0.039928           -1.08649
     19       0.00000           0.067198            1.82856
     20       0.00000           0.067198            1.82856

  What follows are estimated values for band gap, HOMO, LUMO, etc.
  | They are estimated on a discrete k-point grid and not necessarily exact.
  | For converged numbers, create a DOS and/or band structure plot on a denser k-grid.

  Highest occupied state (VBM) at     -6.07176428 eV (relative to internal zero)
  | Occupation number:      1.99978028
  | K-point:       1 at    0.000000    0.000000    0.000000 (in units of recip. lattice)

  Lowest unoccupied state (CBM) at    -5.80438550 eV (relative to internal zero)
  | Occupation number:      0.00010999
  | K-point:     105 at    0.000000    0.562500    0.562500 (in units of recip. lattice)

  ESTIMATED overall HOMO-LUMO gap:      0.26737878 eV between HOMO at k-point 1 and LUMO at k-point 105
  | This appears to be an indirect band gap.
  | Smallest direct gap :      2.62809915 eV for k_point 1 at    0.000000    0.562500    0.562500 (in units of recip. lattice)
  The gap value is above 0.2 eV. Unless you are using a very sparse k-point grid,
  this system is most likely an insulator or a semiconductor.

  Self-consistency cycle converged.

  End self-consistency iteration #    13       :  max(cpu_time)    wall_clock(cpu1)
  | Time for this iteration                    :        4.283 s           4.283 s
  | Charge density update                      :        1.460 s           1.460 s
  | Density mixing                             :        0.046 s           0.045 s
  | Hartree multipole update                   :        0.001 s           0.001 s
  | Hartree multipole summation                :        0.485 s           0.485 s
  | Integration                                :        0.868 s           0.869 s
  | Solution of K.-S. eqns.                    :        1.423 s           1.422 s
  | Total energy evaluation                    :        0.000 s           0.001 s

  Partial memory accounting:
  | Current value for overall tracked memory usage on task 0  :          24.464 MB
  | Peak value for overall tracked memory usage on task 0     :          28.184 MB after allocating wave
  | Largest tracked array allocation on task 0 so far         :          23.639 MB  when allocating +KS_eigenvector_complex
  Note:  These values currently only include a subset of arrays which are explicitly tracked.
  The "true" memory usage will be greater.
------------------------------------------------------------

  Energy and forces in a compact form:
  | Total energy uncorrected      :         -0.157480324324737E+05 eV
  | Total energy corrected        :         -0.157480324324966E+05 eV  <-- do not rely on this value for anything but (periodic) metals
  | Electronic free energy        :         -0.157480324325195E+05 eV

  ------------------------------------ 
  Start decomposition of the XC Energy 
  ------------------------------------ 
  X and C from original XC functional choice 
  Hartree-Fock Energy :          0.000000000 Ha              0.000000000 eV
  X Energy            :        -37.647944386 Ha          -1024.452690310 eV
  C Energy            :         -2.151559968 Ha            -58.546925558 eV
  Total XC Energy     :        -39.799504353 Ha          -1082.999615869 eV
  ------------------------------------ 
  LDA X and C from self-consistent density 
  X Energy LDA        :        -37.647944386 Ha          -1024.452690310 eV
  C Energy LDA        :         -2.151559968 Ha            -58.546925558 eV
  ------------------------------------ 
  End decomposition of the XC Energy 
  ------------------------------------ 

------------------------------------------------------------

------------------------------------------------------------------------------
  Final output of selected total energy values:

  The following output summarizes some interesting total energy values
  at the end of a run (AFTER all relaxation, molecular dynamics, etc.).

  | Total energy of the DFT / Hartree-Fock s.c.f. calculation      :         -15748.032432474 eV
  | Final zero-broadening corrected energy (caution - metals only) :         -15748.032432497 eV
  | For reference only, the value of 1 Hartree used in FHI-aims is :             27.211384500 eV

  Before relying on these values, please be sure to understand exactly which
  total energy value is referred to by a given number. Different objects may
  all carry the same name 'total energy'. Definitions:

  Total energy of the DFT / Hartree-Fock s.c.f. calculation:
  | Note that this energy does not include ANY quantities calculated after the
  | s.c.f. cycle, in particular not ANY RPA, MP2, etc. many-body perturbation terms.

  Final zero-broadening corrected energy:
  | For metallic systems only, a broadening of the occupation numbers at the Fermi
  | level can be extrapolated back to zero broadening by an electron-gas inspired
  | formula. For all systems that are not real metals, this value can be
  | meaningless and should be avoided.

------------------------------------------------------------------------------
  Methods described in the following list of references were used in this FHI-aims run.
  If you publish the results, please make sure to cite these reference if they apply.
  FHI-aims is an academic code, and for our developers (often, Ph.D. students
  and postdocs), scientific credit in the community is essential.
  Thank you for helping us!

  For any use of FHI-aims, please cite:

    Volker Blum, Ralf Gehrke, Felix Hanke, Paula Havu, Ville Havu,
    Xinguo Ren, Karsten Reuter, and Matthias Scheffler
    'Ab initio molecular simulations with numeric atom-centered orbitals'
    Computer Physics Communications 180, 2175-2196 (2009)
    http://dx.doi.org/10.1016/j.cpc.2009.06.022


  For the real-space grid partitioning and parallelization used in this calculation, please cite:

    Ville Havu, Volker Blum, Paula Havu, and Matthias Scheffler,
    'Efficient O(N) integration for all-electron electronic structure calculation'
    'using numerically tabulated basis functions'
    Journal of Computational Physics 228, 8367-8379 (2009).
    http://dx.doi.org/10.1016/j.jcp.2009.08.008

  Of course, there are many other important community references, e.g., those cited in the
  above references. Our list is limited to references that describe implementations in the
  FHI-aims code. The reason is purely practical (length of this list) - please credit others as well.

------------------------------------------------------------
          Leaving FHI-aims.
          Date     :  20190513, Time     :  134707.605

          Computational steps:
          | Number of self-consistency cycles          :           13
          | Number of SCF (re)initializations          :            1

          Detailed time accounting                     :  max(cpu_time)    wall_clock(cpu1)
          | Total time                                 :       58.161 s          58.170 s
          | Preparation time                           :        0.092 s           0.092 s
          | Boundary condition initalization           :        0.047 s           0.047 s
          | Grid partitioning                          :        0.032 s           0.032 s
          | Preloading free-atom quantities on grid    :        0.001 s           0.001 s
          | Free-atom superposition energy             :        0.035 s           0.036 s
          | Total time for integrations                :       11.727 s          11.731 s
          | Total time for solution of K.-S. equations :       19.685 s          19.689 s
          | Total time for density update              :       19.397 s          19.397 s
          | Total time for mixing & preconditioning    :        0.650 s           0.651 s
          | Total time for Hartree multipole update    :        0.011 s           0.011 s
          | Total time for Hartree multipole sum       :        6.260 s           6.262 s
          | Total time for total energy evaluation     :        0.009 s           0.011 s
          | Total time for scaled ZORA corrections     :        0.000 s           0.000 s

 This is a stub MPI_ALLREDUCE call.
 You should not be here. Check your
 setting on the use_mpi variable, or
 link against true MPI-libraries.
