------------------------------------------------------------
          Invoking FHI-aims ...
          Version 171221_1
          Compiled on 2019/05/06 at 14:26:40 on host ffph0xx.

          When using FHI-aims, please cite the following reference:

          Volker Blum, Ralf Gehrke, Felix Hanke, Paula Havu,
          Ville Havu, Xinguo Ren, Karsten Reuter, and Matthias Scheffler,
          'Ab Initio Molecular Simulations with Numeric Atom-Centered Orbitals',
          Computer Physics Communications 180, 2175-2196 (2009)

          For any questions about FHI-aims, please visit the aimsclub website
          with its forums and wiki. Contributions to both the forums and the
          wiki are warmly encouraged - they are for you, and everyone is welcome there.

------------------------------------------------------------



  Date     :  20190514, Time     :  124101.867
  Time zero on CPU 1             :   0.614000000000000E-03  s.
  Internal wall clock time zero  :           327069661.867  s.

  FHI-aims created a unique identifier for this run for later identification
  aims_uuid : C42B924F-A181-41D5-ADC9-34616A2484C8


  Performing system and environment tests:
  *** Environment variable OMP_NUM_THREADS is not set
  *** For performance reasons you might want to set it to 1
  | Stacksize not measured: no C compiler

  Obtaining array dimensions for all initial allocations:
  
  -----------------------------------------------------------------------
  Parsing control.in (first pass over file, find array dimensions only).
  The contents of control.in will be repeated verbatim below
  unless switched off by setting 'verbatim_writeout .false.' .
  in the first line of control.in .
  -----------------------------------------------------------------------
  
  #--- method ---
  xc pw-lda
  spin none
  relativistic atomic_zora scalar
  #---
  
  #--- k-grid settings ---
  k_grid 12 12 12
  #---
  
  
  
  
  
  
  
  
  
  
  
  #-------------------------------------------------------------------------------
  #--- Species defaults for Si
  #-------------------------------------------------------------------------------
  
  ################################################################################
  #
  #  FHI-aims code project
  #  VB, Fritz-Haber Institut, 2009
  #
  #  Suggested "light" defaults for Si atom (to be pasted into control.in file)
  #  Be sure to double-check any results obtained with these settings for post-processing,
  #  e.g., with the "tight" defaults and larger basis sets.
  #
  ################################################################################
    species        Si
  #     global species definitions
      nucleus             14
      mass                28.0855
  #
      l_hartree           4
  #
      cut_pot             3.5          1.5  1.0
      basis_dep_cutoff    1e-4
  #
      radial_base         42 5.0
      radial_multiplier   1
      angular_grids       specified
        division   0.5866   50
        division   0.9616  110
        division   1.2249  194
        division   1.3795  302
  #      division   1.4810  434
  #      division   1.5529  590
  #      division   1.6284  770
  #      division   1.7077  974
  #      division   2.4068 1202
  #      outer_grid   974
        outer_grid 302
  ################################################################################
  #
  #  Definition of "minimal" basis
  #
  ################################################################################
  #     valence basis states
      valence      3  s   2.
      valence      3  p   2.
  #     ion occupancy
      ion_occ      3  s   1.
      ion_occ      3  p   1.
  ################################################################################
  #
  #  Suggested additional basis functions. For production calculations,
  #  uncomment them one after another (the most important basis functions are
  #  listed first).
  #
  #  Constructed for dimers: 1.75 A, 2.0 A, 2.25 A, 2.75 A, 3.75 A
  #
  ################################################################################
  #  "First tier" - improvements: -571.96 meV to -37.03 meV
       hydro 3 d 4.2
       hydro 2 p 1.4
  #     hydro 4 f 6.2
       ionic 3 s auto
  #  "Second tier" - improvements: -16.76 meV to -3.03 meV
  #     hydro 3 d 9
  #     hydro 5 g 9.4
  #     hydro 4 p 4
  #     hydro 1 s 0.65
  #  "Third tier" - improvements: -3.89 meV to -0.60 meV
  #     ionic 3 d auto
  #     hydro 3 s 2.6
  #     hydro 4 f 8.4
  #     hydro 3 d 3.4
  #     hydro 3 p 7.8
  #  "Fourth tier" - improvements: -0.33 meV to -0.11 meV
  #     hydro 2 p 1.6
  #     hydro 5 g 10.8
  #     hydro 5 f 11.2
  #     hydro 3 d 1
  #     hydro 4 s 4.5
  #  Further basis functions that fell out of the optimization - noise
  #  level... < -0.08 meV
  #     hydro 4 d 6.6
  #     hydro 5 g 16.4
  #     hydro 4 d 9
  
  -----------------------------------------------------------------------
  Completed first pass over input file control.in .
  -----------------------------------------------------------------------
  
  
  -----------------------------------------------------------------------
  Parsing geometry.in (first pass over file, find array dimensions only).
  The contents of geometry.in will be repeated verbatim below
  unless switched off by setting 'verbatim_writeout .false.' .
  in the first line of geometry.in .
  -----------------------------------------------------------------------
  
  lattice_vector   0.000000   3.050000   3.050000
  lattice_vector   3.050000   0.000000   3.050000
  lattice_vector   3.050000   3.050000   0.000000
  atom_frac   0.000000   0.000000   0.000000 Si
  atom_frac   0.250000   0.250000   0.250000 Si
  
  -----------------------------------------------------------------------
  Completed first pass over input file geometry.in .
  -----------------------------------------------------------------------
  

  Basic array size parameters:
  | Number of species                 :        1
  | Number of atoms                   :        2
  | Number of lattice vectors         :        3
  | Max. basis fn. angular momentum   :        2
  | Max. atomic/ionic basis occupied n:        3
  | Max. number of basis fn. types    :        3
  | Max. radial fns per species/type  :        5
  | Max. logarithmic grid size        :     1346
  | Max. radial integration grid size :       42
  | Max. angular integration grid size:      302
  | Max. angular grid division number :        8
  | Radial grid for Hartree potential :     1346
  | Number of spin channels           :        1

------------------------------------------------------------
          Reading file control.in.
------------------------------------------------------------
  XC: Using Perdew-Wang parametrisation of Ceperley-Alder LDA.
  Spin treatment: No spin polarisation.
  Scalar relativistic treatment of kinetic energy: on-site free-atom approximation to ZORA.
  Found k-point grid:        12        12        12

  Reading configuration options for species Si                  .
  | Found nuclear charge :  14.0000
  | Found atomic mass :    28.085500000000000      amu
  | Found l_max for Hartree potential  :   4
  | Found cutoff potl. onset [A], width [A], scale factor :    3.50000    1.50000    1.00000
  | Threshold for basis-dependent cutoff potential is   0.100000E-03
  | Found data for basic radial integration grid :    42 points, outermost radius =    5.000 A
  | Found multiplier for basic radial grid :   1
  | Found angular grid specification: user-specified.
  | Specified grid contains     5 separate shells.
  | Check grid settings after all constraints further below.
  | Found free-atom valence shell :  3 s   2.000
  | Found free-atom valence shell :  3 p   2.000
  | Found free-ion valence shell :  3 s   1.000
  | Found free-ion valence shell :  3 p   1.000
  | Found hydrogenic basis function :  3 d   4.200
  | Found hydrogenic basis function :  2 p   1.400
  | Found ionic basis function :  3 s , default cutoff radius.
  Species Si                  : Missing cutoff potential type.
  Defaulting to exp(1/x)/(1-x)^2 type cutoff potential.
  Species Si: No 'logarithmic' tag. Using default grid for free atom:
  | Default logarithmic grid data [bohr] : 0.1000E-03 0.1000E+03 0.1012E+01
  | Will include ionic basis functions of  2.0-fold positive Si                   ion.
  Species Si: On-site basis accuracy parameter (for Gram-Schmidt orthonormalisation) not specified.
  Using default value basis_acc =  0.1000000E-03.
  Species Si                  : Using default innermost maximum threshold i_radial=  2 for radial functions.
  Species Si                  : Default cutoff onset for free atom density etc. : 0.35000000E+01 AA.
  Species Si                  : Basic radial grid will be enhanced according to radial_multiplier =   1, to contain    42 grid points.

  Finished reading input file 'control.in'. Consistency checks are next.

  MPI_IN_PLACE appears to work with this MPI implementation.
  | Keeping use_mpi_in_place .true. (see manual).
  Target number of points in a grid batch is not set. Defaulting to  100
  Method for grid partitioning is not set. Defaulting to 'maxmin' partitioning.
  Batch size limit is not set. Defaulting to    200
  By default, will store active basis functions for each batch.
  If in need of memory, prune_basis_once .false. can be used to disable this option.
  communication_type for Hartree potential was not specified.
  Defaulting to calc_hartree .
 * Attention: 
 * You may want to set distributed_spline_storage to .true. in order to save memory.
 * This doesn't harm performance and is perfectly ok unless:
 * - you get error messages in postprocessing (about missing atoms in get_rho_multipole_spl)
 * - you need full spline storage in hirshfeld_analysis
  Defaulting to Pulay charge density mixer.
  Pulay mixer: Number of relevant iterations not set.
  Defaulting to    8 iterations.
  Pulay mixer: Number of initial linear mixing iterations not set.
  Defaulting to    0 iterations.
  Work space size for distributed Hartree potential not set.
  Defaulting to   0.200000E+03 MB.
  Mixing parameter for charge density mixing has not been set.
  Using default: charge_mix_param =     0.0500.
  The mixing parameter will be adjusted in iteration number     2 of the first full s.c.f. cycle only.
  Algorithm-dependent basis array size parameters:
  | n_max_pulay                         :        8
 * Notice: The s.c.f. convergence criterion sc_accuracy_rho was not provided.
 * We used to stop in this case, and ask the user to provide reasonable
 * scf convergence criteria. However, this led some users to employ criteria
 * that led to extremely long run times, e.g., for simple relaxation.
 * We now preset a default value for sc_accuracy_rho if it is not set.
 * You may still wish to check if this setting is too tight or too loose for your needs.
 * Based on n_atoms, FHI-aims chose sc_accuracy_rho =  0.100000E-05 .
  Maximum number of self-consistency iterations not provided.
  Presetting  1000 iterations.
  Presetting      1001 iterations before the initial mixing cycle
  is restarted anyway using the sc_init_iter criterion / keyword.
  Presetting a factor      1.000 between actual scf density residual
  and density convergence criterion sc_accuracy_rho below which sc_init_iter
  takes no effect.
 * No s.c.f. convergence criteria (sc_accuracy_*) were provided in control.in.
 * The run will proceed with a reasonable default guess, but please check whether.
 * the s.c.f. cycles seem to take too much or too little time.
  Calculation of forces was not defined in control.in. No forces will be calculated.
  Geometry relaxation not requested: no relaxation will be performed.
  No accuracy limit for integral partition fn. given. Defaulting to  0.1000E-14.
  No threshold value for u(r) in integrations given. Defaulting to  0.1000E-05.
  No occupation type (smearing scheme) given. Defaulting to Gaussian broadening, width =  0.1000E-01 eV.
  The width will be adjusted in iteration number     2 of the first full s.c.f. cycle only.
  S.C.F. convergence parameters will be adjusted in iteration number     2 of the first full s.c.f. cycle only.
  No accuracy for occupation numbers given. Defaulting to  0.1000E-12.
  No threshold value for occupation numbers given. Defaulting to  0.0000E+00.
  No accuracy for fermi level given. Defaulting to  0.1000E-19.
  Maximum # of iterations to find E_F not set. Defaulting to  200.
  Preferred method for the eigenvalue solver ('KS_method') not specified in 'control.in'.
  Defaulting to serial version, 'lapack_fast'.
  Will not use alltoall communication since running on < 1024 CPUs.
  Threshold for basis singularities not set.
  Default threshold for basis singularities:  0.1000E-04
  partition_type (choice of integration weights) for integrals was not specified.
  | Using a version of the partition function of Stratmann and coworkers ('stratmann_smoother').
  | At each grid point, the set of atoms used to build the partition table is smoothly restricted to
  | only those atoms whose free-atom density would be non-zero at that grid point.
  Partitioning for Hartree potential was not defined. Using partition_type for integrals.
  | Adjusted default value of keyword multip_moments_threshold to:       0.10000000E-11
  | This value may affect high angular momentum components of the Hartree potential in periodic systems.
  Angular momentum expansion for Kerker preconditioner not set explicitly.
  | Using default value of   0
  No explicit requirement for turning off preconditioner.
  | By default, it will be turned off when the charge convergence reaches
  | sc_accuracy_rho  =   0.100000E-05
  No special mixing parameter while Kerker preconditioner is on.
  Using default: charge_mix_param =     0.0500.
  No q(lm)/r^(l+1) cutoff set for long-range Hartree potential.
  | Using default value of  0.100000E-09 .
  | Verify using the multipole_threshold keyword.
  Defaulting to new monopole extrapolation.
  Density update method: automatic selection selected.
  Using density matrix based charge density update.
  Using density matrix based charge density update.
  Using packed matrix style: index .
  Defaulting to use time-reversal symmetry for k-point grid.
------------------------------------------------------------


------------------------------------------------------------
          Reading geometry description geometry.in.
------------------------------------------------------------
  Input structure read successfully.
  The structure contains        2 atoms,  and a total of         28.000 electrons.

  Input geometry:
  | Unit cell:
  |        0.00000000        3.05000000        3.05000000
  |        3.05000000        0.00000000        3.05000000
  |        3.05000000        3.05000000        0.00000000
  | Atomic structure:
  |       Atom                x [A]            y [A]            z [A]
  |    1: Species Si            0.00000000        0.00000000        0.00000000
  |    2: Species Si            1.52500000        1.52500000        1.52500000

  Lattice parameters for 3D lattice (in Angstroms) :     4.313351    4.313351    4.313351
  Angle(s) between unit vectors (in degrees)      :    60.000000   60.000000   60.000000

  |

  | The smallest distance between any two atoms is         2.64137748 AA.
  |
  | The first atom of this pair is atom number                      1 .
  | The second atom of this pair is atom number                     2 .
  | Wigner-Seitz cell of the first atom image           0     0     0 .
  | (The Wigner-Seitz cell of the second atom is 0 0 0  by definition.)

  Quantities derived from the lattice vectors:
  | Reciprocal lattice vector 1: -1.030030  1.030030  1.030030
  | Reciprocal lattice vector 2:  1.030030 -1.030030  1.030030
  | Reciprocal lattice vector 3:  1.030030  1.030030 -1.030030
  | Unit cell volume                               :   0.567452E+02  A^3

  Range separation radius for Ewald summation (hartree_convergence_parameter):      4.41143356 bohr.

  Fractional coordinates:
                         L1                L2                L3
       atom_frac         0.00000000        0.00000000        0.00000000  Si
       atom_frac         0.25000000        0.25000000        0.25000000  Si

  Number of empty states per atom not set in control.in - providing a guess from actual geometry.
  | Total number of empty states used during s.c.f. cycle:        6
  If you use a very high smearing, use empty_states (per atom!) in control.in to increase this value.

  Structure-dependent array size parameters: 
  | Maximum number of distinct radial functions  :        8
  | Maximum number of basis functions            :       36
  | Number of Kohn-Sham states (occupied + empty):       20
------------------------------------------------------------

------------------------------------------------------------
          Preparing all fixed parts of the calculation.
------------------------------------------------------------
  Determining machine precision:
     2.2250738585072014E-308
  Setting up grids for atomic and cluster calculations.

  Creating wave function, potential, and density for free atoms.

  Species: Si

  List of occupied orbitals and eigenvalues:
    n    l              occ      energy [Ha]    energy [eV]
    1    0           2.0000       -65.491668     -1782.1190
    2    0           2.0000        -5.087967      -138.4506
    3    0           2.0000        -0.391471       -10.6525
    2    1           6.0000        -3.502246       -95.3010
    3    1           2.0000        -0.143943        -3.9169

  Creating fixed part of basis set: Ionic, confined, hydrogenic.

  Si                   ion:

  List of free ionic orbitals and eigenvalues:
    n    l      energy [Ha]    energy [eV]
    1    0       -66.364436     -1805.8682
    2    0        -5.935799      -161.5213
    3    0        -1.078166       -29.3384
    2    1        -4.351123      -118.4001
    3    1        -0.781733       -21.2720


  List of ionic basis orbitals and eigenvalues:
    n    l      energy [Ha]    energy [eV]    outer radius [A]
    3    0        -1.078146       -29.3378       4.214062


  Si                   hydrogenic:

  List of hydrogenic basis orbitals: 
    n    l      effective z      eigenvalue [eV]  inner max. [A]     outer max. [A]     outer radius [A]   
    3    2         4.200000       -26.6624           1.139231           1.139231           4.534782
    2    1         1.400000        -6.4613           1.472672           1.472672           4.590560


  Adding cutoff potential to free-atom effective potential.
  Creating atomic-like basis functions for current effective potential.

  Species Si                  :

  List of atomic basis orbitals and eigenvalues:
    n    l      energy [Ha]    energy [eV]    outer radius [A]
    1    0       -65.491668     -1782.1190       0.789468
    2    0        -5.087967      -138.4506       2.815114
    3    0        -0.391471       -10.6525       4.534782
    2    1        -3.502246       -95.3010       3.259919
    3    1        -0.143943        -3.9169       4.590560

  Assembling full basis from fixed parts.
  | Species Si :   atomic orbital   1 s accepted.
  | Species Si :   atomic orbital   2 s accepted.
  | Species Si :    ionic orbital   3 s accepted.
  | Species Si :   atomic orbital   3 s accepted.
  | Species Si :   atomic orbital   2 p accepted.
  | Species Si :   atomic orbital   3 p accepted.
  | Species Si :    hydro orbital   2 p accepted.
  | Species Si :    hydro orbital   3 d accepted.

  Basis size parameters after reduction:
  | Total number of radial functions:        8
  | Total number of basis functions :       36

  Per-task memory consumption for arrays in subroutine allocate_ext:
  |           2.757868MB.
  Testing on-site integration grid accuracy.
  |  Species  Function  <phi|h_atom|phi> (log., in eV)  <phi|h_atom|phi> (rad., in eV)
           1        1              -1782.1189727076              -1782.1182429251
           1        2               -138.4506350693               -138.4506310079
           1        3                -10.3030408815                -10.3029120678
           1        4                  5.0238999146                  4.9457540310 ***
           1        5                -95.3009689499                -95.3009689315
           1        6                 -3.9266496564                 -3.9420918374
           1        7                  6.3453628447                  6.1632372158 ***
           1        8                  6.2883050744                  6.2861881409
 * Note: Onsite integrals marked "***" above are less accurate than
 * onsite_accuracy_threshold =    0.03000 eV. Usually, this is harmless.
 * When in doubt, tighten the "radial" and/or "radial_multiplier" flags to check.

  Preparing densities etc. for the partition functions (integrals / Hartree potential).

  Preparations completed.
  max(cpu_time)          :      0.092 s.
  Wall clock time (cpu1) :      0.092 s.
------------------------------------------------------------

------------------------------------------------------------
          Begin self-consistency loop: Initialization.

          Date     :  20190514, Time     :  124101.961
------------------------------------------------------------

  Initializing index lists of integration centers etc. from given atomic structure:
  Mapping all atomic coordinates to central unit cell.

  Initializing the k-points
          Using symmetry for reducing the k-points
  | k-points reduced from:     1728 to      868
  | Number of k-points                             :       868
  The eigenvectors in the calculations are COMPLEX.
  | K-points in task   0:       868
  | Number of basis functions in the Hamiltonian integrals :       917
  | Number of basis functions in a single unit cell        :        36
  | Number of centers in hartree potential         :       678
  | Number of centers in hartree multipole         :       198
  | Number of centers in electron density summation:       148
  | Number of centers in basis integrals           :       172
  | Number of centers in integrals                 :        75
  | Number of centers in hamiltonian               :       148
  | Consuming       1274 KiB for k_phase.
  | Number of super-cells (origin) [n_cells]                     :        1331
  | Number of super-cells (after PM_index) [n_cells]             :          94
  | Number of super-cells in hamiltonian [n_cells_in_hamiltonian]:          94
  | Size of matrix packed + index [n_hamiltonian_matrix_size] :       31579
  Partitioning the integration grid into batches with maxmin method.
  | Maximal weight for a single point:     1.000
  | Minimal weight for a single point:     0.609
  | Number of batches:      128
  | Maximal batch size:      91
  | Minimal batch size:      85
  | Average batch size:      87.562
  | Standard deviation of batch sizes:       1.509
  Initializing partition tables, free-atom densities, potentials, etc. across the integration grid (initialize_grid_storage).
  | initialize_grid_storage: Actual outermost partition radius vs. multipole_radius_free
  | (-- VB: in principle, multipole_radius_free should be larger, hence this output)
  | Species        1: Confinement radius =              4.999999999999999 AA, multipole_radius_free =              5.000694715736543 AA.
  | Species        1: outer_partition_radius set to              5.000694715736543 AA .
  | Original list of interatomic distances with         172 x        172 entries is created.
  | Net number of integration points:    11208
  | of which are non-zero points    :    10104
  | Numerical average free-atom electrostatic potential    :     -9.27245770 eV
  Renormalizing the initial density to the exact electron count on the 3D integration grid.
  | Initial density: Formal number of electrons (from input files) :      28.0000000000
  | Integrated number of electrons on 3D grid     :      28.0022404659
  | Charge integration error                      :       0.0022404659
  | Normalization factor for density and gradient :       0.9999199898
  Obtaining max. number of non-zero basis functions in each batch (get_n_compute_maxes).
  | Maximal number of non-zero basis functions:      349 in task     0
  Allocating        9.999 MB for KS_eigenvector_complex
  Integrating Hamiltonian matrix: batch-based integration.
  Time summed over all CPUs for integration: real work        0.317 s, elapsed        0.317 s
  Integrating overlap matrix.
  Time summed over all CPUs for integration: real work        0.226 s, elapsed        0.226 s
  Decreasing sparse matrix size:
   Tolerance:   9.9999998245167004E-014
   Hamiltonian matrix
  | Array has    28182 nonzero elements out of    31579 elements
  | Sparsity factor is 0.108
   Overlap matrix
  | Array has    24540 nonzero elements out of    31579 elements
  | Sparsity factor is 0.223
  New size of hamiltonian matrix:       28439

  Updating Kohn-Sham eigenvalues, eigenvectors, occupation numbers, and Fermi level.
  Solving generalized eigenproblem
  Transforming overlap matrix and checking for singularities.
  Overlap matrix is nonsingular at first k-point:
  | Lowest eigenvalue:  0.156211E-01

  Obtaining occupation numbers and chemical potential using ELSI.
  | Chemical potential (Fermi level):    -5.69718655eV
  Writing Kohn-Sham eigenvalues.
  K-point:       1 at    0.000000    0.000000    0.000000 (in units of recip. lattice)

  State    Occupation    Eigenvalue [Ha]    Eigenvalue [eV]
      1       2.00000         -65.499223        -1782.32455
      2       2.00000         -65.499223        -1782.32455
      3       2.00000          -5.097643         -138.71393
      4       2.00000          -5.097594         -138.71258
      5       2.00000          -3.511901          -95.56368
      6       2.00000          -3.511901          -95.56368
      7       2.00000          -3.511901          -95.56368
      8       2.00000          -3.511757          -95.55976
      9       2.00000          -3.511757          -95.55976
     10       2.00000          -3.511757          -95.55976
     11       2.00000          -0.572241          -15.57146
     12       2.00000          -0.216593           -5.89381
     13       1.33333          -0.209480           -5.70023
     14       1.33333          -0.209480           -5.70023
     15       1.33333          -0.209480           -5.70023
     16       0.00000          -0.119905           -3.26278
     17       0.00000          -0.119905           -3.26278
     18       0.00000          -0.119905           -3.26278
     19       0.00000           0.084135            2.28942
     20       0.00000           0.084135            2.28942

  What follows are estimated values for band gap, HOMO, LUMO, etc.
  | They are estimated on a discrete k-point grid and not necessarily exact.
  | For converged numbers, create a DOS and/or band structure plot on a denser k-grid.

  Highest occupied state (VBM) at     -5.70023225 eV (relative to internal zero)
  | Occupation number:      1.33333334
  | K-point:       1 at    0.000000    0.000000    0.000000 (in units of recip. lattice)

  Lowest unoccupied state (CBM) at    -5.29881148 eV (relative to internal zero)
  | Occupation number:      0.00000000
  | K-point:      53 at    0.000000    0.500000    0.000000 (in units of recip. lattice)

  ESTIMATED overall HOMO-LUMO gap:      0.40142076 eV between HOMO at k-point 1 and LUMO at k-point 53
  | This appears to be an indirect band gap.
  | Smallest direct gap :      0.85087944 eV for k_point 75 at    0.000000    0.500000    0.000000 (in units of recip. lattice)
  However, this system has fractional occupation numbers. Since we use a finite k-point grid,
  this material is metallic within the approximate finite broadening function (occupation_type)
  applied to determine the occupation numbers.
  Calculating total energy contributions from superposition of free atom densities.

  Total energy components:
  | Sum of eigenvalues            :        -327.44163599 Ha       -8910.14025834 eV
  | XC energy correction          :         -39.50179304 Ha       -1074.89847878 eV
  | XC potential correction       :          52.18962872 Ha        1420.15205404 eV
  | Free-atom electrostatic energy:        -263.94399149 Ha       -7182.28143891 eV
  | Hartree energy correction     :          -0.00000000 Ha          -0.00000000 eV
  | Entropy correction            :          -0.00000016 Ha          -0.00000446 eV
  | ---------------------------
  | Total energy                  :        -578.69779180 Ha      -15747.16812199 eV
  | Total energy, T -> 0          :        -578.69779196 Ha      -15747.16812645 eV  <-- do not rely on this value for anything but (periodic) metals
  | Electronic free energy        :        -578.69779213 Ha      -15747.16813091 eV

  Derived energy quantities:
  | Kinetic energy                :         579.34443336 Ha       15764.76413406 eV
  | Electrostatic energy          :       -1118.54043212 Ha      -30437.03377726 eV
  | Energy correction for multipole
  | error in Hartree potential    :           0.00000000 Ha           0.00000000 eV
  | Sum of eigenvalues per atom                           :       -4455.07012917 eV
  | Total energy (T->0) per atom                          :       -7873.58406322 eV  <-- do not rely on this value for anything but (periodic) metals
  | Electronic free energy per atom                       :       -7873.58406546 eV
  Initialize hartree_potential_storage
  Max. number of atoms included in rho_multipole:            2

  End scf initialization - timings             :  max(cpu_time)    wall_clock(cpu1)
  | Time for scf. initialization               :        1.693 s           1.693 s
  | Boundary condition initialization          :        0.049 s           0.049 s
  | Integration                                :        0.542 s           0.543 s
  | Solution of K.-S. eqns.                    :        0.959 s           0.959 s
  | Grid partitioning                          :        0.024 s           0.023 s
  | Preloading free-atom quantities on grid    :        0.001 s           0.001 s
  | Free-atom superposition energy             :        0.023 s           0.023 s
  | Total energy evaluation                    :        0.000 s           0.000 s

  Partial memory accounting:
  | Current value for overall tracked memory usage on task 0  :          10.568 MB
  | Peak value for overall tracked memory usage on task 0     :          12.368 MB after allocating wave
  | Largest tracked array allocation on task 0 so far         :           9.999 MB  when allocating +KS_eigenvector_complex
  Note:  These values currently only include a subset of arrays which are explicitly tracked.
  The "true" memory usage will be greater.
------------------------------------------------------------

------------------------------------------------------------
          Begin self-consistency iteration #    1

  Date     :  20190514, Time     :  124103.654
------------------------------------------------------------
  Evaluating new KS density using the density matrix
  Evaluating density matrix
  Time summed over all CPUs for getting density from density matrix: real work        0.522 s, elapsed        0.522 s
  Integration grid: deviation in total charge (<rho> - N_e) =   8.363088E-12
  Pulay mixing of updated and previous charge densities.

  Evaluating partitioned Hartree potential by multipole expansion.
  | Analytical far-field extrapolation by fixed multipoles:
  | Hartree multipole sum: apparent total charge =   0.248397E-02
  Summing up the Hartree potential.
  | Estimated reciprocal-space cutoff momentum G_max:         2.10327296 bohr^-1 .
  | Reciprocal lattice points for long-range Hartree potential:      58
  Time summed over all CPUs for potential: real work        0.341 s, elapsed        0.341 s
  | RMS charge density error from multipole expansion :   0.259049E-03
  | Average real-space part of the electrostatic potential :     -0.00415627 eV

  Integrating Hamiltonian matrix: batch-based integration.
  Time summed over all CPUs for integration: real work        0.316 s, elapsed        0.316 s

  Updating Kohn-Sham eigenvalues, eigenvectors, occupation numbers, and Fermi level.
  Solving generalized eigenproblem

  Obtaining occupation numbers and chemical potential using ELSI.
  | Chemical potential (Fermi level):    -5.68658353eV
  Writing Kohn-Sham eigenvalues.
  K-point:       1 at    0.000000    0.000000    0.000000 (in units of recip. lattice)

  State    Occupation    Eigenvalue [Ha]    Eigenvalue [eV]
      1       2.00000         -65.501635        -1782.39018
      2       2.00000         -65.501635        -1782.39018
      3       2.00000          -5.098495         -138.73710
      4       2.00000          -5.098445         -138.73575
      5       2.00000          -3.512815          -95.58856
      6       2.00000          -3.512815          -95.58856
      7       2.00000          -3.512815          -95.58856
      8       2.00000          -3.512672          -95.58466
      9       2.00000          -3.512672          -95.58466
     10       2.00000          -3.512672          -95.58466
     11       2.00000          -0.571943          -15.56336
     12       2.00000          -0.216303           -5.88590
     13       1.33333          -0.209090           -5.68963
     14       1.33333          -0.209090           -5.68963
     15       1.33333          -0.209090           -5.68963
     16       0.00000          -0.119692           -3.25698
     17       0.00000          -0.119692           -3.25698
     18       0.00000          -0.119692           -3.25698
     19       0.00000           0.084408            2.29686
     20       0.00000           0.084408            2.29686

  What follows are estimated values for band gap, HOMO, LUMO, etc.
  | They are estimated on a discrete k-point grid and not necessarily exact.
  | For converged numbers, create a DOS and/or band structure plot on a denser k-grid.

  Highest occupied state (VBM) at     -5.68962923 eV (relative to internal zero)
  | Occupation number:      1.33333333
  | K-point:       1 at    0.000000    0.000000    0.000000 (in units of recip. lattice)

  Lowest unoccupied state (CBM) at    -5.29322091 eV (relative to internal zero)
  | Occupation number:      0.00000000
  | K-point:     671 at    0.500000    0.500000    0.500000 (in units of recip. lattice)

  ESTIMATED overall HOMO-LUMO gap:      0.39640833 eV between HOMO at k-point 1 and LUMO at k-point 671
  | This appears to be an indirect band gap.
  | Smallest direct gap :      0.84892443 eV for k_point 75 at    0.500000    0.500000    0.500000 (in units of recip. lattice)
  However, this system has fractional occupation numbers. Since we use a finite k-point grid,
  this material is metallic within the approximate finite broadening function (occupation_type)
  applied to determine the occupation numbers.

  Total energy components:
  | Sum of eigenvalues            :        -327.46315196 Ha       -8910.72573746 eV
  | XC energy correction          :         -39.50194000 Ha       -1074.90247797 eV
  | XC potential correction       :          52.18981257 Ha        1420.15705677 eV
  | Free-atom electrostatic energy:        -263.94399149 Ha       -7182.28143891 eV
  | Hartree energy correction     :           0.02170273 Ha           0.59056141 eV
  | Entropy correction            :          -0.00000016 Ha          -0.00000446 eV
  | ---------------------------
  | Total energy                  :        -578.69756815 Ha      -15747.16203616 eV
  | Total energy, T -> 0          :        -578.69756831 Ha      -15747.16204062 eV  <-- do not rely on this value for anything but (periodic) metals
  | Electronic free energy        :        -578.69756848 Ha      -15747.16204509 eV

  Derived energy quantities:
  | Kinetic energy                :         579.26144712 Ha       15762.50596364 eV
  | Electrostatic energy          :       -1118.45707527 Ha      -30434.76552183 eV
  | Energy correction for multipole
  | error in Hartree potential    :           0.00027341 Ha           0.00743974 eV
  | Sum of eigenvalues per atom                           :       -4455.36286873 eV
  | Total energy (T->0) per atom                          :       -7873.58102031 eV  <-- do not rely on this value for anything but (periodic) metals
  | Electronic free energy per atom                       :       -7873.58102254 eV

  Self-consistency convergence accuracy:
  | Change of charge density      :  0.7458E-01
  | Change of sum of eigenvalues  : -0.5855E+00 eV
  | Change of total energy        :  0.6086E-02 eV

  End self-consistency iteration #     1       :  max(cpu_time)    wall_clock(cpu1)
  | Time for this iteration                    :        1.748 s           1.748 s
  | Charge density update                      :        0.572 s           0.572 s
  | Density mixing & preconditioning           :        0.044 s           0.044 s
  | Hartree multipole update                   :        0.001 s           0.000 s
  | Hartree multipole summation                :        0.344 s           0.344 s
  | Integration                                :        0.316 s           0.316 s
  | Solution of K.-S. eqns.                    :        0.471 s           0.471 s
  | Total energy evaluation                    :        0.000 s           0.001 s

  Partial memory accounting:
  | Current value for overall tracked memory usage on task 0  :          10.568 MB
  | Peak value for overall tracked memory usage on task 0     :          12.368 MB after allocating wave
  | Largest tracked array allocation on task 0 so far         :           9.999 MB  when allocating +KS_eigenvector_complex
  Note:  These values currently only include a subset of arrays which are explicitly tracked.
  The "true" memory usage will be greater.
------------------------------------------------------------

------------------------------------------------------------
          Begin self-consistency iteration #    2

  Date     :  20190514, Time     :  124105.402
------------------------------------------------------------
  Evaluating new KS density using the density matrix
  Evaluating density matrix
  Time summed over all CPUs for getting density from density matrix: real work        0.521 s, elapsed        0.521 s
  Integration grid: deviation in total charge (<rho> - N_e) =   8.299139E-12
  Pulay mixing of updated and previous charge densities.

  Evaluating partitioned Hartree potential by multipole expansion.
  | Analytical far-field extrapolation by fixed multipoles:
  | Hartree multipole sum: apparent total charge =   0.687850E-02
  Summing up the Hartree potential.
  Time summed over all CPUs for potential: real work        0.420 s, elapsed        0.420 s
  | RMS charge density error from multipole expansion :   0.514076E-02
  | Average real-space part of the electrostatic potential :      0.08864407 eV

  Integrating Hamiltonian matrix: batch-based integration.
  Time summed over all CPUs for integration: real work        0.314 s, elapsed        0.314 s

  Updating Kohn-Sham eigenvalues, eigenvectors, occupation numbers, and Fermi level.
  Solving generalized eigenproblem

  Obtaining occupation numbers and chemical potential using ELSI.
  | Chemical potential (Fermi level):    -5.40148701eV
  What follows are estimated values for band gap, HOMO, LUMO, etc.
  | They are estimated on a discrete k-point grid and not necessarily exact.
  | For converged numbers, create a DOS and/or band structure plot on a denser k-grid.

  Highest occupied state (VBM) at     -5.40453272 eV (relative to internal zero)
  | Occupation number:      1.33333333
  | K-point:       1 at    0.000000    0.000000    0.000000 (in units of recip. lattice)

  Lowest unoccupied state (CBM) at    -5.11973714 eV (relative to internal zero)
  | Occupation number:      0.00000000
  | K-point:      53 at    0.000000    0.500000    0.000000 (in units of recip. lattice)

  ESTIMATED overall HOMO-LUMO gap:      0.28479558 eV between HOMO at k-point 1 and LUMO at k-point 53
  | This appears to be an indirect band gap.
  | Smallest direct gap :      0.82661861 eV for k_point 2 at    0.000000    0.500000    0.000000 (in units of recip. lattice)
  However, this system has fractional occupation numbers. Since we use a finite k-point grid,
  this material is metallic within the approximate finite broadening function (occupation_type)
  applied to determine the occupation numbers.

  Checking to see if s.c.f. parameters should be adjusted.
  Adjusted the Pulay mixing parameter (charge_mix_param) for an expected low-gap system. New value:   0.020000 .
  Adjusted the occupation broadening width for an expected low-gap system. New value:      0.05000000 eV.

  Total energy components:
  | Sum of eigenvalues            :        -327.31857148 Ha       -8906.79150261 eV
  | XC energy correction          :         -39.51168298 Ha       -1075.16759777 eV
  | XC potential correction       :          52.20245341 Ha        1420.50103154 eV
  | Free-atom electrostatic energy:        -263.94399149 Ha       -7182.28143891 eV
  | Hartree energy correction     :          -0.12386734 Ha          -3.37060174 eV
  | Entropy correction            :          -0.00000102 Ha          -0.00002766 eV
  | ---------------------------
  | Total energy                  :        -578.69565988 Ha      -15747.11010950 eV
  | Total energy, T -> 0          :        -578.69566090 Ha      -15747.11013715 eV  <-- do not rely on this value for anything but (periodic) metals
  | Electronic free energy        :        -578.69566191 Ha      -15747.11016481 eV

  Derived energy quantities:
  | Kinetic energy                :         578.98644576 Ha       15755.02279576 eV
  | Electrostatic energy          :       -1118.17042266 Ha      -30426.96530748 eV
  | Energy correction for multipole
  | error in Hartree potential    :           0.00542992 Ha           0.14775567 eV
  | Sum of eigenvalues per atom                           :       -4453.39575131 eV
  | Total energy (T->0) per atom                          :       -7873.55506858 eV  <-- do not rely on this value for anything but (periodic) metals
  | Electronic free energy per atom                       :       -7873.55508241 eV

  Self-consistency convergence accuracy:
  | Change of charge density      :  0.7089E-01
  | Change of sum of eigenvalues  :  0.3934E+01 eV
  | Change of total energy        :  0.5193E-01 eV

  End self-consistency iteration #     2       :  max(cpu_time)    wall_clock(cpu1)
  | Time for this iteration                    :        1.823 s           1.823 s
  | Charge density update                      :        0.571 s           0.571 s
  | Density mixing & preconditioning           :        0.041 s           0.041 s
  | Hartree multipole update                   :        0.001 s           0.000 s
  | Hartree multipole summation                :        0.424 s           0.424 s
  | Integration                                :        0.315 s           0.315 s
  | Solution of K.-S. eqns.                    :        0.471 s           0.471 s
  | Total energy evaluation                    :        0.000 s           0.000 s

  Partial memory accounting:
  | Current value for overall tracked memory usage on task 0  :          10.569 MB
  | Peak value for overall tracked memory usage on task 0     :          12.368 MB after allocating wave
  | Largest tracked array allocation on task 0 so far         :           9.999 MB  when allocating +KS_eigenvector_complex
  Note:  These values currently only include a subset of arrays which are explicitly tracked.
  The "true" memory usage will be greater.
------------------------------------------------------------

------------------------------------------------------------
          Begin self-consistency iteration #    3

  Date     :  20190514, Time     :  124107.225
------------------------------------------------------------
  Evaluating new KS density using the density matrix
  Evaluating density matrix
  Time summed over all CPUs for getting density from density matrix: real work        0.525 s, elapsed        0.525 s
  Integration grid: deviation in total charge (<rho> - N_e) =   8.284928E-12
  Pulay mixing of updated and previous charge densities.

  Evaluating partitioned Hartree potential by multipole expansion.
  | Analytical far-field extrapolation by fixed multipoles:
  | Hartree multipole sum: apparent total charge =   0.683497E-02
  Summing up the Hartree potential.
  Time summed over all CPUs for potential: real work        0.417 s, elapsed        0.417 s
  | RMS charge density error from multipole expansion :   0.515143E-02
  | Average real-space part of the electrostatic potential :      0.08891216 eV

  Integrating Hamiltonian matrix: batch-based integration.
  Time summed over all CPUs for integration: real work        0.318 s, elapsed        0.318 s

  Updating Kohn-Sham eigenvalues, eigenvectors, occupation numbers, and Fermi level.
  Solving generalized eigenproblem

  Obtaining occupation numbers and chemical potential using ELSI.
  | Chemical potential (Fermi level):    -5.38814631eV
  What follows are estimated values for band gap, HOMO, LUMO, etc.
  | They are estimated on a discrete k-point grid and not necessarily exact.
  | For converged numbers, create a DOS and/or band structure plot on a denser k-grid.

  Highest occupied state (VBM) at     -5.40385804 eV (relative to internal zero)
  | Occupation number:      1.34324278
  | K-point:       1 at    0.000000    0.000000    0.000000 (in units of recip. lattice)

  Lowest unoccupied state (CBM) at    -5.11938390 eV (relative to internal zero)
  | Occupation number:      0.00000000
  | K-point:      53 at    0.000000    0.500000    0.000000 (in units of recip. lattice)

  ESTIMATED overall HOMO-LUMO gap:      0.28447413 eV between HOMO at k-point 1 and LUMO at k-point 53
  | This appears to be an indirect band gap.
  | Smallest direct gap :      0.82651889 eV for k_point 868 at    0.000000    0.500000    0.000000 (in units of recip. lattice)
  However, this system has fractional occupation numbers. Since we use a finite k-point grid,
  this material is metallic within the approximate finite broadening function (occupation_type)
  applied to determine the occupation numbers.

  Total energy components:
  | Sum of eigenvalues            :        -327.31939280 Ha       -8906.81385179 eV
  | XC energy correction          :         -39.51157771 Ha       -1075.16473315 eV
  | XC potential correction       :          52.20231242 Ha        1420.49719514 eV
  | Free-atom electrostatic energy:        -263.94399149 Ha       -7182.28143891 eV
  | Hartree energy correction     :          -0.12301128 Ha          -3.34730735 eV
  | Entropy correction            :          -0.00000085 Ha          -0.00002326 eV
  | ---------------------------
  | Total energy                  :        -578.69566086 Ha      -15747.11013607 eV
  | Total energy, T -> 0          :        -578.69566171 Ha      -15747.11015933 eV  <-- do not rely on this value for anything but (periodic) metals
  | Electronic free energy        :        -578.69566257 Ha      -15747.11018259 eV

  Derived energy quantities:
  | Kinetic energy                :         578.98318820 Ha       15754.93415309 eV
  | Electrostatic energy          :       -1118.16727135 Ha      -30426.87955600 eV
  | Energy correction for multipole
  | error in Hartree potential    :           0.00543679 Ha           0.14794270 eV
  | Sum of eigenvalues per atom                           :       -4453.40692590 eV
  | Total energy (T->0) per atom                          :       -7873.55507966 eV  <-- do not rely on this value for anything but (periodic) metals
  | Electronic free energy per atom                       :       -7873.55509129 eV

  Self-consistency convergence accuracy:
  | Change of charge density      :  0.1060E-01
  | Change of sum of eigenvalues  : -0.2235E-01 eV
  | Change of total energy        : -0.2657E-04 eV

  End self-consistency iteration #     3       :  max(cpu_time)    wall_clock(cpu1)
  | Time for this iteration                    :        1.831 s           1.830 s
  | Charge density update                      :        0.576 s           0.576 s
  | Density mixing & preconditioning           :        0.043 s           0.042 s
  | Hartree multipole update                   :        0.001 s           0.001 s
  | Hartree multipole summation                :        0.420 s           0.420 s
  | Integration                                :        0.318 s           0.318 s
  | Solution of K.-S. eqns.                    :        0.473 s           0.473 s
  | Total energy evaluation                    :        0.000 s           0.000 s

  Partial memory accounting:
  | Current value for overall tracked memory usage on task 0  :          10.570 MB
  | Peak value for overall tracked memory usage on task 0     :          12.368 MB after allocating wave
  | Largest tracked array allocation on task 0 so far         :           9.999 MB  when allocating +KS_eigenvector_complex
  Note:  These values currently only include a subset of arrays which are explicitly tracked.
  The "true" memory usage will be greater.
------------------------------------------------------------

------------------------------------------------------------
          Begin self-consistency iteration #    4

  Date     :  20190514, Time     :  124109.056
------------------------------------------------------------
  Evaluating new KS density using the density matrix
  Evaluating density matrix
  Time summed over all CPUs for getting density from density matrix: real work        0.524 s, elapsed        0.524 s
  Integration grid: deviation in total charge (<rho> - N_e) =   8.306245E-12
  Pulay mixing of updated and previous charge densities.

  Evaluating partitioned Hartree potential by multipole expansion.
  | Analytical far-field extrapolation by fixed multipoles:
  | Hartree multipole sum: apparent total charge =   0.169396E-01
  Summing up the Hartree potential.
  Time summed over all CPUs for potential: real work        0.419 s, elapsed        0.419 s
  | RMS charge density error from multipole expansion :   0.575844E-02
  | Average real-space part of the electrostatic potential :      0.09070305 eV

  Integrating Hamiltonian matrix: batch-based integration.
  Time summed over all CPUs for integration: real work        0.323 s, elapsed        0.323 s

  Updating Kohn-Sham eigenvalues, eigenvectors, occupation numbers, and Fermi level.
  Solving generalized eigenproblem

  Obtaining occupation numbers and chemical potential using ELSI.
  | Chemical potential (Fermi level):    -5.34890960eV
  What follows are estimated values for band gap, HOMO, LUMO, etc.
  | They are estimated on a discrete k-point grid and not necessarily exact.
  | For converged numbers, create a DOS and/or band structure plot on a denser k-grid.

  Highest occupied state (VBM) at     -5.36459704 eV (relative to internal zero)
  | Occupation number:      1.34274628
  | K-point:       1 at    0.000000    0.000000    0.000000 (in units of recip. lattice)

  Lowest unoccupied state (CBM) at    -5.08364625 eV (relative to internal zero)
  | Occupation number:      0.00000000
  | K-point:     615 at    0.500000    0.000000    0.000000 (in units of recip. lattice)

  ESTIMATED overall HOMO-LUMO gap:      0.28095079 eV between HOMO at k-point 1 and LUMO at k-point 615
  | This appears to be an indirect band gap.
  | Smallest direct gap :      0.83046920 eV for k_point 8 at    0.500000    0.000000    0.000000 (in units of recip. lattice)
  However, this system has fractional occupation numbers. Since we use a finite k-point grid,
  this material is metallic within the approximate finite broadening function (occupation_type)
  applied to determine the occupation numbers.

  Total energy components:
  | Sum of eigenvalues            :        -327.09429931 Ha       -8900.68874625 eV
  | XC energy correction          :         -39.53771005 Ha       -1075.87583037 eV
  | XC potential correction       :          52.23702481 Ha        1421.44176712 eV
  | Free-atom electrostatic energy:        -263.94399149 Ha       -7182.28143891 eV
  | Hartree energy correction     :          -0.35691362 Ha          -9.71211381 eV
  | Entropy correction            :          -0.00000085 Ha          -0.00002322 eV
  | ---------------------------
  | Total energy                  :        -578.69588966 Ha      -15747.11636221 eV
  | Total energy, T -> 0          :        -578.69589052 Ha      -15747.11638543 eV  <-- do not rely on this value for anything but (periodic) metals
  | Electronic free energy        :        -578.69589137 Ha      -15747.11640865 eV

  Derived energy quantities:
  | Kinetic energy                :         579.39587999 Ha       15766.16406822 eV
  | Electrostatic energy          :       -1118.55405961 Ha      -30437.40460006 eV
  | Energy correction for multipole
  | error in Hartree potential    :           0.00677064 Ha           0.18423842 eV
  | Sum of eigenvalues per atom                           :       -4450.34437312 eV
  | Total energy (T->0) per atom                          :       -7873.55819271 eV  <-- do not rely on this value for anything but (periodic) metals
  | Electronic free energy per atom                       :       -7873.55820432 eV

  Self-consistency convergence accuracy:
  | Change of charge density      :  0.1060E-01
  | Change of sum of eigenvalues  :  0.6125E+01 eV
  | Change of total energy        : -0.6226E-02 eV

  End self-consistency iteration #     4       :  max(cpu_time)    wall_clock(cpu1)
  | Time for this iteration                    :        1.831 s           1.831 s
  | Charge density update                      :        0.573 s           0.573 s
  | Density mixing & preconditioning           :        0.040 s           0.040 s
  | Hartree multipole update                   :        0.001 s           0.001 s
  | Hartree multipole summation                :        0.423 s           0.423 s
  | Integration                                :        0.323 s           0.323 s
  | Solution of K.-S. eqns.                    :        0.470 s           0.471 s
  | Total energy evaluation                    :        0.000 s           0.000 s

  Partial memory accounting:
  | Current value for overall tracked memory usage on task 0  :          10.570 MB
  | Peak value for overall tracked memory usage on task 0     :          12.368 MB after allocating wave
  | Largest tracked array allocation on task 0 so far         :           9.999 MB  when allocating +KS_eigenvector_complex
  Note:  These values currently only include a subset of arrays which are explicitly tracked.
  The "true" memory usage will be greater.
------------------------------------------------------------

------------------------------------------------------------
          Begin self-consistency iteration #    5

  Date     :  20190514, Time     :  124110.887
------------------------------------------------------------
  Evaluating new KS density using the density matrix
  Evaluating density matrix
  Time summed over all CPUs for getting density from density matrix: real work        0.523 s, elapsed        0.523 s
  Integration grid: deviation in total charge (<rho> - N_e) =   8.387957E-12
  Pulay mixing of updated and previous charge densities.

  Evaluating partitioned Hartree potential by multipole expansion.
  | Analytical far-field extrapolation by fixed multipoles:
  | Hartree multipole sum: apparent total charge =   0.673786E-02
  Summing up the Hartree potential.
  Time summed over all CPUs for potential: real work        0.420 s, elapsed        0.420 s
  | RMS charge density error from multipole expansion :   0.562097E-02
  | Average real-space part of the electrostatic potential :      0.08032479 eV

  Integrating Hamiltonian matrix: batch-based integration.
  Time summed over all CPUs for integration: real work        0.314 s, elapsed        0.314 s

  Updating Kohn-Sham eigenvalues, eigenvectors, occupation numbers, and Fermi level.
  Solving generalized eigenproblem

  Obtaining occupation numbers and chemical potential using ELSI.
  | Chemical potential (Fermi level):    -5.40335794eV
  What follows are estimated values for band gap, HOMO, LUMO, etc.
  | They are estimated on a discrete k-point grid and not necessarily exact.
  | For converged numbers, create a DOS and/or band structure plot on a denser k-grid.

  Highest occupied state (VBM) at     -5.41907488 eV (relative to internal zero)
  | Occupation number:      1.34334936
  | K-point:       1 at    0.000000    0.000000    0.000000 (in units of recip. lattice)

  Lowest unoccupied state (CBM) at    -5.13055796 eV (relative to internal zero)
  | Occupation number:      0.00000000
  | K-point:     615 at    0.500000    0.000000    0.000000 (in units of recip. lattice)

  ESTIMATED overall HOMO-LUMO gap:      0.28851692 eV between HOMO at k-point 1 and LUMO at k-point 615
  | This appears to be an indirect band gap.
  | Smallest direct gap :      0.82217903 eV for k_point 8 at    0.500000    0.000000    0.000000 (in units of recip. lattice)
  However, this system has fractional occupation numbers. Since we use a finite k-point grid,
  this material is metallic within the approximate finite broadening function (occupation_type)
  applied to determine the occupation numbers.

  Total energy components:
  | Sum of eigenvalues            :        -327.32236590 Ha       -8906.89475387 eV
  | XC energy correction          :         -39.51899058 Ha       -1075.36644777 eV
  | XC potential correction       :          52.21218552 Ha        1420.76585579 eV
  | Free-atom electrostatic energy:        -263.94399149 Ha       -7182.28143891 eV
  | Hartree energy correction     :          -0.12239025 Ha          -3.33040824 eV
  | Entropy correction            :          -0.00000086 Ha          -0.00002327 eV
  | ---------------------------
  | Total energy                  :        -578.69555270 Ha      -15747.10719300 eV
  | Total energy, T -> 0          :        -578.69555356 Ha      -15747.10721627 eV  <-- do not rely on this value for anything but (periodic) metals
  | Electronic free energy        :        -578.69555441 Ha      -15747.10723954 eV

  Derived energy quantities:
  | Kinetic energy                :         579.13355136 Ha       15759.02574295 eV
  | Electrostatic energy          :       -1118.31011348 Ha      -30430.76648818 eV
  | Energy correction for multipole
  | error in Hartree potential    :           0.00625021 Ha           0.17007699 eV
  | Sum of eigenvalues per atom                           :       -4453.44737694 eV
  | Total energy (T->0) per atom                          :       -7873.55360814 eV  <-- do not rely on this value for anything but (periodic) metals
  | Electronic free energy per atom                       :       -7873.55361977 eV

  Self-consistency convergence accuracy:
  | Change of charge density      :  0.2467E-01
  | Change of sum of eigenvalues  : -0.6206E+01 eV
  | Change of total energy        :  0.9169E-02 eV

  End self-consistency iteration #     5       :  max(cpu_time)    wall_clock(cpu1)
  | Time for this iteration                    :        1.820 s           1.820 s
  | Charge density update                      :        0.574 s           0.574 s
  | Density mixing & preconditioning           :        0.041 s           0.040 s
  | Hartree multipole update                   :        0.001 s           0.001 s
  | Hartree multipole summation                :        0.423 s           0.423 s
  | Integration                                :        0.315 s           0.314 s
  | Solution of K.-S. eqns.                    :        0.467 s           0.468 s
  | Total energy evaluation                    :        0.000 s           0.000 s

  Partial memory accounting:
  | Current value for overall tracked memory usage on task 0  :          10.570 MB
  | Peak value for overall tracked memory usage on task 0     :          12.368 MB after allocating wave
  | Largest tracked array allocation on task 0 so far         :           9.999 MB  when allocating +KS_eigenvector_complex
  Note:  These values currently only include a subset of arrays which are explicitly tracked.
  The "true" memory usage will be greater.
------------------------------------------------------------

------------------------------------------------------------
          Begin self-consistency iteration #    6

  Date     :  20190514, Time     :  124112.707
------------------------------------------------------------
  Evaluating new KS density using the density matrix
  Evaluating density matrix
  Time summed over all CPUs for getting density from density matrix: real work        0.523 s, elapsed        0.523 s
  Integration grid: deviation in total charge (<rho> - N_e) =   8.203216E-12
  Pulay mixing of updated and previous charge densities.

  Evaluating partitioned Hartree potential by multipole expansion.
  | Analytical far-field extrapolation by fixed multipoles:
  | Hartree multipole sum: apparent total charge =   0.657927E-02
  Summing up the Hartree potential.
  Time summed over all CPUs for potential: real work        0.420 s, elapsed        0.420 s
  | RMS charge density error from multipole expansion :   0.536250E-02
  | Average real-space part of the electrostatic potential :      0.07556046 eV

  Integrating Hamiltonian matrix: batch-based integration.
  Time summed over all CPUs for integration: real work        0.316 s, elapsed        0.316 s

  Updating Kohn-Sham eigenvalues, eigenvectors, occupation numbers, and Fermi level.
  Solving generalized eigenproblem

  Obtaining occupation numbers and chemical potential using ELSI.
  | Chemical potential (Fermi level):    -5.41856957eV
  What follows are estimated values for band gap, HOMO, LUMO, etc.
  | They are estimated on a discrete k-point grid and not necessarily exact.
  | For converged numbers, create a DOS and/or band structure plot on a denser k-grid.

  Highest occupied state (VBM) at     -5.43429821 eV (relative to internal zero)
  | Occupation number:      1.34358843
  | K-point:       1 at    0.000000    0.000000    0.000000 (in units of recip. lattice)

  Lowest unoccupied state (CBM) at    -5.13992379 eV (relative to internal zero)
  | Occupation number:      0.00000000
  | K-point:     615 at    0.500000    0.000000    0.000000 (in units of recip. lattice)

  ESTIMATED overall HOMO-LUMO gap:      0.29437442 eV between HOMO at k-point 1 and LUMO at k-point 615
  | This appears to be an indirect band gap.
  | Smallest direct gap :      0.82365333 eV for k_point 8 at    0.500000    0.000000    0.000000 (in units of recip. lattice)
  However, this system has fractional occupation numbers. Since we use a finite k-point grid,
  this material is metallic within the approximate finite broadening function (occupation_type)
  applied to determine the occupation numbers.

  Total energy components:
  | Sum of eigenvalues            :        -327.33140671 Ha       -8907.14076695 eV
  | XC energy correction          :         -39.51780722 Ha       -1075.33424682 eV
  | XC potential correction       :          52.21063358 Ha        1420.72362535 eV
  | Free-atom electrostatic energy:        -263.94399149 Ha       -7182.28143891 eV
  | Hartree energy correction     :          -0.11296542 Ha          -3.07394560 eV
  | Entropy correction            :          -0.00000086 Ha          -0.00002329 eV
  | ---------------------------
  | Total energy                  :        -578.69553726 Ha      -15747.10677293 eV
  | Total energy, T -> 0          :        -578.69553812 Ha      -15747.10679622 eV  <-- do not rely on this value for anything but (periodic) metals
  | Electronic free energy        :        -578.69553898 Ha      -15747.10681951 eV

  Derived energy quantities:
  | Kinetic energy                :         579.14265025 Ha       15759.27333619 eV
  | Electrostatic energy          :       -1118.32038029 Ha      -30431.04586230 eV
  | Energy correction for multipole
  | error in Hartree potential    :           0.00596961 Ha           0.16244122 eV
  | Sum of eigenvalues per atom                           :       -4453.57038347 eV
  | Total energy (T->0) per atom                          :       -7873.55339811 eV  <-- do not rely on this value for anything but (periodic) metals
  | Electronic free energy per atom                       :       -7873.55340976 eV

  Self-consistency convergence accuracy:
  | Change of charge density      :  0.1143E-01
  | Change of sum of eigenvalues  : -0.2460E+00 eV
  | Change of total energy        :  0.4201E-03 eV

  End self-consistency iteration #     6       :  max(cpu_time)    wall_clock(cpu1)
  | Time for this iteration                    :        1.833 s           1.833 s
  | Charge density update                      :        0.574 s           0.574 s
  | Density mixing & preconditioning           :        0.042 s           0.042 s
  | Hartree multipole update                   :        0.001 s           0.001 s
  | Hartree multipole summation                :        0.424 s           0.424 s
  | Integration                                :        0.316 s           0.316 s
  | Solution of K.-S. eqns.                    :        0.476 s           0.476 s
  | Total energy evaluation                    :        0.000 s           0.000 s

  Partial memory accounting:
  | Current value for overall tracked memory usage on task 0  :          10.571 MB
  | Peak value for overall tracked memory usage on task 0     :          12.368 MB after allocating wave
  | Largest tracked array allocation on task 0 so far         :           9.999 MB  when allocating +KS_eigenvector_complex
  Note:  These values currently only include a subset of arrays which are explicitly tracked.
  The "true" memory usage will be greater.
------------------------------------------------------------

------------------------------------------------------------
          Begin self-consistency iteration #    7

  Date     :  20190514, Time     :  124114.540
------------------------------------------------------------
  Evaluating new KS density using the density matrix
  Evaluating density matrix
  Time summed over all CPUs for getting density from density matrix: real work        0.520 s, elapsed        0.520 s
  Integration grid: deviation in total charge (<rho> - N_e) =   8.299139E-12
  Pulay mixing of updated and previous charge densities.

  Evaluating partitioned Hartree potential by multipole expansion.
  | Analytical far-field extrapolation by fixed multipoles:
  | Hartree multipole sum: apparent total charge =   0.215920E-02
  Summing up the Hartree potential.
  Time summed over all CPUs for potential: real work        0.418 s, elapsed        0.418 s
  | RMS charge density error from multipole expansion :   0.552950E-02
  | Average real-space part of the electrostatic potential :      0.07054179 eV

  Integrating Hamiltonian matrix: batch-based integration.
  Time summed over all CPUs for integration: real work        0.317 s, elapsed        0.317 s

  Updating Kohn-Sham eigenvalues, eigenvectors, occupation numbers, and Fermi level.
  Solving generalized eigenproblem

  Obtaining occupation numbers and chemical potential using ELSI.
  | Chemical potential (Fermi level):    -5.43774633eV
  What follows are estimated values for band gap, HOMO, LUMO, etc.
  | They are estimated on a discrete k-point grid and not necessarily exact.
  | For converged numbers, create a DOS and/or band structure plot on a denser k-grid.

  Highest occupied state (VBM) at     -5.45348349 eV (relative to internal zero)
  | Occupation number:      1.34376259
  | K-point:       1 at    0.000000    0.000000    0.000000 (in units of recip. lattice)

  Lowest unoccupied state (CBM) at    -5.15934317 eV (relative to internal zero)
  | Occupation number:      0.00000000
  | K-point:       6 at    0.000000    0.000000    0.500000 (in units of recip. lattice)

  ESTIMATED overall HOMO-LUMO gap:      0.29414032 eV between HOMO at k-point 1 and LUMO at k-point 6
  | This appears to be an indirect band gap.
  | Smallest direct gap :      0.81717226 eV for k_point 868 at    0.000000    0.000000    0.500000 (in units of recip. lattice)
  However, this system has fractional occupation numbers. Since we use a finite k-point grid,
  this material is metallic within the approximate finite broadening function (occupation_type)
  applied to determine the occupation numbers.

  Total energy components:
  | Sum of eigenvalues            :        -327.46525906 Ha       -8910.78307464 eV
  | XC energy correction          :         -39.50655690 Ha       -1075.02811011 eV
  | XC potential correction       :          52.19570062 Ha        1420.31727891 eV
  | Free-atom electrostatic energy:        -263.94399149 Ha       -7182.28143891 eV
  | Hartree energy correction     :           0.02465945 Ha           0.67101774 eV
  | Entropy correction            :          -0.00000086 Ha          -0.00002331 eV
  | ---------------------------
  | Total energy                  :        -578.69544738 Ha      -15747.10432701 eV
  | Total energy, T -> 0          :        -578.69544823 Ha      -15747.10435031 eV  <-- do not rely on this value for anything but (periodic) metals
  | Electronic free energy        :        -578.69544909 Ha      -15747.10437362 eV

  Derived energy quantities:
  | Kinetic energy                :         578.97778124 Ha       15754.78702230 eV
  | Electrostatic energy          :       -1118.16667172 Ha      -30426.86323920 eV
  | Energy correction for multipole
  | error in Hartree potential    :           0.00597455 Ha           0.16257574 eV
  | Sum of eigenvalues per atom                           :       -4455.39153732 eV
  | Total energy (T->0) per atom                          :       -7873.55217516 eV  <-- do not rely on this value for anything but (periodic) metals
  | Electronic free energy per atom                       :       -7873.55218681 eV

  Self-consistency convergence accuracy:
  | Change of charge density      :  0.1130E-01
  | Change of sum of eigenvalues  : -0.3642E+01 eV
  | Change of total energy        :  0.2446E-02 eV

  End self-consistency iteration #     7       :  max(cpu_time)    wall_clock(cpu1)
  | Time for this iteration                    :        1.827 s           1.827 s
  | Charge density update                      :        0.570 s           0.570 s
  | Density mixing & preconditioning           :        0.040 s           0.040 s
  | Hartree multipole update                   :        0.001 s           0.001 s
  | Hartree multipole summation                :        0.421 s           0.422 s
  | Integration                                :        0.317 s           0.317 s
  | Solution of K.-S. eqns.                    :        0.477 s           0.477 s
  | Total energy evaluation                    :        0.000 s           0.000 s

  Partial memory accounting:
  | Current value for overall tracked memory usage on task 0  :          10.571 MB
  | Peak value for overall tracked memory usage on task 0     :          12.368 MB after allocating wave
  | Largest tracked array allocation on task 0 so far         :           9.999 MB  when allocating +KS_eigenvector_complex
  Note:  These values currently only include a subset of arrays which are explicitly tracked.
  The "true" memory usage will be greater.
------------------------------------------------------------

------------------------------------------------------------
          Begin self-consistency iteration #    8

  Date     :  20190514, Time     :  124116.368
------------------------------------------------------------
  Evaluating new KS density using the density matrix
  Evaluating density matrix
  Time summed over all CPUs for getting density from density matrix: real work        0.519 s, elapsed        0.519 s
  Integration grid: deviation in total charge (<rho> - N_e) =   8.320455E-12
  Pulay mixing of updated and previous charge densities.

  Evaluating partitioned Hartree potential by multipole expansion.
  | Analytical far-field extrapolation by fixed multipoles:
  | Hartree multipole sum: apparent total charge =   0.182193E-02
  Summing up the Hartree potential.
  Time summed over all CPUs for potential: real work        0.422 s, elapsed        0.422 s
  | RMS charge density error from multipole expansion :   0.553000E-02
  | Average real-space part of the electrostatic potential :      0.06935599 eV

  Integrating Hamiltonian matrix: batch-based integration.
  Time summed over all CPUs for integration: real work        0.313 s, elapsed        0.313 s

  Updating Kohn-Sham eigenvalues, eigenvectors, occupation numbers, and Fermi level.
  Solving generalized eigenproblem

  Obtaining occupation numbers and chemical potential using ELSI.
  | Chemical potential (Fermi level):    -5.44056438eV
  What follows are estimated values for band gap, HOMO, LUMO, etc.
  | They are estimated on a discrete k-point grid and not necessarily exact.
  | For converged numbers, create a DOS and/or band structure plot on a denser k-grid.

  Highest occupied state (VBM) at     -5.45630317 eV (relative to internal zero)
  | Occupation number:      1.34379590
  | K-point:       1 at    0.000000    0.000000    0.000000 (in units of recip. lattice)

  Lowest unoccupied state (CBM) at    -5.16179877 eV (relative to internal zero)
  | Occupation number:      0.00000000
  | K-point:     615 at    0.500000    0.000000    0.000000 (in units of recip. lattice)

  ESTIMATED overall HOMO-LUMO gap:      0.29450440 eV between HOMO at k-point 1 and LUMO at k-point 615
  | This appears to be an indirect band gap.
  | Smallest direct gap :      0.81664553 eV for k_point 868 at    0.500000    0.000000    0.000000 (in units of recip. lattice)
  However, this system has fractional occupation numbers. Since we use a finite k-point grid,
  this material is metallic within the approximate finite broadening function (occupation_type)
  applied to determine the occupation numbers.

  Total energy components:
  | Sum of eigenvalues            :        -327.47854739 Ha       -8911.14466854 eV
  | XC energy correction          :         -39.50539197 Ha       -1074.99641070 eV
  | XC potential correction       :          52.19415629 Ha        1420.27525533 eV
  | Free-atom electrostatic energy:        -263.94399149 Ha       -7182.28143891 eV
  | Hartree energy correction     :           0.03833254 Ha           1.04308139 eV
  | Entropy correction            :          -0.00000086 Ha          -0.00002331 eV
  | ---------------------------
  | Total energy                  :        -578.69544203 Ha      -15747.10418142 eV
  | Total energy, T -> 0          :        -578.69544288 Ha      -15747.10420473 eV  <-- do not rely on this value for anything but (periodic) metals
  | Electronic free energy        :        -578.69544374 Ha      -15747.10422804 eV

  Derived energy quantities:
  | Kinetic energy                :         578.96252353 Ha       15754.37183873 eV
  | Electrostatic energy          :       -1118.15257358 Ha      -30426.47960945 eV
  | Energy correction for multipole
  | error in Hartree potential    :           0.00595537 Ha           0.16205382 eV
  | Sum of eigenvalues per atom                           :       -4455.57233427 eV
  | Total energy (T->0) per atom                          :       -7873.55210237 eV  <-- do not rely on this value for anything but (periodic) metals
  | Electronic free energy per atom                       :       -7873.55211402 eV

  Self-consistency convergence accuracy:
  | Change of charge density      :  0.3295E-02
  | Change of sum of eigenvalues  : -0.3616E+00 eV
  | Change of total energy        :  0.1456E-03 eV

  End self-consistency iteration #     8       :  max(cpu_time)    wall_clock(cpu1)
  | Time for this iteration                    :        1.823 s           1.823 s
  | Charge density update                      :        0.569 s           0.568 s
  | Density mixing & preconditioning           :        0.041 s           0.041 s
  | Hartree multipole update                   :        0.001 s           0.001 s
  | Hartree multipole summation                :        0.425 s           0.425 s
  | Integration                                :        0.313 s           0.313 s
  | Solution of K.-S. eqns.                    :        0.474 s           0.474 s
  | Total energy evaluation                    :        0.000 s           0.001 s

  Partial memory accounting:
  | Current value for overall tracked memory usage on task 0  :          10.571 MB
  | Peak value for overall tracked memory usage on task 0     :          12.368 MB after allocating wave
  | Largest tracked array allocation on task 0 so far         :           9.999 MB  when allocating +KS_eigenvector_complex
  Note:  These values currently only include a subset of arrays which are explicitly tracked.
  The "true" memory usage will be greater.
------------------------------------------------------------

------------------------------------------------------------
          Begin self-consistency iteration #    9

  Date     :  20190514, Time     :  124118.191
------------------------------------------------------------
  Evaluating new KS density using the density matrix
  Evaluating density matrix
  Time summed over all CPUs for getting density from density matrix: real work        0.529 s, elapsed        0.529 s
  Integration grid: deviation in total charge (<rho> - N_e) =   8.540724E-12
  Pulay mixing of updated and previous charge densities.

  Evaluating partitioned Hartree potential by multipole expansion.
  | Analytical far-field extrapolation by fixed multipoles:
  | Hartree multipole sum: apparent total charge =   0.204845E-02
  Summing up the Hartree potential.
  Time summed over all CPUs for potential: real work        0.420 s, elapsed        0.420 s
  | RMS charge density error from multipole expansion :   0.550203E-02
  | Average real-space part of the electrostatic potential :      0.06075616 eV

  Integrating Hamiltonian matrix: batch-based integration.
  Time summed over all CPUs for integration: real work        0.319 s, elapsed        0.319 s

  Updating Kohn-Sham eigenvalues, eigenvectors, occupation numbers, and Fermi level.
  Solving generalized eigenproblem

  Obtaining occupation numbers and chemical potential using ELSI.
  | Chemical potential (Fermi level):    -5.45127844eV
  What follows are estimated values for band gap, HOMO, LUMO, etc.
  | They are estimated on a discrete k-point grid and not necessarily exact.
  | For converged numbers, create a DOS and/or band structure plot on a denser k-grid.

  Highest occupied state (VBM) at     -5.46702433 eV (relative to internal zero)
  | Occupation number:      1.34394116
  | K-point:       1 at    0.000000    0.000000    0.000000 (in units of recip. lattice)

  Lowest unoccupied state (CBM) at    -5.17040599 eV (relative to internal zero)
  | Occupation number:      0.00000000
  | K-point:     615 at    0.500000    0.000000    0.000000 (in units of recip. lattice)

  ESTIMATED overall HOMO-LUMO gap:      0.29661834 eV between HOMO at k-point 1 and LUMO at k-point 615
  | This appears to be an indirect band gap.
  | Smallest direct gap :      0.81522056 eV for k_point 8 at    0.500000    0.000000    0.000000 (in units of recip. lattice)
  However, this system has fractional occupation numbers. Since we use a finite k-point grid,
  this material is metallic within the approximate finite broadening function (occupation_type)
[...]
  | Largest tracked array allocation on task 0 so far         :           9.999 MB  when allocating +KS_eigenvector_complex
  Note:  These values currently only include a subset of arrays which are explicitly tracked.
  The "true" memory usage will be greater.
------------------------------------------------------------

------------------------------------------------------------
          Begin self-consistency iteration #   11

  Date     :  20190514, Time     :  124121.849
------------------------------------------------------------
  Evaluating new KS density using the density matrix
  Evaluating density matrix
  Time summed over all CPUs for getting density from density matrix: real work        0.525 s, elapsed        0.525 s
  Integration grid: deviation in total charge (<rho> - N_e) =   8.345324E-12
  Pulay mixing of updated and previous charge densities.

  Evaluating partitioned Hartree potential by multipole expansion.
  | Analytical far-field extrapolation by fixed multipoles:
  | Hartree multipole sum: apparent total charge =   0.211651E-02
  Summing up the Hartree potential.
  Time summed over all CPUs for potential: real work        0.419 s, elapsed        0.419 s
  | RMS charge density error from multipole expansion :   0.550329E-02
  | Average real-space part of the electrostatic potential :      0.06006215 eV

  Integrating Hamiltonian matrix: batch-based integration.
  Time summed over all CPUs for integration: real work        0.317 s, elapsed        0.317 s

  Updating Kohn-Sham eigenvalues, eigenvectors, occupation numbers, and Fermi level.
  Solving generalized eigenproblem

  Obtaining occupation numbers and chemical potential using ELSI.
  | Chemical potential (Fermi level):    -5.45187533eV
  What follows are estimated values for band gap, HOMO, LUMO, etc.
  | They are estimated on a discrete k-point grid and not necessarily exact.
  | For converged numbers, create a DOS and/or band structure plot on a denser k-grid.

  Highest occupied state (VBM) at     -5.46762160 eV (relative to internal zero)
  | Occupation number:      1.34394897
  | K-point:       1 at    0.000000    0.000000    0.000000 (in units of recip. lattice)

  Lowest unoccupied state (CBM) at    -5.17090874 eV (relative to internal zero)
  | Occupation number:      0.00000000
  | K-point:      53 at    0.000000    0.500000    0.000000 (in units of recip. lattice)

  ESTIMATED overall HOMO-LUMO gap:      0.29671286 eV between HOMO at k-point 1 and LUMO at k-point 53
  | This appears to be an indirect band gap.
  | Smallest direct gap :      0.81509403 eV for k_point 868 at    0.000000    0.500000    0.000000 (in units of recip. lattice)
  However, this system has fractional occupation numbers. Since we use a finite k-point grid,
  this material is metallic within the approximate finite broadening function (occupation_type)
  applied to determine the occupation numbers.

  Total energy components:
  | Sum of eigenvalues            :        -327.52361630 Ha       -8912.37105604 eV
  | XC energy correction          :         -39.50090937 Ha       -1074.87443287 eV
  | XC potential correction       :          52.18822589 Ha        1420.11388093 eV
  | Free-atom electrostatic energy:        -263.94399149 Ha       -7182.28143891 eV
  | Hartree energy correction     :           0.08486172 Ha           2.30920498 eV
  | Entropy correction            :          -0.00000086 Ha          -0.00002332 eV
  | ---------------------------
  | Total energy                  :        -578.69542955 Ha      -15747.10384190 eV
  | Total energy, T -> 0          :        -578.69543041 Ha      -15747.10386522 eV  <-- do not rely on this value for anything but (periodic) metals
  | Electronic free energy        :        -578.69543126 Ha      -15747.10388854 eV

  Derived energy quantities:
  | Kinetic energy                :         578.91253335 Ha       15753.01153697 eV
  | Electrostatic energy          :       -1118.10705354 Ha      -30425.24094600 eV
  | Energy correction for multipole
  | error in Hartree potential    :           0.00585301 Ha           0.15926858 eV
  | Sum of eigenvalues per atom                           :       -4456.18552802 eV
  | Total energy (T->0) per atom                          :       -7873.55193261 eV  <-- do not rely on this value for anything but (periodic) metals
  | Electronic free energy per atom                       :       -7873.55194427 eV

  Self-consistency convergence accuracy:
  | Change of charge density      :  0.1021E-03
  | Change of sum of eigenvalues  : -0.1944E-01 eV
  | Change of total energy        :  0.3398E-07 eV

  End self-consistency iteration #    11       :  max(cpu_time)    wall_clock(cpu1)
  | Time for this iteration                    :        1.828 s           1.828 s
  | Charge density update                      :        0.575 s           0.575 s
  | Density mixing & preconditioning           :        0.040 s           0.040 s
  | Hartree multipole update                   :        0.001 s           0.001 s
  | Hartree multipole summation                :        0.422 s           0.422 s
  | Integration                                :        0.317 s           0.317 s
  | Solution of K.-S. eqns.                    :        0.472 s           0.473 s
  | Total energy evaluation                    :        0.000 s           0.000 s

  Partial memory accounting:
  | Current value for overall tracked memory usage on task 0  :          10.571 MB
  | Peak value for overall tracked memory usage on task 0     :          12.368 MB after allocating wave
  | Largest tracked array allocation on task 0 so far         :           9.999 MB  when allocating +KS_eigenvector_complex
  Note:  These values currently only include a subset of arrays which are explicitly tracked.
  The "true" memory usage will be greater.
------------------------------------------------------------

------------------------------------------------------------
          Begin self-consistency iteration #   12

  Date     :  20190514, Time     :  124123.677
------------------------------------------------------------
  Evaluating new KS density using the density matrix
  Evaluating density matrix
  Time summed over all CPUs for getting density from density matrix: real work        0.526 s, elapsed        0.527 s
  Integration grid: deviation in total charge (<rho> - N_e) =   8.384404E-12
  Pulay mixing of updated and previous charge densities.

  Evaluating partitioned Hartree potential by multipole expansion.
  | Analytical far-field extrapolation by fixed multipoles:
  | Hartree multipole sum: apparent total charge =   0.211645E-02
  Summing up the Hartree potential.
  Time summed over all CPUs for potential: real work        0.424 s, elapsed        0.424 s
  | RMS charge density error from multipole expansion :   0.550329E-02
  | Average real-space part of the electrostatic potential :      0.06006447 eV

  Integrating Hamiltonian matrix: batch-based integration.
  Time summed over all CPUs for integration: real work        0.316 s, elapsed        0.316 s

  Updating Kohn-Sham eigenvalues, eigenvectors, occupation numbers, and Fermi level.
  Solving generalized eigenproblem

  Obtaining occupation numbers and chemical potential using ELSI.
  | Chemical potential (Fermi level):    -5.45187215eV
  What follows are estimated values for band gap, HOMO, LUMO, etc.
  | They are estimated on a discrete k-point grid and not necessarily exact.
  | For converged numbers, create a DOS and/or band structure plot on a denser k-grid.

  Highest occupied state (VBM) at     -5.46761843 eV (relative to internal zero)
  | Occupation number:      1.34394893
  | K-point:       1 at    0.000000    0.000000    0.000000 (in units of recip. lattice)

  Lowest unoccupied state (CBM) at    -5.17090615 eV (relative to internal zero)
  | Occupation number:      0.00000000
  | K-point:       6 at    0.000000    0.000000    0.500000 (in units of recip. lattice)

  ESTIMATED overall HOMO-LUMO gap:      0.29671228 eV between HOMO at k-point 1 and LUMO at k-point 6
  | This appears to be an indirect band gap.
  | Smallest direct gap :      0.81509458 eV for k_point 8 at    0.000000    0.000000    0.500000 (in units of recip. lattice)
  However, this system has fractional occupation numbers. Since we use a finite k-point grid,
  this material is metallic within the approximate finite broadening function (occupation_type)
  applied to determine the occupation numbers.

  Total energy components:
  | Sum of eigenvalues            :        -327.52360198 Ha       -8912.37066642 eV
  | XC energy correction          :         -39.50091075 Ha       -1074.87447052 eV
  | XC potential correction       :          52.18822772 Ha        1420.11393077 eV
  | Free-atom electrostatic energy:        -263.94399149 Ha       -7182.28143891 eV
  | Hartree energy correction     :           0.08484695 Ha           2.30880311 eV
  | Entropy correction            :          -0.00000086 Ha          -0.00002332 eV
  | ---------------------------
  | Total energy                  :        -578.69542955 Ha      -15747.10384197 eV
  | Total energy, T -> 0          :        -578.69543041 Ha      -15747.10386529 eV  <-- do not rely on this value for anything but (periodic) metals
  | Electronic free energy        :        -578.69543127 Ha      -15747.10388862 eV

  Derived energy quantities:
  | Kinetic energy                :         578.91254840 Ha       15753.01194643 eV
  | Electrostatic energy          :       -1118.10706720 Ha      -30425.24131788 eV
  | Energy correction for multipole
  | error in Hartree potential    :           0.00585302 Ha           0.15926878 eV
  | Sum of eigenvalues per atom                           :       -4456.18533321 eV
  | Total energy (T->0) per atom                          :       -7873.55193265 eV  <-- do not rely on this value for anything but (periodic) metals
  | Electronic free energy per atom                       :       -7873.55194431 eV

  Self-consistency convergence accuracy:
  | Change of charge density      :  0.6566E-06
  | Change of sum of eigenvalues  :  0.3896E-03 eV
  | Change of total energy        : -0.7252E-07 eV

  Preliminary charge convergence reached. Turning off preconditioner.

  Writing Kohn-Sham eigenvalues.
  K-point:       1 at    0.000000    0.000000    0.000000 (in units of recip. lattice)

  State    Occupation    Eigenvalue [Ha]    Eigenvalue [eV]
      1       2.00000         -65.508713        -1782.58278
      2       2.00000         -65.508713        -1782.58278
      3       2.00000          -5.103867         -138.88328
      4       2.00000          -5.103818         -138.88196
      5       2.00000          -3.518058          -95.73124
      6       2.00000          -3.518058          -95.73124
      7       2.00000          -3.518058          -95.73124
      8       2.00000          -3.517918          -95.72743
      9       2.00000          -3.517918          -95.72743
     10       2.00000          -3.517918          -95.72743
     11       2.00000          -0.565766          -15.39527
     12       2.00000          -0.209676           -5.70558
     13       1.34395          -0.200931           -5.46762
     14       1.34395          -0.200931           -5.46762
     15       1.34395          -0.200931           -5.46762
     16       0.00000          -0.115401           -3.14022
     17       0.00000          -0.115401           -3.14022
     18       0.00000          -0.115401           -3.14022
     19       0.00000           0.089338            2.43102
     20       0.00000           0.089338            2.43102

  What follows are estimated values for band gap, HOMO, LUMO, etc.
  | They are estimated on a discrete k-point grid and not necessarily exact.
  | For converged numbers, create a DOS and/or band structure plot on a denser k-grid.

  Highest occupied state (VBM) at     -5.46761843 eV (relative to internal zero)
  | Occupation number:      1.34394893
  | K-point:       1 at    0.000000    0.000000    0.000000 (in units of recip. lattice)

  Lowest unoccupied state (CBM) at    -5.17090615 eV (relative to internal zero)
  | Occupation number:      0.00000000
  | K-point:       6 at    0.000000    0.000000    0.500000 (in units of recip. lattice)

  ESTIMATED overall HOMO-LUMO gap:      0.29671228 eV between HOMO at k-point 1 and LUMO at k-point 6
  | This appears to be an indirect band gap.
  | Smallest direct gap :      0.81509458 eV for k_point 8 at    0.000000    0.000000    0.500000 (in units of recip. lattice)
  However, this system has fractional occupation numbers. Since we use a finite k-point grid,
  this material is metallic within the approximate finite broadening function (occupation_type)
  applied to determine the occupation numbers.

  Self-consistency cycle converged.

  End self-consistency iteration #    12       :  max(cpu_time)    wall_clock(cpu1)
  | Time for this iteration                    :        1.837 s           1.838 s
  | Charge density update                      :        0.577 s           0.578 s
  | Density mixing                             :        0.041 s           0.041 s
  | Hartree multipole update                   :        0.001 s           0.000 s
  | Hartree multipole summation                :        0.427 s           0.428 s
  | Integration                                :        0.317 s           0.316 s
  | Solution of K.-S. eqns.                    :        0.474 s           0.474 s
  | Total energy evaluation                    :        0.000 s           0.000 s

  Partial memory accounting:
  | Current value for overall tracked memory usage on task 0  :          10.571 MB
  | Peak value for overall tracked memory usage on task 0     :          12.368 MB after allocating wave
  | Largest tracked array allocation on task 0 so far         :           9.999 MB  when allocating +KS_eigenvector_complex
  Note:  These values currently only include a subset of arrays which are explicitly tracked.
  The "true" memory usage will be greater.
------------------------------------------------------------

  Energy and forces in a compact form:
  | Total energy uncorrected      :         -0.157471038419727E+05 eV
  | Total energy corrected        :         -0.157471038652939E+05 eV  <-- do not rely on this value for anything but (periodic) metals
  | Electronic free energy        :         -0.157471038886152E+05 eV

  ------------------------------------ 
  Start decomposition of the XC Energy 
  ------------------------------------ 
  X and C from original XC functional choice 
  Hartree-Fock Energy :          0.000000000 Ha              0.000000000 eV
  X Energy            :        -37.370300693 Ha          -1016.897621033 eV
  C Energy            :         -2.130610057 Ha            -57.976849491 eV
  Total XC Energy     :        -39.500910750 Ha          -1074.874470524 eV
  ------------------------------------ 
  LDA X and C from self-consistent density 
  X Energy LDA        :        -37.370300693 Ha          -1016.897621033 eV
  C Energy LDA        :         -2.130610057 Ha            -57.976849491 eV
  ------------------------------------ 
  End decomposition of the XC Energy 
  ------------------------------------ 

------------------------------------------------------------

------------------------------------------------------------------------------
  Final output of selected total energy values:

  The following output summarizes some interesting total energy values
  at the end of a run (AFTER all relaxation, molecular dynamics, etc.).

  | Total energy of the DFT / Hartree-Fock s.c.f. calculation      :         -15747.103841973 eV
  | Final zero-broadening corrected energy (caution - metals only) :         -15747.103865294 eV
  | For reference only, the value of 1 Hartree used in FHI-aims is :             27.211384500 eV

  Before relying on these values, please be sure to understand exactly which
  total energy value is referred to by a given number. Different objects may
  all carry the same name 'total energy'. Definitions:

  Total energy of the DFT / Hartree-Fock s.c.f. calculation:
  | Note that this energy does not include ANY quantities calculated after the
  | s.c.f. cycle, in particular not ANY RPA, MP2, etc. many-body perturbation terms.

  Final zero-broadening corrected energy:
  | For metallic systems only, a broadening of the occupation numbers at the Fermi
  | level can be extrapolated back to zero broadening by an electron-gas inspired
  | formula. For all systems that are not real metals, this value can be
  | meaningless and should be avoided.

------------------------------------------------------------------------------
  Methods described in the following list of references were used in this FHI-aims run.
  If you publish the results, please make sure to cite these reference if they apply.
  FHI-aims is an academic code, and for our developers (often, Ph.D. students
  and postdocs), scientific credit in the community is essential.
  Thank you for helping us!

  For any use of FHI-aims, please cite:

    Volker Blum, Ralf Gehrke, Felix Hanke, Paula Havu, Ville Havu,
    Xinguo Ren, Karsten Reuter, and Matthias Scheffler
    'Ab initio molecular simulations with numeric atom-centered orbitals'
    Computer Physics Communications 180, 2175-2196 (2009)
    http://dx.doi.org/10.1016/j.cpc.2009.06.022


  For the real-space grid partitioning and parallelization used in this calculation, please cite:

    Ville Havu, Volker Blum, Paula Havu, and Matthias Scheffler,
    'Efficient O(N) integration for all-electron electronic structure calculation'
    'using numerically tabulated basis functions'
    Journal of Computational Physics 228, 8367-8379 (2009).
    http://dx.doi.org/10.1016/j.jcp.2009.08.008

  Of course, there are many other important community references, e.g., those cited in the
  above references. Our list is limited to references that describe implementations in the
  FHI-aims code. The reason is purely practical (length of this list) - please credit others as well.

------------------------------------------------------------
          Leaving FHI-aims.
          Date     :  20190514, Time     :  124125.523

          Computational steps:
          | Number of self-consistency cycles          :           12
          | Number of SCF (re)initializations          :            1

          Detailed time accounting                     :  max(cpu_time)    wall_clock(cpu1)
          | Total time                                 :       23.655 s          23.656 s
          | Preparation time                           :        0.092 s           0.092 s
          | Boundary condition initalization           :        0.049 s           0.049 s
          | Grid partitioning                          :        0.024 s           0.023 s
          | Preloading free-atom quantities on grid    :        0.001 s           0.001 s
          | Free-atom superposition energy             :        0.023 s           0.023 s
          | Total time for integrations                :        4.344 s           4.344 s
          | Total time for solution of K.-S. equations :        6.631 s           6.633 s
          | Total time for density update              :        6.880 s           6.880 s
          | Total time for mixing & preconditioning    :        0.494 s           0.493 s
          | Total time for Hartree multipole update    :        0.009 s           0.009 s
          | Total time for Hartree multipole sum       :        4.997 s           4.998 s
          | Total time for total energy evaluation     :        0.003 s           0.002 s
          | Total time for scaled ZORA corrections     :        0.000 s           0.000 s

 This is a stub MPI_ALLREDUCE call.
 You should not be here. Check your
 setting on the use_mpi variable, or
 link against true MPI-libraries.
