------------------------------------------------------------
          Invoking FHI-aims ...
          Version 171221_1
          Compiled on 2019/05/06 at 14:26:40 on host ffph0xx.

          When using FHI-aims, please cite the following reference:

          Volker Blum, Ralf Gehrke, Felix Hanke, Paula Havu,
          Ville Havu, Xinguo Ren, Karsten Reuter, and Matthias Scheffler,
          'Ab Initio Molecular Simulations with Numeric Atom-Centered Orbitals',
          Computer Physics Communications 180, 2175-2196 (2009)

          For any questions about FHI-aims, please visit the aimsclub website
          with its forums and wiki. Contributions to both the forums and the
          wiki are warmly encouraged - they are for you, and everyone is welcome there.

------------------------------------------------------------



  Date     :  20190508, Time     :  170351.608
  Time zero on CPU 1             :   0.896000000000000E-03  s.
  Internal wall clock time zero  :           326567031.608  s.

  FHI-aims created a unique identifier for this run for later identification
  aims_uuid : 6CEE0225-B5E8-4891-A82B-248E7491A259


  Performing system and environment tests:
  *** Environment variable OMP_NUM_THREADS is not set
  *** For performance reasons you might want to set it to 1
  | Stacksize not measured: no C compiler

  Obtaining array dimensions for all initial allocations:
  
  -----------------------------------------------------------------------
  Parsing control.in (first pass over file, find array dimensions only).
  The contents of control.in will be repeated verbatim below
  unless switched off by setting 'verbatim_writeout .false.' .
  in the first line of control.in .
  -----------------------------------------------------------------------
  
  # Relaxation of the H3O+ molecule
  #--- Method ---
    xc  pw-lda
    charge 1.0 # this gives the cation
    spin none
  
  #######Iteration limit####################
    sc_iter_limit 100
  
  #######Relaxation######################
    ###relax_geometry trm 1E-3
  
  #######Species#########################
  ################################################################################
  #
  #  FHI-aims code project
  #  VB, Fritz-Haber Institut, 2009
  #
  #  Suggested "light" defaults for H atom (to be pasted into control.in file)
  #  Be sure to double-check any results obtained with these settings for post-processing,
  #  e.g., with the "tight" defaults and larger basis sets.
  #
  ################################################################################
    species        H
  #     global species definitions
      nucleus             1
      mass                1.00794
  #
      l_hartree           4
  #
      cut_pot             3.5  1.5  1.0
      basis_dep_cutoff    1e-4
  #
      radial_base         24 5.0
      radial_multiplier   1
      angular_grids       specified
        division   0.2421   50
        division   0.3822  110
        division   0.4799  194
        division   0.5341  302
  #      division   0.5626  434
  #      division   0.5922  590
  #      division   0.6542  770
  #      division   0.6868 1202
  #      outer_grid  770
        outer_grid  302
  ################################################################################
  #
  #  Definition of "minimal" basis
  #
  ################################################################################
  #     valence basis states
      valence      1  s   1.
  #     ion occupancy
      ion_occ      1  s   0.5
  ################################################################################
  #
  #  Suggested additional basis functions. For production calculations,
  #  uncomment them one after another (the most important basis functions are
  #  listed first).
  #
  #  Basis constructed for dimers: 0.5 A, 0.7 A, 1.0 A, 1.5 A, 2.5 A
  #
  ################################################################################
  #  "First tier" - improvements: -1014.90 meV to -62.69 meV
       hydro 2 s 2.1
       hydro 2 p 3.5
  #  "Second tier" - improvements: -12.89 meV to -1.83 meV
  #     hydro 1 s 0.85
  #     hydro 2 p 3.7
  #     hydro 2 s 1.2
  #     hydro 3 d 7
  #  "Third tier" - improvements: -0.25 meV to -0.12 meV
  #     hydro 4 f 11.2
  #     hydro 3 p 4.8
  #     hydro 4 d 9
  #     hydro 3 s 3.2
  ################################################################################
  #
  #  FHI-aims code project
  #  VB, Fritz-Haber Institut, 2009
  #
  #  Suggested "light" defaults for O atom (to be pasted into control.in file)
  #  Be sure to double-check any results obtained with these settings for post-processing,
  #  e.g., with the "tight" defaults and larger basis sets.
  #
  ################################################################################
    species        O
  #     global species definitions
      nucleus             8
      mass                15.9994
  #
      l_hartree           4
  #
      cut_pot             3.5  1.5  1.0
      basis_dep_cutoff    1e-4
  #
      radial_base         36 5.0
      radial_multiplier   1
       angular_grids specified
        division   0.2659   50
        division   0.4451  110
        division   0.6052  194
        division   0.7543  302
  #      division   0.8014  434
  #      division   0.8507  590
  #      division   0.8762  770
  #      division   0.9023  974
  #      division   1.2339 1202
  #      outer_grid 974
        outer_grid 302
  ################################################################################
  #
  #  Definition of "minimal" basis
  #
  ################################################################################
  #     valence basis states
      valence      2  s   2.
      valence      2  p   4.
  #     ion occupancy
      ion_occ      2  s   1.
      ion_occ      2  p   3.
  ################################################################################
  #
  #  Suggested additional basis functions. For production calculations,
  #  uncomment them one after another (the most important basis functions are
  #  listed first).
  #
  #  Constructed for dimers: 1.0 A, 1.208 A, 1.5 A, 2.0 A, 3.0 A
  #
  ################################################################################
  #  "First tier" - improvements: -699.05 meV to -159.38 meV
       hydro 2 p 1.8
       hydro 3 d 7.6
       hydro 3 s 6.4
  #  "Second tier" - improvements: -49.91 meV to -5.39 meV
  #     hydro 4 f 11.6
  #     hydro 3 p 6.2
  #     hydro 3 d 5.6
  #     hydro 5 g 17.6
  #     hydro 1 s 0.75
  #  "Third tier" - improvements: -2.83 meV to -0.50 meV
  #     ionic 2 p auto
  #     hydro 4 f 10.8
  #     hydro 4 d 4.7
  #     hydro 2 s 6.8
  #  "Fourth tier" - improvements: -0.40 meV to -0.12 meV
  #     hydro 3 p 5
  #     hydro 3 s 3.3
  #     hydro 5 g 15.6
  #     hydro 4 f 17.6
  #     hydro 4 d 14
  # Further basis functions - -0.08 meV and below
  #     hydro 3 s 2.1
  #     hydro 4 d 11.6
  #     hydro 3 p 16
  #     hydro 2 s 17.2
  /afs/ictp.it/public/shared/smr2475/fhi-aims/species_defaults/light/01_H_default
  compute_forces .true.
  final_forces_cleaned .true.
  output dipole
  
  -----------------------------------------------------------------------
  Completed first pass over input file control.in .
  -----------------------------------------------------------------------
  
  
  -----------------------------------------------------------------------
  Parsing geometry.in (first pass over file, find array dimensions only).
  The contents of geometry.in will be repeated verbatim below
  unless switched off by setting 'verbatim_writeout .false.' .
  in the first line of geometry.in .
  -----------------------------------------------------------------------
  
  #
  # temporary structure-file for finite-difference calculation of forces
  # displacement  -0.0020 of \# atom     0 direction     1
  #
  atom   -0.00000000   -0.00202910    0.00000000   O
  atom    0.85488761   -0.49352200   -0.00000000   H
  atom   -0.85488761   -0.49352200   -0.00000000   H
  atom   -0.00000000    0.98707310   -0.00000000   H
  
  -----------------------------------------------------------------------
  Completed first pass over input file geometry.in .
  -----------------------------------------------------------------------
  

  Basic array size parameters:
  | Number of species                 :        2
  | Number of atoms                   :        4
  | Max. basis fn. angular momentum   :        2
  | Max. atomic/ionic basis occupied n:        2
  | Max. number of basis fn. types    :        2
  | Max. radial fns per species/type  :        3
  | Max. logarithmic grid size        :     1301
  | Max. radial integration grid size :       36
  | Max. angular integration grid size:      302
  | Max. angular grid division number :        8
  | Radial grid for Hartree potential :     1301
  | Number of spin channels           :        1

------------------------------------------------------------
          Reading file control.in.
------------------------------------------------------------
  XC: Using Perdew-Wang parametrisation of Ceperley-Alder LDA.
  Charged system requested: Charge =   0.100000E+01.
  Spin treatment: No spin polarisation.
  Maximum number of s.-c. iterations  :   100

  Reading configuration options for species H                   .
  | Found nuclear charge :   1.0000
  | Found atomic mass :    1.0079400000000001      amu
  | Found l_max for Hartree potential  :   4
  | Found cutoff potl. onset [A], width [A], scale factor :    3.50000    1.50000    1.00000
  | Threshold for basis-dependent cutoff potential is   0.100000E-03
  | Found data for basic radial integration grid :    24 points, outermost radius =    5.000 A
  | Found multiplier for basic radial grid :   1
  | Found angular grid specification: user-specified.
  | Specified grid contains     5 separate shells.
  | Check grid settings after all constraints further below.
  | Found free-atom valence shell :  1 s   1.000
  | No ionic wave fns used. Skipping ion_occ.
  | Found hydrogenic basis function :  2 s   2.100
  | Found hydrogenic basis function :  2 p   3.500
  Species H                   : Missing cutoff potential type.
  Defaulting to exp(1/x)/(1-x)^2 type cutoff potential.
  Species H : No 'logarithmic' tag. Using default grid for free atom:
  | Default logarithmic grid data [bohr] : 0.1000E-03 0.1000E+03 0.1012E+01
  Species H : On-site basis accuracy parameter (for Gram-Schmidt orthonormalisation) not specified.
  Using default value basis_acc =  0.1000000E-03.
  Species H                   : Using default innermost maximum threshold i_radial=  2 for radial functions.
  Species H                   : Default cutoff onset for free atom density etc. : 0.35000000E+01 AA.
  Species H                   : Basic radial grid will be enhanced according to radial_multiplier =   1, to contain    24 grid points.

  Reading configuration options for species O                   .
  | Found nuclear charge :   8.0000
  | Found atomic mass :    15.999400000000000      amu
  | Found l_max for Hartree potential  :   4
  | Found cutoff potl. onset [A], width [A], scale factor :    3.50000    1.50000    1.00000
  | Threshold for basis-dependent cutoff potential is   0.100000E-03
  | Found data for basic radial integration grid :    36 points, outermost radius =    5.000 A
  | Found multiplier for basic radial grid :   1
  | Found angular grid specification: user-specified.
  | Specified grid contains     5 separate shells.
  | Check grid settings after all constraints further below.
  | Found free-atom valence shell :  2 s   2.000
  | Found free-atom valence shell :  2 p   4.000
  | No ionic wave fns used. Skipping ion_occ.
  | No ionic wave fns used. Skipping ion_occ.
  | Found hydrogenic basis function :  2 p   1.800
  | Found hydrogenic basis function :  3 d   7.600
  | Found hydrogenic basis function :  3 s   6.400
  Species O                   : Missing cutoff potential type.
  Defaulting to exp(1/x)/(1-x)^2 type cutoff potential.
  Species O : No 'logarithmic' tag. Using default grid for free atom:
  | Default logarithmic grid data [bohr] : 0.1000E-03 0.1000E+03 0.1012E+01
  Species O : On-site basis accuracy parameter (for Gram-Schmidt orthonormalisation) not specified.
  Using default value basis_acc =  0.1000000E-03.
  Species O                   : Using default innermost maximum threshold i_radial=  2 for radial functions.
  Species O                   : Default cutoff onset for free atom density etc. : 0.35000000E+01 AA.
  Species O                   : Basic radial grid will be enhanced according to radial_multiplier =   1, to contain    36 grid points.
  Forces will be computed.
  Cleaning forces before final output.
  Dipole moment will be written out.

  Finished reading input file 'control.in'. Consistency checks are next.

  MPI_IN_PLACE appears to work with this MPI implementation.
  | Keeping use_mpi_in_place .true. (see manual).
  Target number of points in a grid batch is not set. Defaulting to  100
  Method for grid partitioning is not set. Defaulting to 'maxmin' partitioning.
  Batch size limit is not set. Defaulting to    200
  By default, will store active basis functions for each batch.
  If in need of memory, prune_basis_once .false. can be used to disable this option.
  communication_type for Hartree potential was not specified.
  Defaulting to calc_hartree .
 * Attention: 
 * You may want to set distributed_spline_storage to .true. in order to save memory.
 * This doesn't harm performance and is perfectly ok unless:
 * - you get error messages in postprocessing (about missing atoms in get_rho_multipole_spl)
 * - you need full spline storage in hirshfeld_analysis
  Defaulting to Pulay charge density mixer.
  Pulay mixer: Number of relevant iterations not set.
  Defaulting to    8 iterations.
  Pulay mixer: Number of initial linear mixing iterations not set.
  Defaulting to    0 iterations.
  Work space size for distributed Hartree potential not set.
  Defaulting to   0.200000E+03 MB.
  Mixing parameter for charge density mixing has not been set.
  Using default: charge_mix_param =     0.0500.
  The mixing parameter will be adjusted in iteration number     2 of the first full s.c.f. cycle only.
  Algorithm-dependent basis array size parameters:
  | n_max_pulay                         :        8
 * Notice: The s.c.f. convergence criterion sc_accuracy_rho was not provided.
 * We used to stop in this case, and ask the user to provide reasonable
 * scf convergence criteria. However, this led some users to employ criteria
 * that led to extremely long run times, e.g., for simple relaxation.
 * We now preset a default value for sc_accuracy_rho if it is not set.
 * You may still wish to check if this setting is too tight or too loose for your needs.
 * Based on n_atoms, FHI-aims chose sc_accuracy_rho =  0.100000E-05 .
  Presetting      1001 iterations before the initial mixing cycle
  is restarted anyway using the sc_init_iter criterion / keyword.
  Presetting a factor      1.000 between actual scf density residual
  and density convergence criterion sc_accuracy_rho below which sc_init_iter
  takes no effect.
 * No s.c.f. convergence criteria (sc_accuracy_*) were provided in control.in.
 * The run will proceed with a reasonable default guess, but please check whether.
 * the s.c.f. cycles seem to take too much or too little time.
  Geometry relaxation not requested: no relaxation will be performed.
  Force calculation: scf convergence accuracy of forces not set.
  Defaulting to 'sc_accuracy_forces not_checked'.
  Handling of forces: Unphysical translation and rotation will be removed from forces.
  No accuracy limit for integral partition fn. given. Defaulting to  0.1000E-14.
  No threshold value for u(r) in integrations given. Defaulting to  0.1000E-05.
  No occupation type (smearing scheme) given. Defaulting to Gaussian broadening, width =  0.1000E-01 eV.
  The width will be adjusted in iteration number     2 of the first full s.c.f. cycle only.
  S.C.F. convergence parameters will be adjusted in iteration number     2 of the first full s.c.f. cycle only.
  No accuracy for occupation numbers given. Defaulting to  0.1000E-12.
  No threshold value for occupation numbers given. Defaulting to  0.0000E+00.
  No accuracy for fermi level given. Defaulting to  0.1000E-19.
  Maximum # of iterations to find E_F not set. Defaulting to  200.
  Preferred method for the eigenvalue solver ('KS_method') not specified in 'control.in'.
  Defaulting to serial version, 'lapack_fast'.
  Will not use alltoall communication since running on < 1024 CPUs.
  Threshold for basis singularities not set.
  Default threshold for basis singularities:  0.1000E-04
  partition_type (choice of integration weights) for integrals was not specified.
  | Using a version of the partition function of Stratmann and coworkers ('stratmann_smoother').
  | At each grid point, the set of atoms used to build the partition table is smoothly restricted to
  | only those atoms whose free-atom density would be non-zero at that grid point.
  Partitioning for Hartree potential was not defined. Using partition_type for integrals.
  | Adjusted default value of keyword multip_moments_threshold to:       0.10000000E-11
  | This value may affect high angular momentum components of the Hartree potential in periodic systems.
  No q(lm)/r^(l+1) cutoff set for long-range Hartree potential.
  | Using default value of  0.100000E-09 .
  | Verify using the multipole_threshold keyword.
  Defaulting to new monopole extrapolation.
  Density update method: automatic selection selected.
------------------------------------------------------------


------------------------------------------------------------
          Reading geometry description geometry.in.
------------------------------------------------------------
 * Warning: Initial charge and total charge of the system are inconsistent.
 * Selected charge in control.in:     1.0000* Sum of initial charges in geometry.in:     0.0000
 * Warning! You did not set the 'relativistic' flag in input file 'control.in'.
 * Since you are not attempting to treat any elements beyond Ca(Z=20), FHI-aims
 * will default to 'relativistic none'.
 * You must ensure that this is really what you want!!
 * For example, DO NOT compute total-energy differences between results from
 * different settings of the 'relativistic' flag.
  Input structure read successfully.
  The structure contains        4 atoms,  and a total of         10.000 electrons.

  Input geometry:
  | No unit cell requested.
  | Atomic structure:
  |       Atom                x [A]            y [A]            z [A]
  |    1: Species O            -0.00000000       -0.00202910        0.00000000
  |    2: Species H             0.85488761       -0.49352200       -0.00000000
  |    3: Species H            -0.85488761       -0.49352200       -0.00000000
  |    4: Species H            -0.00000000        0.98707310       -0.00000000
  |

  | The smallest distance between any two atoms is         0.98610248 AA.
  |
  | The first atom of this pair is atom number                      1 .
  | The second atom of this pair is atom number                     2 .

  Number of empty states per atom not set in control.in - providing a guess from actual geometry.
  | Total number of empty states used during s.c.f. cycle:        8
  If you use a very high smearing, use empty_states (per atom!) in control.in to increase this value.

  Structure-dependent array size parameters: 
  | Maximum number of distinct radial functions  :        9
  | Maximum number of basis functions            :       29
  | Number of Kohn-Sham states (occupied + empty):       13
------------------------------------------------------------

------------------------------------------------------------
          Preparing all fixed parts of the calculation.
------------------------------------------------------------
  Determining machine precision:
     2.2250738585072014E-308
  Setting up grids for atomic and cluster calculations.

  Creating wave function, potential, and density for free atoms.

  Species: H

  List of occupied orbitals and eigenvalues:
    n    l              occ      energy [Ha]    energy [eV]
    1    0           1.0000        -0.232375        -6.3233


  Species: O

  List of occupied orbitals and eigenvalues:
    n    l              occ      energy [Ha]    energy [eV]
    1    0           2.0000       -18.757744      -510.4242
    2    0           2.0000        -0.870917       -23.6989
    2    1           4.0000        -0.337950        -9.1961

  Creating fixed part of basis set: Ionic, confined, hydrogenic.

  H                    hydrogenic:

  List of hydrogenic basis orbitals: 
    n    l      effective z      eigenvalue [eV]  inner max. [A]     outer max. [A]     outer radius [A]   
    2    0         2.100000       -14.9728           0.193243           1.317208           4.583499
    2    1         3.500000       -41.6669           0.602369           0.602369           3.723403


  O                    hydrogenic:

  List of hydrogenic basis orbitals: 
    n    l      effective z      eigenvalue [eV]  inner max. [A]     outer max. [A]     outer radius [A]   
    2    1         1.800000       -10.9749           1.164242           1.164242           4.578029
    3    2         7.600000       -87.3180           0.624125           0.624125           3.251020
    3    0         6.400000       -61.9207           0.061167           1.081902           4.001998


  Adding cutoff potential to free-atom effective potential.
  Creating atomic-like basis functions for current effective potential.

  Species H                   :

  List of atomic basis orbitals and eigenvalues:
    n    l      energy [Ha]    energy [eV]    outer radius [A]
    1    0        -0.232375        -6.3233       4.527807


  Species O                   :

  List of atomic basis orbitals and eigenvalues:
    n    l      energy [Ha]    energy [eV]    outer radius [A]
    1    0       -18.757744      -510.4242       1.433179
    2    0        -0.870917       -23.6989       4.413171
    2    1        -0.337950        -9.1961       4.522403

  Assembling full basis from fixed parts.
  | Species H :   atomic orbital   1 s accepted.
  | Species H :    hydro orbital   2 s accepted.
  | Species H :    hydro orbital   2 p accepted.
  | Species O :   atomic orbital   1 s accepted.
  | Species O :    hydro orbital   3 s accepted.
  | Species O :   atomic orbital   2 s accepted.
  | Species O :   atomic orbital   2 p accepted.
  | Species O :    hydro orbital   2 p accepted.
  | Species O :    hydro orbital   3 d accepted.

  Basis size parameters after reduction:
  | Total number of radial functions:        9
  | Total number of basis functions :       29

  Per-task memory consumption for arrays in subroutine allocate_ext:
  |           2.249476MB.
  Testing on-site integration grid accuracy.
  |  Species  Function  <phi|h_atom|phi> (log., in eV)  <phi|h_atom|phi> (rad., in eV)
           1        1                 -6.3245358373                 -6.3232436907
           1        2                 14.1326137532                 14.1384481100
           1        3                 25.3627025200                 25.3628451197
           2        4               -510.4241781769               -510.4240769412
           2        5                 14.9072942218                 14.9072945276
           2        6                -21.2004736467                -21.2005650544
           2        7                 -9.1962086499                 -9.1963509828
           2        8                  8.1896755011                  8.1702200086
           2        9                 45.7920584945                 45.7920228528

  Preparing densities etc. for the partition functions (integrals / Hartree potential).

  Preparations completed.
  max(cpu_time)          :      0.047 s.
  Wall clock time (cpu1) :      0.046 s.
------------------------------------------------------------

------------------------------------------------------------
          Begin self-consistency loop: Initialization.

          Date     :  20190508, Time     :  170351.656
------------------------------------------------------------

  Initializing index lists of integration centers etc. from given atomic structure:
  | Number of centers in hartree potential         :         4
  | Number of centers in hartree multipole         :         4
  | Number of centers in electron density summation:         4
  | Number of centers in basis integrals           :         4
  | Number of centers in integrals                 :         4
  | Number of centers in hamiltonian               :         4
  Partitioning the integration grid into batches with maxmin method.
  | Maximal weight for a single point:     1.000
  | Minimal weight for a single point:     0.000
  | Number of batches:      256
  | Maximal batch size:      90
  | Minimal batch size:      72
  | Average batch size:      80.719
  | Standard deviation of batch sizes:       6.452
  Initializing partition tables, free-atom densities, potentials, etc. across the integration grid (initialize_grid_storage).
  | initialize_grid_storage: Actual outermost partition radius vs. multipole_radius_free
  | (-- VB: in principle, multipole_radius_free should be larger, hence this output)
  | Species        1: Confinement radius =              4.999999999999999 AA, multipole_radius_free =              5.054417573612229 AA.
  | Species        1: outer_partition_radius set to              5.054417573612229 AA .
  | Species        2: Confinement radius =              4.999999999999999 AA, multipole_radius_free =              5.048384829883283 AA.
  | Species        2: outer_partition_radius set to              5.048384829883283 AA .
  | Original list of interatomic distances with           4 x          4 entries is created.
  | Net number of integration points:    20664
  | of which are non-zero points    :    18434
  Renormalizing the initial density to the exact electron count on the 3D integration grid.
  | Initial density: Formal number of electrons (from input files) :      11.0000000000
  | Integrated number of electrons on 3D grid     :      10.9999404280
  | Charge integration error                      :      -0.0000595720
  | Normalization factor for density and gradient :       1.0000054157
  Obtaining max. number of non-zero basis functions in each batch (get_n_compute_maxes).
  | Maximal number of non-zero basis functions:       29 in task     0
  Selecting the method for density update.
  Loop over occupied states selected for charge density update.
  Allocating        0.003 MB for KS_eigenvector
  Integrating Hamiltonian matrix: batch-based integration.
  Time summed over all CPUs for integration: real work        0.030 s, elapsed        0.030 s
  Integrating overlap matrix.
  Time summed over all CPUs for integration: real work        0.015 s, elapsed        0.015 s

  Updating Kohn-Sham eigenvalues, eigenvectors, occupation numbers, and Fermi level.
  Solving generalized eigenproblem
  Updating Kohn-Sham eigenvalues and eigenfunctions.
  Transforming overlap matrix and checking for singularities.
  Overlap matrix is nonsingular:
  | Lowest eigenvalue:  0.119852E-01
  Solving real generalised eigenvalue problem by standard LAPACK (fast)

  Obtaining occupation numbers and chemical potential using ELSI.
  | Chemical potential (Fermi level):    -6.58055098eV
  Writing Kohn-Sham eigenvalues.

  State    Occupation    Eigenvalue [Ha]    Eigenvalue [eV]
      1       2.00000         -18.914968         -514.70247
      2       2.00000          -1.148411          -31.24986
      3       2.00000          -0.685865          -18.66334
      4       2.00000          -0.684362          -18.62244
      5       2.00000          -0.491912          -13.38562
      6       0.00000          -0.091631           -2.49341
      7       0.00000           0.005058            0.13764
      8       0.00000           0.006010            0.16353
      9       0.00000           0.209699            5.70621
     10       0.00000           0.264888            7.20798
     11       0.00000           0.265116            7.21418
     12       0.00000           0.427824           11.64168
     13       0.00000           0.676520           18.40905

  Highest occupied state (VBM) at    -13.38561610 eV
  | Occupation number:      2.00000000

  Lowest unoccupied state (CBM) at    -2.49340903 eV
  | Occupation number:      0.00000000

  Overall HOMO-LUMO gap:     10.89220707 eV.
  Calculating total energy contributions from superposition of free atom densities.

  Total energy components:
  | Sum of eigenvalues            :         -43.85103913 Ha       -1193.24748652 eV
  | XC energy correction          :          -8.86463274 Ha        -241.21892998 eV
  | XC potential correction       :          11.67267638 Ha         317.62968514 eV
  | Free-atom electrostatic energy:         -35.26804460 Ha        -959.69232207 eV
  | Hartree energy correction     :          -0.00000000 Ha          -0.00000000 eV
  | Entropy correction            :          -0.00000000 Ha          -0.00000000 eV
  | ---------------------------
  | Total energy                  :         -76.31104009 Ha       -2076.52905343 eV
  | Total energy, T -> 0          :         -76.31104009 Ha       -2076.52905343 eV  <-- do not rely on this value for anything but (periodic) metals
  | Electronic free energy        :         -76.31104009 Ha       -2076.52905343 eV

  Derived energy quantities:
  | Kinetic energy                :          75.66659776 Ha        2058.99288558 eV
  | Electrostatic energy          :        -143.11300511 Ha       -3894.30300903 eV
  | Energy correction for multipole
  | error in Hartree potential    :           0.00000000 Ha           0.00000000 eV
  | Sum of eigenvalues per atom                           :        -298.31187163 eV
  | Total energy (T->0) per atom                          :        -519.13226336 eV  <-- do not rely on this value for anything but (periodic) metals
  | Electronic free energy per atom                       :        -519.13226336 eV
  Initialize hartree_potential_storage
  Max. number of atoms included in rho_multipole:            4

  End scf initialization - timings             :  max(cpu_time)    wall_clock(cpu1)
  | Time for scf. initialization               :        0.086 s           0.087 s
  | Boundary condition initialization          :        0.000 s           0.000 s
  | Integration                                :        0.046 s           0.046 s
  | Solution of K.-S. eqns.                    :        0.001 s           0.000 s
  | Grid partitioning                          :        0.014 s           0.014 s
  | Preloading free-atom quantities on grid    :        0.001 s           0.000 s
  | Free-atom superposition energy             :        0.013 s           0.013 s
  | Total energy evaluation                    :        0.000 s           0.001 s

  Partial memory accounting:
  | Current value for overall tracked memory usage on task 0  :           0.017 MB
  | Peak value for overall tracked memory usage on task 0     :           0.080 MB after allocating wave
  | Largest tracked array allocation on task 0 so far         :           0.021 MB  when allocating H_times_psi
  Note:  These values currently only include a subset of arrays which are explicitly tracked.
  The "true" memory usage will be greater.
------------------------------------------------------------

------------------------------------------------------------
          Begin self-consistency iteration #    1

  Date     :  20190508, Time     :  170351.743
------------------------------------------------------------
  Evaluating new KS density.
  Integration grid: deviation in total charge (<rho> - N_e) =  -4.263256E-14
  Pulay mixing of updated and previous charge densities.

  Evaluating partitioned Hartree potential by multipole expansion.
  | Analytical far-field extrapolation by fixed multipoles:
  | Hartree multipole sum: apparent total charge =   0.499199E-01
  Summing up the Hartree potential.
  Time summed over all CPUs for potential: real work        0.017 s, elapsed        0.017 s
  | RMS charge density error from multipole expansion :   0.542181E-03

  Integrating Hamiltonian matrix: batch-based integration.
  Time summed over all CPUs for integration: real work        0.028 s, elapsed        0.028 s

  Updating Kohn-Sham eigenvalues, eigenvectors, occupation numbers, and Fermi level.
  Solving generalized eigenproblem
  Updating Kohn-Sham eigenvalues and eigenfunctions.
  Solving real generalised eigenvalue problem by standard LAPACK (fast)

  Obtaining occupation numbers and chemical potential using ELSI.
  | Chemical potential (Fermi level):    -6.78418212eV
  Writing Kohn-Sham eigenvalues.

  State    Occupation    Eigenvalue [Ha]    Eigenvalue [eV]
      1       2.00000         -18.904024         -514.40467
      2       2.00000          -1.151728          -31.34012
      3       2.00000          -0.690757          -18.79644
      4       2.00000          -0.689268          -18.75594
      5       2.00000          -0.493996          -13.44231
      6       0.00000          -0.101671           -2.76661
      7       0.00000          -0.004192           -0.11407
      8       0.00000          -0.003218           -0.08756
      9       0.00000           0.202676            5.51510
     10       0.00000           0.254749            6.93209
     11       0.00000           0.254954            6.93766
     12       0.00000           0.417573           11.36275
     13       0.00000           0.668131           18.18076

  Highest occupied state (VBM) at    -13.44231303 eV
  | Occupation number:      2.00000000

  Lowest unoccupied state (CBM) at    -2.76660802 eV
  | Occupation number:      0.00000000

  Overall HOMO-LUMO gap:     10.67570501 eV.

  Total energy components:
  | Sum of eigenvalues            :         -43.85954627 Ha       -1193.47897759 eV
  | XC energy correction          :          -8.86852631 Ha        -241.32487932 eV
  | XC potential correction       :          11.67802968 Ha         317.77535584 eV
  | Free-atom electrostatic energy:         -35.26804460 Ha        -959.69232207 eV
  | Hartree energy correction     :           0.02510661 Ha           0.68318554 eV
  | Entropy correction            :          -0.00000000 Ha          -0.00000000 eV
  | ---------------------------
  | Total energy                  :         -76.29298089 Ha       -2076.03763760 eV
  | Total energy, T -> 0          :         -76.29298089 Ha       -2076.03763760 eV  <-- do not rely on this value for anything but (periodic) metals
  | Electronic free energy        :         -76.29298089 Ha       -2076.03763760 eV

  Derived energy quantities:
  | Kinetic energy                :          75.76005644 Ha        2061.53602544 eV
  | Electrostatic energy          :        -143.18451102 Ha       -3896.24878372 eV
  | Energy correction for multipole
  | error in Hartree potential    :           0.00057077 Ha           0.01553153 eV
  | Sum of eigenvalues per atom                           :        -298.36974440 eV
  | Total energy (T->0) per atom                          :        -519.00940940 eV  <-- do not rely on this value for anything but (periodic) metals
  | Electronic free energy per atom                       :        -519.00940940 eV

  Self-consistency convergence accuracy:
  | Change of charge density      :  0.2702E+00
  | Change of sum of eigenvalues  : -0.2315E+00 eV
  | Change of total energy        :  0.4914E+00 eV

  End self-consistency iteration #     1       :  max(cpu_time)    wall_clock(cpu1)
  | Time for this iteration                    :        0.060 s           0.059 s
  | Charge density update                      :        0.013 s           0.013 s
  | Density mixing                             :        0.000 s           0.000 s
  | Hartree multipole update                   :        0.001 s           0.001 s
  | Hartree multipole summation                :        0.017 s           0.017 s
  | Integration                                :        0.028 s           0.028 s
  | Solution of K.-S. eqns.                    :        0.000 s           0.000 s
  | Total energy evaluation                    :        0.000 s           0.000 s

  Partial memory accounting:
  | Current value for overall tracked memory usage on task 0  :           0.017 MB
  | Peak value for overall tracked memory usage on task 0     :           0.086 MB after allocating wave
  | Largest tracked array allocation on task 0 so far         :           0.021 MB  when allocating H_times_psi
  Note:  These values currently only include a subset of arrays which are explicitly tracked.
  The "true" memory usage will be greater.
------------------------------------------------------------

------------------------------------------------------------
          Begin self-consistency iteration #    2

  Date     :  20190508, Time     :  170351.802
------------------------------------------------------------
  Evaluating new KS density.
  Integration grid: deviation in total charge (<rho> - N_e) =   2.131628E-14
  Pulay mixing of updated and previous charge densities.

  Evaluating partitioned Hartree potential by multipole expansion.
  | Analytical far-field extrapolation by fixed multipoles:
  | Hartree multipole sum: apparent total charge =   0.445009E+00
  Summing up the Hartree potential.
  Time summed over all CPUs for potential: real work        0.017 s, elapsed        0.017 s
  | RMS charge density error from multipole expansion :   0.477031E-02

  Integrating Hamiltonian matrix: batch-based integration.
  Time summed over all CPUs for integration: real work        0.028 s, elapsed        0.028 s

  Updating Kohn-Sham eigenvalues, eigenvectors, occupation numbers, and Fermi level.
  Solving generalized eigenproblem
  Updating Kohn-Sham eigenvalues and eigenfunctions.
  Solving real generalised eigenvalue problem by standard LAPACK (fast)

  Obtaining occupation numbers and chemical potential using ELSI.
  | Chemical potential (Fermi level):    -8.43165229eV
  Highest occupied state (VBM) at    -14.14206265 eV
  | Occupation number:      2.00000000

  Lowest unoccupied state (CBM) at    -4.89488944 eV
  | Occupation number:      0.00000000

  Overall HOMO-LUMO gap:      9.24717321 eV.

  Checking to see if s.c.f. parameters should be adjusted.
  The system likely has a gap. Increased the default Pulay mixing parameter (charge_mix_param). Value:   0.200000 .
  Kept the default occupation width. Value:   0.010000 eV.

  Total energy components:
  | Sum of eigenvalues            :         -44.03123750 Ha       -1198.15093373 eV
  | XC energy correction          :          -8.89836916 Ha        -242.13694471 eV
  | XC potential correction       :          11.71903388 Ha         318.89113685 eV
  | Free-atom electrostatic energy:         -35.26804460 Ha        -959.69232207 eV
  | Hartree energy correction     :           0.27431851 Ha           7.46458657 eV
  | Entropy correction            :          -0.00000000 Ha          -0.00000000 eV
  | ---------------------------
  | Total energy                  :         -76.20429887 Ha       -2073.62447710 eV
  | Total energy, T -> 0          :         -76.20429887 Ha       -2073.62447710 eV  <-- do not rely on this value for anything but (periodic) metals
  | Electronic free energy        :         -76.20429887 Ha       -2073.62447710 eV

  Derived energy quantities:
  | Kinetic energy                :          76.33226704 Ha        2077.10666824 eV
  | Electrostatic energy          :        -143.63819675 Ha       -3908.59420062 eV
  | Energy correction for multipole
  | error in Hartree potential    :           0.00478196 Ha           0.13012374 eV
  | Sum of eigenvalues per atom                           :        -299.53773343 eV
  | Total energy (T->0) per atom                          :        -518.40611927 eV  <-- do not rely on this value for anything but (periodic) metals
  | Electronic free energy per atom                       :        -518.40611927 eV

  Self-consistency convergence accuracy:
  | Change of charge density      :  0.2442E+00
  | Change of sum of eigenvalues  : -0.4672E+01 eV
  | Change of total energy        :  0.2413E+01 eV

  End self-consistency iteration #     2       :  max(cpu_time)    wall_clock(cpu1)
  | Time for this iteration                    :        0.058 s           0.058 s
  | Charge density update                      :        0.011 s           0.012 s
  | Density mixing                             :        0.000 s           0.000 s
  | Hartree multipole update                   :        0.001 s           0.001 s
  | Hartree multipole summation                :        0.017 s           0.017 s
  | Integration                                :        0.028 s           0.028 s
  | Solution of K.-S. eqns.                    :        0.000 s           0.000 s
  | Total energy evaluation                    :        0.000 s           0.000 s

  Partial memory accounting:
  | Current value for overall tracked memory usage on task 0  :           0.018 MB
  | Peak value for overall tracked memory usage on task 0     :           0.087 MB after allocating wave
  | Largest tracked array allocation on task 0 so far         :           0.021 MB  when allocating H_times_psi
  Note:  These values currently only include a subset of arrays which are explicitly tracked.
  The "true" memory usage will be greater.
------------------------------------------------------------

------------------------------------------------------------
          Begin self-consistency iteration #    3

  Date     :  20190508, Time     :  170351.861
------------------------------------------------------------
  Evaluating new KS density.
  Integration grid: deviation in total charge (<rho> - N_e) =  -1.776357E-15
  Pulay mixing of updated and previous charge densities.

  Evaluating partitioned Hartree potential by multipole expansion.
  | Analytical far-field extrapolation by fixed multipoles:
  | Hartree multipole sum: apparent total charge =   0.845529E+00
  Summing up the Hartree potential.
  Time summed over all CPUs for potential: real work        0.016 s, elapsed        0.016 s
  | RMS charge density error from multipole expansion :   0.869244E-02

  Integrating Hamiltonian matrix: batch-based integration.
  Time summed over all CPUs for integration: real work        0.028 s, elapsed        0.028 s

  Updating Kohn-Sham eigenvalues, eigenvectors, occupation numbers, and Fermi level.
  Solving generalized eigenproblem
  Updating Kohn-Sham eigenvalues and eigenfunctions.
  Solving real generalised eigenvalue problem by standard LAPACK (fast)

  Obtaining occupation numbers and chemical potential using ELSI.
  | Chemical potential (Fermi level):   -11.27313114eV
  Highest occupied state (VBM) at    -17.60622823 eV
  | Occupation number:      2.00000000

  Lowest unoccupied state (CBM) at    -7.50122396 eV
  | Occupation number:      0.00000000

  Overall HOMO-LUMO gap:     10.10500427 eV.

  Total energy components:
  | Sum of eigenvalues            :         -45.40476296 Ha       -1235.52646314 eV
  | XC energy correction          :          -8.80032867 Ha        -239.46912718 eV
  | XC potential correction       :          11.59089643 Ha         315.40433939 eV
  | Free-atom electrostatic energy:         -35.26804460 Ha        -959.69232207 eV
  | Hartree energy correction     :           1.70829159 Ha          46.48497921 eV
  | Entropy correction            :          -0.00000000 Ha          -0.00000000 eV
  | ---------------------------
  | Total energy                  :         -76.17394822 Ha       -2072.79859378 eV
  | Total energy, T -> 0          :         -76.17394822 Ha       -2072.79859378 eV  <-- do not rely on this value for anything but (periodic) metals
  | Electronic free energy        :         -76.17394822 Ha       -2072.79859378 eV

  Derived energy quantities:
  | Kinetic energy                :          75.81017836 Ha        2062.89991250 eV
  | Electrostatic energy          :        -143.18379791 Ha       -3896.22937911 eV
  | Energy correction for multipole
  | error in Hartree potential    :           0.00602895 Ha           0.16405612 eV
  | Sum of eigenvalues per atom                           :        -308.88161578 eV
  | Total energy (T->0) per atom                          :        -518.19964844 eV  <-- do not rely on this value for anything but (periodic) metals
  | Electronic free energy per atom                       :        -518.19964844 eV

  Self-consistency convergence accuracy:
  | Change of charge density      :  0.1100E+00
  | Change of sum of eigenvalues  : -0.3738E+02 eV
  | Change of total energy        :  0.8259E+00 eV

  End self-consistency iteration #     3       :  max(cpu_time)    wall_clock(cpu1)
  | Time for this iteration                    :        0.058 s           0.057 s
  | Charge density update                      :        0.011 s           0.011 s
  | Density mixing                             :        0.000 s           0.000 s
  | Hartree multipole update                   :        0.001 s           0.002 s
  | Hartree multipole summation                :        0.017 s           0.016 s
  | Integration                                :        0.028 s           0.028 s
  | Solution of K.-S. eqns.                    :        0.000 s           0.000 s
  | Total energy evaluation                    :        0.000 s           0.000 s

  Partial memory accounting:
  | Current value for overall tracked memory usage on task 0  :           0.018 MB
  | Peak value for overall tracked memory usage on task 0     :           0.088 MB after allocating wave
  | Largest tracked array allocation on task 0 so far         :           0.021 MB  when allocating H_times_psi
  Note:  These values currently only include a subset of arrays which are explicitly tracked.
  The "true" memory usage will be greater.
------------------------------------------------------------

------------------------------------------------------------
          Begin self-consistency iteration #    4

  Date     :  20190508, Time     :  170351.918
------------------------------------------------------------
  Evaluating new KS density.
  Integration grid: deviation in total charge (<rho> - N_e) =   2.131628E-14
  Pulay mixing of updated and previous charge densities.

  Evaluating partitioned Hartree potential by multipole expansion.
  | Analytical far-field extrapolation by fixed multipoles:
  | Hartree multipole sum: apparent total charge =   0.101140E+01
  Summing up the Hartree potential.
  Time summed over all CPUs for potential: real work        0.017 s, elapsed        0.017 s
  | RMS charge density error from multipole expansion :   0.104190E-01

  Integrating Hamiltonian matrix: batch-based integration.
  Time summed over all CPUs for integration: real work        0.028 s, elapsed        0.028 s

  Updating Kohn-Sham eigenvalues, eigenvectors, occupation numbers, and Fermi level.
  Solving generalized eigenproblem
  Updating Kohn-Sham eigenvalues and eigenfunctions.
  Solving real generalised eigenvalue problem by standard LAPACK (fast)

  Obtaining occupation numbers and chemical potential using ELSI.
  | Chemical potential (Fermi level):   -11.99510350eV
  Highest occupied state (VBM) at    -18.41923562 eV
  | Occupation number:      2.00000000

  Lowest unoccupied state (CBM) at    -8.30582266 eV
  | Occupation number:      0.00000000

  Overall HOMO-LUMO gap:     10.11341296 eV.

  Total energy components:
  | Sum of eigenvalues            :         -45.70468671 Ha       -1243.68780342 eV
  | XC energy correction          :          -8.79687004 Ha        -239.37501310 eV
  | XC potential correction       :          11.58683508 Ha         315.29382443 eV
  | Free-atom electrostatic energy:         -35.26804460 Ha        -959.69232207 eV
  | Hartree energy correction     :           2.01147529 Ha          54.73502748 eV
  | Entropy correction            :          -0.00000000 Ha          -0.00000000 eV
  | ---------------------------
  | Total energy                  :         -76.17129098 Ha       -2072.72628668 eV
  | Total energy, T -> 0          :         -76.17129098 Ha       -2072.72628668 eV  <-- do not rely on this value for anything but (periodic) metals
  | Electronic free energy        :         -76.17129098 Ha       -2072.72628668 eV

  Derived energy quantities:
  | Kinetic energy                :          75.78759804 Ha        2062.28547050 eV
  | Electrostatic energy          :        -143.16201897 Ha       -3895.63674408 eV
  | Energy correction for multipole
  | error in Hartree potential    :           0.00710295 Ha           0.19328099 eV
  | Sum of eigenvalues per atom                           :        -310.92195086 eV
  | Total energy (T->0) per atom                          :        -518.18157167 eV  <-- do not rely on this value for anything but (periodic) metals
  | Electronic free energy per atom                       :        -518.18157167 eV

  Self-consistency convergence accuracy:
  | Change of charge density      :  0.5025E-01
  | Change of sum of eigenvalues  : -0.8161E+01 eV
  | Change of total energy        :  0.7231E-01 eV

  End self-consistency iteration #     4       :  max(cpu_time)    wall_clock(cpu1)
  | Time for this iteration                    :        0.059 s           0.060 s
  | Charge density update                      :        0.012 s           0.012 s
  | Density mixing                             :        0.000 s           0.001 s
  | Hartree multipole update                   :        0.001 s           0.001 s
  | Hartree multipole summation                :        0.017 s           0.017 s
  | Integration                                :        0.029 s           0.028 s
  | Solution of K.-S. eqns.                    :        0.000 s           0.000 s
  | Total energy evaluation                    :        0.000 s           0.000 s

  Partial memory accounting:
  | Current value for overall tracked memory usage on task 0  :           0.019 MB
  | Peak value for overall tracked memory usage on task 0     :           0.088 MB after allocating wave
  | Largest tracked array allocation on task 0 so far         :           0.021 MB  when allocating H_times_psi
  Note:  These values currently only include a subset of arrays which are explicitly tracked.
  The "true" memory usage will be greater.
------------------------------------------------------------

------------------------------------------------------------
          Begin self-consistency iteration #    5

  Date     :  20190508, Time     :  170351.978
------------------------------------------------------------
  Evaluating new KS density.
  Integration grid: deviation in total charge (<rho> - N_e) =  -2.309264E-14
  Pulay mixing of updated and previous charge densities.

  Evaluating partitioned Hartree potential by multipole expansion.
  | Analytical far-field extrapolation by fixed multipoles:
  | Hartree multipole sum: apparent total charge =   0.100808E+01
  Summing up the Hartree potential.
  Time summed over all CPUs for potential: real work        0.016 s, elapsed        0.016 s
  | RMS charge density error from multipole expansion :   0.104613E-01

  Integrating Hamiltonian matrix: batch-based integration.
  Time summed over all CPUs for integration: real work        0.029 s, elapsed        0.029 s

  Updating Kohn-Sham eigenvalues, eigenvectors, occupation numbers, and Fermi level.
  Solving generalized eigenproblem
  Updating Kohn-Sham eigenvalues and eigenfunctions.
  Solving real generalised eigenvalue problem by standard LAPACK (fast)

  Obtaining occupation numbers and chemical potential using ELSI.
  | Chemical potential (Fermi level):   -11.79288295eV
  Highest occupied state (VBM) at    -18.12242308 eV
  | Occupation number:      2.00000000

  Lowest unoccupied state (CBM) at    -8.15559562 eV
  | Occupation number:      0.00000000

  Overall HOMO-LUMO gap:      9.96682745 eV.

  Total energy components:
  | Sum of eigenvalues            :         -45.58579629 Ha       -1240.45263072 eV
  | XC energy correction          :          -8.81227290 Ha        -239.79414608 eV
  | XC potential correction       :          11.60710931 Ha         315.84551424 eV
  | Free-atom electrostatic energy:         -35.26804460 Ha        -959.69232207 eV
  | Hartree energy correction     :           1.88783852 Ha          51.37069974 eV
  | Entropy correction            :          -0.00000000 Ha          -0.00000000 eV
  | ---------------------------
  | Total energy                  :         -76.17116596 Ha       -2072.72288488 eV
  | Total energy, T -> 0          :         -76.17116596 Ha       -2072.72288488 eV  <-- do not rely on this value for anything but (periodic) metals
  | Electronic free energy        :         -76.17116596 Ha       -2072.72288488 eV

  Derived energy quantities:
  | Kinetic energy                :          75.84405364 Ha        2063.82170551 eV
  | Electrostatic energy          :        -143.20294670 Ha       -3896.75044431 eV
  | Energy correction for multipole
  | error in Hartree potential    :           0.00696602 Ha           0.18955502 eV
  | Sum of eigenvalues per atom                           :        -310.11315768 eV
  | Total energy (T->0) per atom                          :        -518.18072122 eV  <-- do not rely on this value for anything but (periodic) metals
  | Electronic free energy per atom                       :        -518.18072122 eV

  Self-consistency convergence accuracy:
  | Change of charge density      :  0.1084E-01
  | Change of sum of eigenvalues  :  0.3235E+01 eV
  | Change of total energy        :  0.3402E-02 eV

  End self-consistency iteration #     5       :  max(cpu_time)    wall_clock(cpu1)
  | Time for this iteration                    :        0.058 s           0.058 s
  | Charge density update                      :        0.011 s           0.011 s
  | Density mixing                             :        0.001 s           0.000 s
  | Hartree multipole update                   :        0.001 s           0.002 s
  | Hartree multipole summation                :        0.017 s           0.016 s
  | Integration                                :        0.028 s           0.029 s
  | Solution of K.-S. eqns.                    :        0.000 s           0.000 s
  | Total energy evaluation                    :        0.000 s           0.000 s

  Partial memory accounting:
  | Current value for overall tracked memory usage on task 0  :           0.019 MB
  | Peak value for overall tracked memory usage on task 0     :           0.088 MB after allocating wave
  | Largest tracked array allocation on task 0 so far         :           0.021 MB  when allocating H_times_psi
  Note:  These values currently only include a subset of arrays which are explicitly tracked.
  The "true" memory usage will be greater.
------------------------------------------------------------

------------------------------------------------------------
          Begin self-consistency iteration #    6

  Date     :  20190508, Time     :  170352.036
------------------------------------------------------------
  Evaluating new KS density.
  Integration grid: deviation in total charge (<rho> - N_e) =   7.105427E-15
  Pulay mixing of updated and previous charge densities.

  Evaluating partitioned Hartree potential by multipole expansion.
  | Analytical far-field extrapolation by fixed multipoles:
  | Hartree multipole sum: apparent total charge =   0.998797E+00
  Summing up the Hartree potential.
  Time summed over all CPUs for potential: real work        0.017 s, elapsed        0.017 s
  | RMS charge density error from multipole expansion :   0.103744E-01

  Integrating Hamiltonian matrix: batch-based integration.
  Time summed over all CPUs for integration: real work        0.028 s, elapsed        0.028 s

  Updating Kohn-Sham eigenvalues, eigenvectors, occupation numbers, and Fermi level.
  Solving generalized eigenproblem
  Updating Kohn-Sham eigenvalues and eigenfunctions.
  Solving real generalised eigenvalue problem by standard LAPACK (fast)

  Obtaining occupation numbers and chemical potential using ELSI.
  | Chemical potential (Fermi level):   -11.79326059eV
  Highest occupied state (VBM) at    -18.11819477 eV
  | Occupation number:      2.00000000

  Lowest unoccupied state (CBM) at    -8.12459374 eV
  | Occupation number:      0.00000000

  Overall HOMO-LUMO gap:      9.99360102 eV.

  Total energy components:
  | Sum of eigenvalues            :         -45.58869576 Ha       -1240.53152905 eV
  | XC energy correction          :          -8.81014404 Ha        -239.73621705 eV
  | XC potential correction       :          11.60425957 Ha         315.76796895 eV
  | Free-atom electrostatic energy:         -35.26804460 Ha        -959.69232207 eV
  | Hartree energy correction     :           1.89149294 Ha          51.47014175 eV
  | Entropy correction            :          -0.00000000 Ha          -0.00000000 eV
  | ---------------------------
  | Total energy                  :         -76.17113188 Ha       -2072.72195747 eV
  | Total energy, T -> 0          :         -76.17113188 Ha       -2072.72195747 eV  <-- do not rely on this value for anything but (periodic) metals
  | Electronic free energy        :         -76.17113188 Ha       -2072.72195747 eV

  Derived energy quantities:
  | Kinetic energy                :          75.82284278 Ha        2063.24452885 eV
  | Electrostatic energy          :        -143.18383062 Ha       -3896.23026926 eV
  | Energy correction for multipole
  | error in Hartree potential    :           0.00678310 Ha           0.18457748 eV
  | Sum of eigenvalues per atom                           :        -310.13288226 eV
  | Total energy (T->0) per atom                          :        -518.18048937 eV  <-- do not rely on this value for anything but (periodic) metals
  | Electronic free energy per atom                       :        -518.18048937 eV

  Self-consistency convergence accuracy:
  | Change of charge density      :  0.7487E-02
  | Change of sum of eigenvalues  : -0.7890E-01 eV
  | Change of total energy        :  0.9274E-03 eV

  End self-consistency iteration #     6       :  max(cpu_time)    wall_clock(cpu1)
  | Time for this iteration                    :        0.058 s           0.058 s
  | Charge density update                      :        0.011 s           0.011 s
  | Density mixing                             :        0.001 s           0.001 s
  | Hartree multipole update                   :        0.001 s           0.001 s
  | Hartree multipole summation                :        0.016 s           0.017 s
  | Integration                                :        0.028 s           0.028 s
  | Solution of K.-S. eqns.                    :        0.000 s           0.000 s
  | Total energy evaluation                    :        0.000 s           0.000 s

  Partial memory accounting:
  | Current value for overall tracked memory usage on task 0  :           0.019 MB
  | Peak value for overall tracked memory usage on task 0     :           0.089 MB after allocating wave
  | Largest tracked array allocation on task 0 so far         :           0.021 MB  when allocating H_times_psi
  Note:  These values currently only include a subset of arrays which are explicitly tracked.
  The "true" memory usage will be greater.
------------------------------------------------------------

------------------------------------------------------------
          Begin self-consistency iteration #    7

  Date     :  20190508, Time     :  170352.094
------------------------------------------------------------
  Evaluating new KS density.
  Integration grid: deviation in total charge (<rho> - N_e) =   1.598721E-14
  Pulay mixing of updated and previous charge densities.

  Evaluating partitioned Hartree potential by multipole expansion.
  | Analytical far-field extrapolation by fixed multipoles:
  | Hartree multipole sum: apparent total charge =   0.999244E+00
  Summing up the Hartree potential.
  Time summed over all CPUs for potential: real work        0.017 s, elapsed        0.017 s
  | RMS charge density error from multipole expansion :   0.103674E-01

  Integrating Hamiltonian matrix: batch-based integration.
  Time summed over all CPUs for integration: real work        0.029 s, elapsed        0.029 s

  Updating Kohn-Sham eigenvalues, eigenvectors, occupation numbers, and Fermi level.
  Solving generalized eigenproblem
  Updating Kohn-Sham eigenvalues and eigenfunctions.
  Solving real generalised eigenvalue problem by standard LAPACK (fast)

  Obtaining occupation numbers and chemical potential using ELSI.
  | Chemical potential (Fermi level):   -11.79375091eV
  Highest occupied state (VBM) at    -18.11950588 eV
  | Occupation number:      2.00000000

  Lowest unoccupied state (CBM) at    -8.12463054 eV
  | Occupation number:      0.00000000

  Overall HOMO-LUMO gap:      9.99487534 eV.

  Total energy components:
  | Sum of eigenvalues            :         -45.59034747 Ha       -1240.57647461 eV
  | XC energy correction          :          -8.80998883 Ha        -239.73199347 eV
  | XC potential correction       :          11.60405322 Ha         315.76235403 eV
  | Free-atom electrostatic energy:         -35.26804460 Ha        -959.69232207 eV
  | Hartree energy correction     :           1.89319690 Ha          51.51650890 eV
  | Entropy correction            :          -0.00000000 Ha          -0.00000000 eV
  | ---------------------------
  | Total energy                  :         -76.17113077 Ha       -2072.72192721 eV
  | Total energy, T -> 0          :         -76.17113077 Ha       -2072.72192721 eV  <-- do not rely on this value for anything but (periodic) metals
  | Electronic free energy        :         -76.17113077 Ha       -2072.72192721 eV

  Derived energy quantities:
  | Kinetic energy                :          75.81945275 Ha        2063.15228134 eV
  | Electrostatic energy          :        -143.18059469 Ha       -3896.14221509 eV
  | Energy correction for multipole
  | error in Hartree potential    :           0.00673108 Ha           0.18316205 eV
  | Sum of eigenvalues per atom                           :        -310.14411865 eV
  | Total energy (T->0) per atom                          :        -518.18048180 eV  <-- do not rely on this value for anything but (periodic) metals
  | Electronic free energy per atom                       :        -518.18048180 eV

  Self-consistency convergence accuracy:
  | Change of charge density      :  0.9641E-03
  | Change of sum of eigenvalues  : -0.4495E-01 eV
  | Change of total energy        :  0.3026E-04 eV

  End self-consistency iteration #     7       :  max(cpu_time)    wall_clock(cpu1)
  | Time for this iteration                    :        0.060 s           0.060 s
  | Charge density update                      :        0.012 s           0.012 s
  | Density mixing                             :        0.001 s           0.001 s
  | Hartree multipole update                   :        0.001 s           0.001 s
  | Hartree multipole summation                :        0.017 s           0.017 s
  | Integration                                :        0.028 s           0.029 s
  | Solution of K.-S. eqns.                    :        0.000 s           0.000 s
  | Total energy evaluation                    :        0.000 s           0.000 s

  Partial memory accounting:
  | Current value for overall tracked memory usage on task 0  :           0.019 MB
  | Peak value for overall tracked memory usage on task 0     :           0.089 MB after allocating wave
  | Largest tracked array allocation on task 0 so far         :           0.021 MB  when allocating H_times_psi
  Note:  These values currently only include a subset of arrays which are explicitly tracked.
  The "true" memory usage will be greater.
------------------------------------------------------------

------------------------------------------------------------
          Begin self-consistency iteration #    8

  Date     :  20190508, Time     :  170352.154
------------------------------------------------------------
  Evaluating new KS density.
  Integration grid: deviation in total charge (<rho> - N_e) =   2.664535E-14
  Pulay mixing of updated and previous charge densities.

  Evaluating partitioned Hartree potential by multipole expansion.
  | Analytical far-field extrapolation by fixed multipoles:
  | Hartree multipole sum: apparent total charge =   0.999482E+00
  Summing up the Hartree potential.
  Time summed over all CPUs for potential: real work        0.016 s, elapsed        0.016 s
  | RMS charge density error from multipole expansion :   0.103709E-01

  Integrating Hamiltonian matrix: batch-based integration.
  Time summed over all CPUs for integration: real work        0.028 s, elapsed        0.028 s

  Updating Kohn-Sham eigenvalues, eigenvectors, occupation numbers, and Fermi level.
  Solving generalized eigenproblem
  Updating Kohn-Sham eigenvalues and eigenfunctions.
  Solving real generalised eigenvalue problem by standard LAPACK (fast)

  Obtaining occupation numbers and chemical potential using ELSI.
  | Chemical potential (Fermi level):   -11.78619561eV
  Highest occupied state (VBM) at    -18.10897902 eV
  | Occupation number:      2.00000000

  Lowest unoccupied state (CBM) at    -8.11913419 eV
  | Occupation number:      0.00000000

  Overall HOMO-LUMO gap:      9.98984483 eV.

  Total energy components:
  | Sum of eigenvalues            :         -45.58644935 Ha       -1240.47040123 eV
  | XC energy correction          :          -8.81057899 Ha        -239.74805255 eV
  | XC potential correction       :          11.60482979 Ha         315.78348560 eV
  | Free-atom electrostatic energy:         -35.26804460 Ha        -959.69232207 eV
  | Hartree energy correction     :           1.88911277 Ha          51.40537385 eV
  | Entropy correction            :          -0.00000000 Ha          -0.00000000 eV
  | ---------------------------
  | Total energy                  :         -76.17113037 Ha       -2072.72191639 eV
  | Total energy, T -> 0          :         -76.17113037 Ha       -2072.72191639 eV  <-- do not rely on this value for anything but (periodic) metals
  | Electronic free energy        :         -76.17113037 Ha       -2072.72191639 eV

  Derived energy quantities:
  | Kinetic energy                :          75.82052823 Ha        2063.18154679 eV
  | Electrostatic energy          :        -143.18107962 Ha       -3896.15541063 eV
  | Energy correction for multipole
  | error in Hartree potential    :           0.00671071 Ha           0.18260775 eV
  | Sum of eigenvalues per atom                           :        -310.11760031 eV
  | Total energy (T->0) per atom                          :        -518.18047910 eV  <-- do not rely on this value for anything but (periodic) metals
  | Electronic free energy per atom                       :        -518.18047910 eV

  Self-consistency convergence accuracy:
  | Change of charge density      :  0.7228E-03
  | Change of sum of eigenvalues  :  0.1061E+00 eV
  | Change of total energy        :  0.1082E-04 eV

  End self-consistency iteration #     8       :  max(cpu_time)    wall_clock(cpu1)
  | Time for this iteration                    :        0.058 s           0.058 s
  | Charge density update                      :        0.011 s           0.011 s
  | Density mixing                             :        0.001 s           0.001 s
  | Hartree multipole update                   :        0.001 s           0.002 s
  | Hartree multipole summation                :        0.016 s           0.016 s
  | Integration                                :        0.028 s           0.028 s
  | Solution of K.-S. eqns.                    :        0.000 s           0.000 s
  | Total energy evaluation                    :        0.000 s           0.000 s

  Partial memory accounting:
  | Current value for overall tracked memory usage on task 0  :           0.020 MB
  | Peak value for overall tracked memory usage on task 0     :           0.089 MB after allocating wave
  | Largest tracked array allocation on task 0 so far         :           0.021 MB  when allocating H_times_psi
  Note:  These values currently only include a subset of arrays which are explicitly tracked.
  The "true" memory usage will be greater.
------------------------------------------------------------

------------------------------------------------------------
          Begin self-consistency iteration #    9

  Date     :  20190508, Time     :  170352.212
------------------------------------------------------------
  Evaluating new KS density.
  Integration grid: deviation in total charge (<rho> - N_e) =  -8.881784E-15
  Pulay mixing of updated and previous charge densities.

  Evaluating partitioned Hartree potential by multipole expansion.
  | Analytical far-field extrapolation by fixed multipoles:
  | Hartree multipole sum: apparent total charge =   0.999546E+00
  Summing up the Hartree potential.
  Time summed over all CPUs for potential: real work        0.017 s, elapsed        0.017 s
  | RMS charge density error from multipole expansion :   0.103718E-01

  Integrating Hamiltonian matrix: batch-based integration.
  Time summed over all CPUs for integration: real work        0.028 s, elapsed        0.028 s

  Updating Kohn-Sham eigenvalues, eigenvectors, occupation numbers, and Fermi level.
  Solving generalized eigenproblem
  Updating Kohn-Sham eigenvalues and eigenfunctions.
  Solving real generalised eigenvalue problem by standard LAPACK (fast)

  Obtaining occupation numbers and chemical potential using ELSI.
  | Chemical potential (Fermi level):   -11.78540521eV
  Highest occupied state (VBM) at    -18.10809054 eV
  | Occupation number:      2.00000000

  Lowest unoccupied state (CBM) at    -8.11860698 eV
  | Occupation number:      0.00000000

  Overall HOMO-LUMO gap:      9.98948356 eV.

  Total energy components:
  | Sum of eigenvalues            :         -45.58615559 Ha       -1240.46240760 eV
  | XC energy correction          :          -8.81063618 Ha        -239.74960888 eV
  | XC potential correction       :          11.60490503 Ha         315.78553280 eV
  | Free-atom electrostatic energy:         -35.26804460 Ha        -959.69232207 eV
  | Hartree energy correction     :           1.88880100 Ha          51.39689023 eV
  | Entropy correction            :          -0.00000000 Ha          -0.00000000 eV
  | ---------------------------
  | Total energy                  :         -76.17113034 Ha       -2072.72191551 eV
  | Total energy, T -> 0          :         -76.17113034 Ha       -2072.72191551 eV  <-- do not rely on this value for anything but (periodic) metals
  | Electronic free energy        :         -76.17113034 Ha       -2072.72191551 eV

  Derived energy quantities:
  | Kinetic energy                :          75.82055039 Ha        2063.18214968 eV
  | Electrostatic energy          :        -143.18104455 Ha       -3896.15445630 eV
  | Energy correction for multipole
  | error in Hartree potential    :           0.00670758 Ha           0.18252252 eV
  | Sum of eigenvalues per atom                           :        -310.11560190 eV
  | Total energy (T->0) per atom                          :        -518.18047888 eV  <-- do not rely on this value for anything but (periodic) metals
  | Electronic free energy per atom                       :        -518.18047888 eV

  Self-consistency convergence accuracy:
  | Change of charge density      :  0.8036E-04
  | Change of sum of eigenvalues  :  0.7994E-02 eV
  | Change of total energy        :  0.8788E-06 eV

  End self-consistency iteration #     9       :  max(cpu_time)    wall_clock(cpu1)
  | Time for this iteration                    :        0.059 s           0.059 s
  | Charge density update                      :        0.011 s           0.012 s
  | Density mixing                             :        0.001 s           0.001 s
  | Hartree multipole update                   :        0.001 s           0.001 s
  | Hartree multipole summation                :        0.017 s           0.017 s
  | Integration                                :        0.028 s           0.028 s
  | Solution of K.-S. eqns.                    :        0.000 s           0.000 s
  | Total energy evaluation                    :        0.000 s           0.000 s

  Partial memory accounting:
  | Current value for overall tracked memory usage on task 0  :           0.020 MB
  | Peak value for overall tracked memory usage on task 0     :           0.089 MB after allocating wave
  | Largest tracked array allocation on task 0 so far         :           0.021 MB  when allocating H_times_psi
  Note:  These values currently only include a subset of arrays which are explicitly tracked.
  The "true" memory usage will be greater.
------------------------------------------------------------

------------------------------------------------------------
          Begin self-consistency iteration #   10

  Date     :  20190508, Time     :  170352.271
------------------------------------------------------------
  Evaluating new KS density.
  Integration grid: deviation in total charge (<rho> - N_e) =   5.329071E-15
  Pulay mixing of updated and previous charge densities.

  Evaluating partitioned Hartree potential by multipole expansion.
  | Analytical far-field extrapolation by fixed multipoles:
  | Hartree multipole sum: apparent total charge =   0.999552E+00
  Summing up the Hartree potential.
  Time summed over all CPUs for potential: real work        0.017 s, elapsed        0.017 s
  | RMS charge density error from multipole expansion :   0.103720E-01

  Integrating Hamiltonian matrix: batch-based integration.
  Time summed over all CPUs for integration: real work        0.029 s, elapsed        0.029 s

  Updating Kohn-Sham eigenvalues, eigenvectors, occupation numbers, and Fermi level.
  Solving generalized eigenproblem
  Updating Kohn-Sham eigenvalues and eigenfunctions.
  Solving real generalised eigenvalue problem by standard LAPACK (fast)

  Obtaining occupation numbers and chemical potential using ELSI.
  | Chemical potential (Fermi level):   -11.78536079eV
  Highest occupied state (VBM) at    -18.10809835 eV
  | Occupation number:      2.00000000

  Lowest unoccupied state (CBM) at    -8.11856208 eV
  | Occupation number:      0.00000000

  Overall HOMO-LUMO gap:      9.98953627 eV.

  Total energy components:
  | Sum of eigenvalues            :         -45.58617238 Ha       -1240.46286457 eV
  | XC energy correction          :          -8.81063650 Ha        -239.74961757 eV
  | XC potential correction       :          11.60490540 Ha         315.78554284 eV
  | Free-atom electrostatic energy:         -35.26804460 Ha        -959.69232207 eV
  | Hartree energy correction     :           1.88881775 Ha          51.39734604 eV
  | Entropy correction            :          -0.00000000 Ha          -0.00000000 eV
  | ---------------------------
  | Total energy                  :         -76.17113033 Ha       -2072.72191533 eV
  | Total energy, T -> 0          :         -76.17113033 Ha       -2072.72191533 eV  <-- do not rely on this value for anything but (periodic) metals
  | Electronic free energy        :         -76.17113033 Ha       -2072.72191533 eV

  Derived energy quantities:
  | Kinetic energy                :          75.82050728 Ha        2063.18097666 eV
  | Electrostatic energy          :        -143.18100111 Ha       -3896.15327442 eV
  | Energy correction for multipole
  | error in Hartree potential    :           0.00670702 Ha           0.18250719 eV
  | Sum of eigenvalues per atom                           :        -310.11571614 eV
  | Total energy (T->0) per atom                          :        -518.18047883 eV  <-- do not rely on this value for anything but (periodic) metals
  | Electronic free energy per atom                       :        -518.18047883 eV

  Self-consistency convergence accuracy:
  | Change of charge density      :  0.1039E-04
  | Change of sum of eigenvalues  : -0.4570E-03 eV
  | Change of total energy        :  0.1820E-06 eV

  End self-consistency iteration #    10       :  max(cpu_time)    wall_clock(cpu1)
  | Time for this iteration                    :        0.060 s           0.061 s
  | Charge density update                      :        0.011 s           0.012 s
  | Density mixing                             :        0.001 s           0.001 s
  | Hartree multipole update                   :        0.001 s           0.001 s
  | Hartree multipole summation                :        0.017 s           0.017 s
  | Integration                                :        0.029 s           0.029 s
  | Solution of K.-S. eqns.                    :        0.000 s           0.000 s
  | Total energy evaluation                    :        0.000 s           0.001 s

  Partial memory accounting:
  | Current value for overall tracked memory usage on task 0  :           0.020 MB
  | Peak value for overall tracked memory usage on task 0     :           0.089 MB after allocating wave
  | Largest tracked array allocation on task 0 so far         :           0.021 MB  when allocating H_times_psi
  Note:  These values currently only include a subset of arrays which are explicitly tracked.
  The "true" memory usage will be greater.
------------------------------------------------------------

------------------------------------------------------------
          Begin self-consistency iteration #   11

  Date     :  20190508, Time     :  170352.332
------------------------------------------------------------
  Evaluating new KS density.
  Integration grid: deviation in total charge (<rho> - N_e) =   5.329071E-14
  Pulay mixing of updated and previous charge densities.

  Evaluating partitioned Hartree potential by multipole expansion.
  | Analytical far-field extrapolation by fixed multipoles:
  | Hartree multipole sum: apparent total charge =   0.999556E+00
  Summing up the Hartree potential.
  Time summed over all CPUs for potential: real work        0.017 s, elapsed        0.017 s
  | RMS charge density error from multipole expansion :   0.103720E-01

  Integrating Hamiltonian matrix: batch-based integration.
  Time summed over all CPUs for integration: real work        0.028 s, elapsed        0.028 s

  Updating Kohn-Sham eigenvalues, eigenvectors, occupation numbers, and Fermi level.
  Solving generalized eigenproblem
  Updating Kohn-Sham eigenvalues and eigenfunctions.
  Solving real generalised eigenvalue problem by standard LAPACK (fast)

  Obtaining occupation numbers and chemical potential using ELSI.
  | Chemical potential (Fermi level):   -11.78530503eV
  Highest occupied state (VBM) at    -18.10800932 eV
  | Occupation number:      2.00000000

  Lowest unoccupied state (CBM) at    -8.11853241 eV
  | Occupation number:      0.00000000

  Overall HOMO-LUMO gap:      9.98947691 eV.

  Total energy components:
  | Sum of eigenvalues            :         -45.58613492 Ha       -1240.46184523 eV
  | XC energy correction          :          -8.81064238 Ha        -239.74977762 eV
  | XC potential correction       :          11.60491316 Ha         315.78575416 eV
  | Free-atom electrostatic energy:         -35.26804460 Ha        -959.69232207 eV
  | Hartree energy correction     :           1.88877840 Ha          51.39627537 eV
  | Entropy correction            :          -0.00000000 Ha          -0.00000000 eV
  | ---------------------------
[...]
  | Largest tracked array allocation on task 0 so far         :           0.021 MB  when allocating H_times_psi
  Note:  These values currently only include a subset of arrays which are explicitly tracked.
  The "true" memory usage will be greater.
------------------------------------------------------------

------------------------------------------------------------
          Begin self-consistency iteration #   12

  Date     :  20190508, Time     :  170352.391
------------------------------------------------------------
  Evaluating new KS density.
  Integration grid: deviation in total charge (<rho> - N_e) =   3.552714E-15
  Pulay mixing of updated and previous charge densities.

  Evaluating partitioned Hartree potential by multipole expansion.
  | Analytical far-field extrapolation by fixed multipoles:
  | Hartree multipole sum: apparent total charge =   0.999556E+00
  Summing up the Hartree potential.
  Time summed over all CPUs for potential: real work        0.016 s, elapsed        0.016 s
  | RMS charge density error from multipole expansion :   0.103720E-01

  Integrating Hamiltonian matrix: batch-based integration.
  Time summed over all CPUs for integration: real work        0.028 s, elapsed        0.028 s

  Updating Kohn-Sham eigenvalues, eigenvectors, occupation numbers, and Fermi level.
  Solving generalized eigenproblem
  Updating Kohn-Sham eigenvalues and eigenfunctions.
  Solving real generalised eigenvalue problem by standard LAPACK (fast)

  Obtaining occupation numbers and chemical potential using ELSI.
  | Chemical potential (Fermi level):   -11.78530179eV
  Highest occupied state (VBM) at    -18.10800535 eV
  | Occupation number:      2.00000000

  Lowest unoccupied state (CBM) at    -8.11853081 eV
  | Occupation number:      0.00000000

  Overall HOMO-LUMO gap:      9.98947454 eV.

  Total energy components:
  | Sum of eigenvalues            :         -45.58613291 Ha       -1240.46179052 eV
  | XC energy correction          :          -8.81064270 Ha        -239.74978631 eV
  | XC potential correction       :          11.60491358 Ha         315.78576564 eV
  | Free-atom electrostatic energy:         -35.26804460 Ha        -959.69232207 eV
  | Hartree energy correction     :           1.88877629 Ha          51.39621786 eV
  | Entropy correction            :          -0.00000000 Ha          -0.00000000 eV
  | ---------------------------
  | Total energy                  :         -76.17113034 Ha       -2072.72191540 eV
  | Total energy, T -> 0          :         -76.17113034 Ha       -2072.72191540 eV  <-- do not rely on this value for anything but (periodic) metals
  | Electronic free energy        :         -76.17113034 Ha       -2072.72191540 eV

  Derived energy quantities:
  | Kinetic energy                :          75.82053666 Ha        2063.18177607 eV
  | Electrostatic energy          :        -143.18102429 Ha       -3896.15390516 eV
  | Energy correction for multipole
  | error in Hartree potential    :           0.00670706 Ha           0.18250826 eV
  | Sum of eigenvalues per atom                           :        -310.11544763 eV
  | Total energy (T->0) per atom                          :        -518.18047885 eV  <-- do not rely on this value for anything but (periodic) metals
  | Electronic free energy per atom                       :        -518.18047885 eV

  Self-consistency convergence accuracy:
  | Change of charge density      :  0.3427E-06
  | Change of sum of eigenvalues  :  0.5471E-04 eV
  | Change of total energy        : -0.1510E-07 eV

  Electronic self-consistency reached - switching on the force computation.

  End self-consistency iteration #    12       :  max(cpu_time)    wall_clock(cpu1)
  | Time for this iteration                    :        0.059 s           0.059 s
  | Charge density & force component update    :        0.011 s           0.011 s
  | Density mixing                             :        0.001 s           0.001 s
  | Hartree multipole update                   :        0.001 s           0.002 s
  | Hartree multipole summation                :        0.017 s           0.016 s
  | Integration                                :        0.029 s           0.029 s
  | Solution of K.-S. eqns.                    :        0.000 s           0.000 s
  | Total energy evaluation                    :        0.000 s           0.000 s

  Partial memory accounting:
  | Current value for overall tracked memory usage on task 0  :           0.020 MB
  | Peak value for overall tracked memory usage on task 0     :           0.089 MB after allocating wave
  | Largest tracked array allocation on task 0 so far         :           0.021 MB  when allocating H_times_psi
  Note:  These values currently only include a subset of arrays which are explicitly tracked.
  The "true" memory usage will be greater.
------------------------------------------------------------

------------------------------------------------------------
          Begin self-consistency iteration #   13

  Date     :  20190508, Time     :  170352.450
------------------------------------------------------------
  Evaluating new KS density and force components.
  Integration grid: deviation in total charge (<rho> - N_e) =   1.065814E-14
  Pulay mixing of updated and previous charge densities.

  Evaluating partitioned Hartree potential by multipole expansion.
  | Analytical far-field extrapolation by fixed multipoles:
  | Hartree multipole sum: apparent total charge =   0.999556E+00
  Summing up the Hartree potential.
  Time summed over all CPUs for potential: real work        0.052 s, elapsed        0.052 s
  | RMS charge density error from multipole expansion :   0.103720E-01

  Integrating Hamiltonian matrix: batch-based integration.
  Time summed over all CPUs for integration: real work        0.028 s, elapsed        0.028 s

  Updating Kohn-Sham eigenvalues, eigenvectors, occupation numbers, and Fermi level.
  Solving generalized eigenproblem
  Updating Kohn-Sham eigenvalues and eigenfunctions.
  Solving real generalised eigenvalue problem by standard LAPACK (fast)

  Obtaining occupation numbers and chemical potential using ELSI.
  | Chemical potential (Fermi level):   -11.78530236eV
  Highest occupied state (VBM) at    -18.10800606 eV
  | Occupation number:      2.00000000

  Lowest unoccupied state (CBM) at    -8.11853089 eV
  | Occupation number:      0.00000000

  Overall HOMO-LUMO gap:      9.98947518 eV.

  Total energy components:
  | Sum of eigenvalues            :         -45.58613328 Ha       -1240.46180068 eV
  | XC energy correction          :          -8.81064263 Ha        -239.74978424 eV
  | XC potential correction       :          11.60491348 Ha         315.78576289 eV
  | Free-atom electrostatic energy:         -35.26804460 Ha        -959.69232207 eV
  | Hartree energy correction     :           1.88877669 Ha          51.39622870 eV
  | Entropy correction            :          -0.00000000 Ha          -0.00000000 eV
  | ---------------------------
  | Total energy                  :         -76.17113034 Ha       -2072.72191540 eV
  | Total energy, T -> 0          :         -76.17113034 Ha       -2072.72191540 eV  <-- do not rely on this value for anything but (periodic) metals
  | Electronic free energy        :         -76.17113034 Ha       -2072.72191540 eV

  Derived energy quantities:
  | Kinetic energy                :          75.82053619 Ha        2063.18176322 eV
  | Electrostatic energy          :        -143.18102390 Ha       -3896.15389438 eV
  | Energy correction for multipole
  | error in Hartree potential    :           0.00670705 Ha           0.18250818 eV
  | Sum of eigenvalues per atom                           :        -310.11545017 eV
  | Total energy (T->0) per atom                          :        -518.18047885 eV  <-- do not rely on this value for anything but (periodic) metals
  | Electronic free energy per atom                       :        -518.18047885 eV

  atomic forces [eV/Ang]:
  -----------------------
  atom #    1
   Hellmann-Feynman              :  0.883335E-12  0.167236E+00  0.532578E-12
   Ionic forces                  :  0.000000E+00  0.000000E+00  0.000000E+00
   Multipole                     :  0.231005E-12 -0.537606E-02  0.119243E-12
   Pulay                         : -0.161762E-12 -0.174484E-02 -0.693129E-12
   ----------------------------------------------------------------
   Total forces(   1)            :  0.952578E-12  0.160115E+00 -0.413073E-13
  atom #    2
   Hellmann-Feynman              :  0.294004E+00 -0.185034E+00  0.425396E-13
   Ionic forces                  :  0.000000E+00  0.000000E+00  0.000000E+00
   Multipole                     :  0.783798E-01 -0.446776E-01 -0.448462E-15
   Pulay                         : -0.340470E+00  0.195031E+00  0.151713E-13
   ----------------------------------------------------------------
   Total forces(   2)            :  0.319136E-01 -0.346807E-01  0.572624E-13
  atom #    3
   Hellmann-Feynman              : -0.294004E+00 -0.185034E+00 -0.326617E-13
   Ionic forces                  :  0.000000E+00  0.000000E+00  0.000000E+00
   Multipole                     : -0.783798E-01 -0.446776E-01  0.240366E-15
   Pulay                         :  0.340470E+00  0.195031E+00 -0.553021E-14
   ----------------------------------------------------------------
   Total forces(   3)            : -0.319136E-01 -0.346807E-01 -0.379515E-13
  atom #    4
   Hellmann-Feynman              : -0.531071E-13  0.208346E+00 -0.819774E-14
   Ionic forces                  :  0.000000E+00  0.000000E+00  0.000000E+00
   Multipole                     :  0.303202E-14  0.892077E-01  0.301779E-15
   Pulay                         : -0.450279E-13 -0.388534E+00  0.162245E-13
   ----------------------------------------------------------------
   Total forces(   4)            : -0.951029E-13 -0.909805E-01  0.832858E-14


  Self-consistency convergence accuracy:
  | Change of charge density      :  0.1364E-06
  | Change of sum of eigenvalues  : -0.1016E-04 eV
  | Change of total energy        :  0.2680E-08 eV
  | Change of forces              :  0.3527E+00 eV/A

  Writing Kohn-Sham eigenvalues.

  State    Occupation    Eigenvalue [Ha]    Eigenvalue [eV]
      1       2.00000         -19.013718         -517.38960
      2       2.00000          -1.337114          -36.38472
      3       2.00000          -0.889031          -24.19176
      4       2.00000          -0.887747          -24.15682
      5       2.00000          -0.665457          -18.10801
      6       0.00000          -0.298351           -8.11853
      7       0.00000          -0.197979           -5.38730
      8       0.00000          -0.196595           -5.34961
      9       0.00000           0.025510            0.69417
     10       0.00000           0.048566            1.32154
     11       0.00000           0.048613            1.32281
     12       0.00000           0.207465            5.64540
     13       0.00000           0.480699           13.08048

  Highest occupied state (VBM) at    -18.10800606 eV
  | Occupation number:      2.00000000

  Lowest unoccupied state (CBM) at    -8.11853089 eV
  | Occupation number:      0.00000000

  Overall HOMO-LUMO gap:      9.98947518 eV.

  Self-consistency cycle converged.

  End self-consistency iteration #    13       :  max(cpu_time)    wall_clock(cpu1)
  | Time for this iteration                    :        0.124 s           0.125 s
  | Charge density & force component update    :        0.041 s           0.041 s
  | Density mixing                             :        0.001 s           0.001 s
  | Hartree multipole update                   :        0.001 s           0.002 s
  | Hartree multipole summation                :        0.052 s           0.052 s
  | Integration                                :        0.028 s           0.028 s
  | Solution of K.-S. eqns.                    :        0.000 s           0.001 s
  | Total energy evaluation                    :        0.000 s           0.000 s

  Partial memory accounting:
  | Current value for overall tracked memory usage on task 0  :           0.020 MB
  | Peak value for overall tracked memory usage on task 0     :           0.124 MB after allocating h_times_wave
  | Largest tracked array allocation on task 0 so far         :           0.063 MB  when allocating gradient_basis_wave
  Note:  These values currently only include a subset of arrays which are explicitly tracked.
  The "true" memory usage will be greater.
------------------------------------------------------------
  ------------------------------------------------------------
   Computing monopole / dipole moments for complete molecule:
  | Total electronic charge [e]         :          0.100000000008507E+02
  | Total ionic charge [e]              :          0.110000000000000E+02
  | Total charge [e]                    :          0.999999999149345E+00
 * Warning: The system has a total charge of      1.00000000 .
 * The dipole moment depends on the choice of the origin.
  | Total dipole moment [eAng]          :         -0.220578350824076E-14         0.117294403415996E-02        -0.172562990785131E-15
  | Absolute dipole moment              :          0.117294403415996E-02 eAng              /                   0.563301226497297E-02 Debye  .
  Removing unitary transformations (pure translations, rotations) from forces on atoms.
  Atomic forces before filtering:
  | Net force on center of mass :   0.109748E-11 -0.226496E-03 -0.136679E-13 eV/A
  | Net torque on center of mass:  -0.123244E-14 -0.813972E-13  0.294372E-13 eV
  Atomic forces after filtering:
  | Net force on center of mass :   0.385062E-17  0.111504E-16  0.000000E+00 eV/A
  | Net torque on center of mass:   0.268325E-29 -0.804975E-29  0.305077E-18 eV

  Energy and forces in a compact form:
  | Total energy uncorrected      :         -0.207272191539516E+04 eV
  | Total energy corrected        :         -0.207272191539516E+04 eV  <-- do not rely on this value for anything but (periodic) metals
  | Electronic free energy        :         -0.207272191539516E+04 eV
  Total atomic forces (unitary forces cleaned) [eV/Ang]:
  |   1          0.678194977279864E-12          0.160172073118128E+00         -0.378916465971940E-13
  |   2          0.319136419978577E-01         -0.346241001914124E-01          0.126566375273385E-13
  |   3         -0.319136419981764E-01         -0.346241001911797E-01          0.126566375273385E-13
  |   4         -0.359523515834646E-12         -0.909238727355356E-01          0.125783715425169E-13

  ------------------------------------ 
  Start decomposition of the XC Energy 
  ------------------------------------ 
  X and C from original XC functional choice 
  Hartree-Fock Energy :          0.000000000 Ha              0.000000000 eV
  X Energy            :         -8.146715082 Ha           -221.683396510 eV
  C Energy            :         -0.663927546 Ha            -18.066387725 eV
  Total XC Energy     :         -8.810642628 Ha           -239.749784235 eV
  ------------------------------------ 
  LDA X and C from self-consistent density 
  X Energy LDA        :         -8.146715082 Ha           -221.683396510 eV
  C Energy LDA        :         -0.663927546 Ha            -18.066387725 eV
  ------------------------------------ 
  End decomposition of the XC Energy 
  ------------------------------------ 

------------------------------------------------------------

------------------------------------------------------------------------------
  Final output of selected total energy values:

  The following output summarizes some interesting total energy values
  at the end of a run (AFTER all relaxation, molecular dynamics, etc.).

  | Total energy of the DFT / Hartree-Fock s.c.f. calculation      :          -2072.721915395 eV
  | Final zero-broadening corrected energy (caution - metals only) :          -2072.721915395 eV
  | For reference only, the value of 1 Hartree used in FHI-aims is :             27.211384500 eV

  Before relying on these values, please be sure to understand exactly which
  total energy value is referred to by a given number. Different objects may
  all carry the same name 'total energy'. Definitions:

  Total energy of the DFT / Hartree-Fock s.c.f. calculation:
  | Note that this energy does not include ANY quantities calculated after the
  | s.c.f. cycle, in particular not ANY RPA, MP2, etc. many-body perturbation terms.

  Final zero-broadening corrected energy:
  | For metallic systems only, a broadening of the occupation numbers at the Fermi
  | level can be extrapolated back to zero broadening by an electron-gas inspired
  | formula. For all systems that are not real metals, this value can be
  | meaningless and should be avoided.

------------------------------------------------------------------------------
  Methods described in the following list of references were used in this FHI-aims run.
  If you publish the results, please make sure to cite these reference if they apply.
  FHI-aims is an academic code, and for our developers (often, Ph.D. students
  and postdocs), scientific credit in the community is essential.
  Thank you for helping us!

  For any use of FHI-aims, please cite:

    Volker Blum, Ralf Gehrke, Felix Hanke, Paula Havu, Ville Havu,
    Xinguo Ren, Karsten Reuter, and Matthias Scheffler
    'Ab initio molecular simulations with numeric atom-centered orbitals'
    Computer Physics Communications 180, 2175-2196 (2009)
    http://dx.doi.org/10.1016/j.cpc.2009.06.022


  For the real-space grid partitioning and parallelization used in this calculation, please cite:

    Ville Havu, Volker Blum, Paula Havu, and Matthias Scheffler,
    'Efficient O(N) integration for all-electron electronic structure calculation'
    'using numerically tabulated basis functions'
    Journal of Computational Physics 228, 8367-8379 (2009).
    http://dx.doi.org/10.1016/j.jcp.2009.08.008

  Of course, there are many other important community references, e.g., those cited in the
  above references. Our list is limited to references that describe implementations in the
  FHI-aims code. The reason is purely practical (length of this list) - please credit others as well.

------------------------------------------------------------
          Leaving FHI-aims.
          Date     :  20190508, Time     :  170352.589

          Computational steps:
          | Number of self-consistency cycles          :           13
          | Number of SCF (re)initializations          :            1

          Detailed time accounting                     :  max(cpu_time)    wall_clock(cpu1)
          | Total time                                 :        0.981 s           0.981 s
          | Preparation time                           :        0.047 s           0.046 s
          | Boundary condition initalization           :        0.000 s           0.000 s
          | Grid partitioning                          :        0.014 s           0.014 s
          | Preloading free-atom quantities on grid    :        0.001 s           0.000 s
          | Free-atom superposition energy             :        0.013 s           0.013 s
          | Total time for integrations                :        0.414 s           0.414 s
          | Total time for solution of K.-S. equations :        0.003 s           0.001 s
          | Total time for density & force components  :        0.179 s           0.180 s
          | Total time for mixing                      :        0.009 s           0.009 s
          | Total time for Hartree multipole update    :        0.018 s           0.018 s
          | Total time for Hartree multipole sum       :        0.253 s           0.253 s
          | Total time for total energy evaluation     :        0.001 s           0.002 s

 This is a stub MPI_ALLREDUCE call.
 You should not be here. Check your
 setting on the use_mpi variable, or
 link against true MPI-libraries.
