------------------------------------------------------------
          Invoking FHI-aims ...
          Version 171221_1
          Compiled on 2019/05/06 at 14:26:40 on host ffph0xx.

          When using FHI-aims, please cite the following reference:

          Volker Blum, Ralf Gehrke, Felix Hanke, Paula Havu,
          Ville Havu, Xinguo Ren, Karsten Reuter, and Matthias Scheffler,
          'Ab Initio Molecular Simulations with Numeric Atom-Centered Orbitals',
          Computer Physics Communications 180, 2175-2196 (2009)

          For any questions about FHI-aims, please visit the aimsclub website
          with its forums and wiki. Contributions to both the forums and the
          wiki are warmly encouraged - they are for you, and everyone is welcome there.

------------------------------------------------------------



  Date     :  20190513, Time     :  134314.266
  Time zero on CPU 1             :   0.611000000000000E-03  s.
  Internal wall clock time zero  :           326986994.266  s.

  FHI-aims created a unique identifier for this run for later identification
  aims_uuid : 0488F0DA-BB20-4CB4-A37D-1EB329877132


  Performing system and environment tests:
  *** Environment variable OMP_NUM_THREADS is not set
  *** For performance reasons you might want to set it to 1
  | Stacksize not measured: no C compiler

  Obtaining array dimensions for all initial allocations:
  
  -----------------------------------------------------------------------
  Parsing control.in (first pass over file, find array dimensions only).
  The contents of control.in will be repeated verbatim below
  unless switched off by setting 'verbatim_writeout .false.' .
  in the first line of control.in .
  -----------------------------------------------------------------------
  
  #--- method ---
  xc pw-lda
  spin none
  relativistic atomic_zora scalar
  #---
  
  #--- k-grid settings ---
  k_grid 12 12 12
  #---
  
  
  
  
  
  
  
  
  
  
  
  #-------------------------------------------------------------------------------
  #--- Species defaults for Si
  #-------------------------------------------------------------------------------
  
  ################################################################################
  #
  #  FHI-aims code project
  #  VB, Fritz-Haber Institut, 2009
  #
  #  Suggested "light" defaults for Si atom (to be pasted into control.in file)
  #  Be sure to double-check any results obtained with these settings for post-processing,
  #  e.g., with the "tight" defaults and larger basis sets.
  #
  ################################################################################
    species        Si
  #     global species definitions
      nucleus             14
      mass                28.0855
  #
      l_hartree           4
  #
      cut_pot             3.5          1.5  1.0
      basis_dep_cutoff    1e-4
  #
      radial_base         42 5.0
      radial_multiplier   1
      angular_grids       specified
        division   0.5866   50
        division   0.9616  110
        division   1.2249  194
        division   1.3795  302
  #      division   1.4810  434
  #      division   1.5529  590
  #      division   1.6284  770
  #      division   1.7077  974
  #      division   2.4068 1202
  #      outer_grid   974
        outer_grid 302
  ################################################################################
  #
  #  Definition of "minimal" basis
  #
  ################################################################################
  #     valence basis states
      valence      3  s   2.
      valence      3  p   2.
  #     ion occupancy
      ion_occ      3  s   1.
      ion_occ      3  p   1.
  ################################################################################
  #
  #  Suggested additional basis functions. For production calculations,
  #  uncomment them one after another (the most important basis functions are
  #  listed first).
  #
  #  Constructed for dimers: 1.75 A, 2.0 A, 2.25 A, 2.75 A, 3.75 A
  #
  ################################################################################
  #  "First tier" - improvements: -571.96 meV to -37.03 meV
       hydro 3 d 4.2
       hydro 2 p 1.4
  #     hydro 4 f 6.2
       ionic 3 s auto
  #  "Second tier" - improvements: -16.76 meV to -3.03 meV
  #     hydro 3 d 9
  #     hydro 5 g 9.4
  #     hydro 4 p 4
  #     hydro 1 s 0.65
  #  "Third tier" - improvements: -3.89 meV to -0.60 meV
  #     ionic 3 d auto
  #     hydro 3 s 2.6
  #     hydro 4 f 8.4
  #     hydro 3 d 3.4
  #     hydro 3 p 7.8
  #  "Fourth tier" - improvements: -0.33 meV to -0.11 meV
  #     hydro 2 p 1.6
  #     hydro 5 g 10.8
  #     hydro 5 f 11.2
  #     hydro 3 d 1
  #     hydro 4 s 4.5
  #  Further basis functions that fell out of the optimization - noise
  #  level... < -0.08 meV
  #     hydro 4 d 6.6
  #     hydro 5 g 16.4
  #     hydro 4 d 9
  
  -----------------------------------------------------------------------
  Completed first pass over input file control.in .
  -----------------------------------------------------------------------
  
  
  -----------------------------------------------------------------------
  Parsing geometry.in (first pass over file, find array dimensions only).
  The contents of geometry.in will be repeated verbatim below
  unless switched off by setting 'verbatim_writeout .false.' .
  in the first line of geometry.in .
  -----------------------------------------------------------------------
  
  lattice_vector   0.000000   2.600000   2.600000
  lattice_vector   2.600000   0.000000   2.600000
  lattice_vector   2.600000   2.600000   0.000000
  atom_frac   0.000000   0.000000   0.000000 Si
  atom_frac   0.250000   0.250000   0.250000 Si
  
  -----------------------------------------------------------------------
  Completed first pass over input file geometry.in .
  -----------------------------------------------------------------------
  

  Basic array size parameters:
  | Number of species                 :        1
  | Number of atoms                   :        2
  | Number of lattice vectors         :        3
  | Max. basis fn. angular momentum   :        2
  | Max. atomic/ionic basis occupied n:        3
  | Max. number of basis fn. types    :        3
  | Max. radial fns per species/type  :        5
  | Max. logarithmic grid size        :     1346
  | Max. radial integration grid size :       42
  | Max. angular integration grid size:      302
  | Max. angular grid division number :        8
  | Radial grid for Hartree potential :     1346
  | Number of spin channels           :        1

------------------------------------------------------------
          Reading file control.in.
------------------------------------------------------------
  XC: Using Perdew-Wang parametrisation of Ceperley-Alder LDA.
  Spin treatment: No spin polarisation.
  Scalar relativistic treatment of kinetic energy: on-site free-atom approximation to ZORA.
  Found k-point grid:        12        12        12

  Reading configuration options for species Si                  .
  | Found nuclear charge :  14.0000
  | Found atomic mass :    28.085500000000000      amu
  | Found l_max for Hartree potential  :   4
  | Found cutoff potl. onset [A], width [A], scale factor :    3.50000    1.50000    1.00000
  | Threshold for basis-dependent cutoff potential is   0.100000E-03
  | Found data for basic radial integration grid :    42 points, outermost radius =    5.000 A
  | Found multiplier for basic radial grid :   1
  | Found angular grid specification: user-specified.
  | Specified grid contains     5 separate shells.
  | Check grid settings after all constraints further below.
  | Found free-atom valence shell :  3 s   2.000
  | Found free-atom valence shell :  3 p   2.000
  | Found free-ion valence shell :  3 s   1.000
  | Found free-ion valence shell :  3 p   1.000
  | Found hydrogenic basis function :  3 d   4.200
  | Found hydrogenic basis function :  2 p   1.400
  | Found ionic basis function :  3 s , default cutoff radius.
  Species Si                  : Missing cutoff potential type.
  Defaulting to exp(1/x)/(1-x)^2 type cutoff potential.
  Species Si: No 'logarithmic' tag. Using default grid for free atom:
  | Default logarithmic grid data [bohr] : 0.1000E-03 0.1000E+03 0.1012E+01
  | Will include ionic basis functions of  2.0-fold positive Si                   ion.
  Species Si: On-site basis accuracy parameter (for Gram-Schmidt orthonormalisation) not specified.
  Using default value basis_acc =  0.1000000E-03.
  Species Si                  : Using default innermost maximum threshold i_radial=  2 for radial functions.
  Species Si                  : Default cutoff onset for free atom density etc. : 0.35000000E+01 AA.
  Species Si                  : Basic radial grid will be enhanced according to radial_multiplier =   1, to contain    42 grid points.

  Finished reading input file 'control.in'. Consistency checks are next.

  MPI_IN_PLACE appears to work with this MPI implementation.
  | Keeping use_mpi_in_place .true. (see manual).
  Target number of points in a grid batch is not set. Defaulting to  100
  Method for grid partitioning is not set. Defaulting to 'maxmin' partitioning.
  Batch size limit is not set. Defaulting to    200
  By default, will store active basis functions for each batch.
  If in need of memory, prune_basis_once .false. can be used to disable this option.
  communication_type for Hartree potential was not specified.
  Defaulting to calc_hartree .
 * Attention: 
 * You may want to set distributed_spline_storage to .true. in order to save memory.
 * This doesn't harm performance and is perfectly ok unless:
 * - you get error messages in postprocessing (about missing atoms in get_rho_multipole_spl)
 * - you need full spline storage in hirshfeld_analysis
  Defaulting to Pulay charge density mixer.
  Pulay mixer: Number of relevant iterations not set.
  Defaulting to    8 iterations.
  Pulay mixer: Number of initial linear mixing iterations not set.
  Defaulting to    0 iterations.
  Work space size for distributed Hartree potential not set.
  Defaulting to   0.200000E+03 MB.
  Mixing parameter for charge density mixing has not been set.
  Using default: charge_mix_param =     0.0500.
  The mixing parameter will be adjusted in iteration number     2 of the first full s.c.f. cycle only.
  Algorithm-dependent basis array size parameters:
  | n_max_pulay                         :        8
 * Notice: The s.c.f. convergence criterion sc_accuracy_rho was not provided.
 * We used to stop in this case, and ask the user to provide reasonable
 * scf convergence criteria. However, this led some users to employ criteria
 * that led to extremely long run times, e.g., for simple relaxation.
 * We now preset a default value for sc_accuracy_rho if it is not set.
 * You may still wish to check if this setting is too tight or too loose for your needs.
 * Based on n_atoms, FHI-aims chose sc_accuracy_rho =  0.100000E-05 .
  Maximum number of self-consistency iterations not provided.
  Presetting  1000 iterations.
  Presetting      1001 iterations before the initial mixing cycle
  is restarted anyway using the sc_init_iter criterion / keyword.
  Presetting a factor      1.000 between actual scf density residual
  and density convergence criterion sc_accuracy_rho below which sc_init_iter
  takes no effect.
 * No s.c.f. convergence criteria (sc_accuracy_*) were provided in control.in.
 * The run will proceed with a reasonable default guess, but please check whether.
 * the s.c.f. cycles seem to take too much or too little time.
  Calculation of forces was not defined in control.in. No forces will be calculated.
  Geometry relaxation not requested: no relaxation will be performed.
  No accuracy limit for integral partition fn. given. Defaulting to  0.1000E-14.
  No threshold value for u(r) in integrations given. Defaulting to  0.1000E-05.
  No occupation type (smearing scheme) given. Defaulting to Gaussian broadening, width =  0.1000E-01 eV.
  The width will be adjusted in iteration number     2 of the first full s.c.f. cycle only.
  S.C.F. convergence parameters will be adjusted in iteration number     2 of the first full s.c.f. cycle only.
  No accuracy for occupation numbers given. Defaulting to  0.1000E-12.
  No threshold value for occupation numbers given. Defaulting to  0.0000E+00.
  No accuracy for fermi level given. Defaulting to  0.1000E-19.
  Maximum # of iterations to find E_F not set. Defaulting to  200.
  Preferred method for the eigenvalue solver ('KS_method') not specified in 'control.in'.
  Defaulting to serial version, 'lapack_fast'.
  Will not use alltoall communication since running on < 1024 CPUs.
  Threshold for basis singularities not set.
  Default threshold for basis singularities:  0.1000E-04
  partition_type (choice of integration weights) for integrals was not specified.
  | Using a version of the partition function of Stratmann and coworkers ('stratmann_smoother').
  | At each grid point, the set of atoms used to build the partition table is smoothly restricted to
  | only those atoms whose free-atom density would be non-zero at that grid point.
  Partitioning for Hartree potential was not defined. Using partition_type for integrals.
  | Adjusted default value of keyword multip_moments_threshold to:       0.10000000E-11
  | This value may affect high angular momentum components of the Hartree potential in periodic systems.
  Angular momentum expansion for Kerker preconditioner not set explicitly.
  | Using default value of   0
  No explicit requirement for turning off preconditioner.
  | By default, it will be turned off when the charge convergence reaches
  | sc_accuracy_rho  =   0.100000E-05
  No special mixing parameter while Kerker preconditioner is on.
  Using default: charge_mix_param =     0.0500.
  No q(lm)/r^(l+1) cutoff set for long-range Hartree potential.
  | Using default value of  0.100000E-09 .
  | Verify using the multipole_threshold keyword.
  Defaulting to new monopole extrapolation.
  Density update method: automatic selection selected.
  Using density matrix based charge density update.
  Using density matrix based charge density update.
  Using packed matrix style: index .
  Defaulting to use time-reversal symmetry for k-point grid.
------------------------------------------------------------


------------------------------------------------------------
          Reading geometry description geometry.in.
------------------------------------------------------------
  Input structure read successfully.
  The structure contains        2 atoms,  and a total of         28.000 electrons.

  Input geometry:
  | Unit cell:
  |        0.00000000        2.60000000        2.60000000
  |        2.60000000        0.00000000        2.60000000
  |        2.60000000        2.60000000        0.00000000
  | Atomic structure:
  |       Atom                x [A]            y [A]            z [A]
  |    1: Species Si            0.00000000        0.00000000        0.00000000
  |    2: Species Si            1.30000000        1.30000000        1.30000000

  Lattice parameters for 3D lattice (in Angstroms) :     3.676955    3.676955    3.676955
  Angle(s) between unit vectors (in degrees)      :    60.000000   60.000000   60.000000

  |

  | The smallest distance between any two atoms is         2.25166605 AA.
  |
  | The first atom of this pair is atom number                      1 .
  | The second atom of this pair is atom number                     2 .
  | Wigner-Seitz cell of the first atom image           0     0     0 .
  | (The Wigner-Seitz cell of the second atom is 0 0 0  by definition.)

  Quantities derived from the lattice vectors:
  | Reciprocal lattice vector 1: -1.208305  1.208305  1.208305
  | Reciprocal lattice vector 2:  1.208305 -1.208305  1.208305
  | Reciprocal lattice vector 3:  1.208305  1.208305 -1.208305
  | Unit cell volume                               :   0.351520E+02  A^3

  Range separation radius for Ewald summation (hartree_convergence_parameter):      3.70579113 bohr.

  Fractional coordinates:
                         L1                L2                L3
       atom_frac         0.00000000        0.00000000        0.00000000  Si
       atom_frac         0.25000000        0.25000000        0.25000000  Si

  Number of empty states per atom not set in control.in - providing a guess from actual geometry.
  | Total number of empty states used during s.c.f. cycle:        6
  If you use a very high smearing, use empty_states (per atom!) in control.in to increase this value.

  Structure-dependent array size parameters: 
  | Maximum number of distinct radial functions  :        8
  | Maximum number of basis functions            :       36
  | Number of Kohn-Sham states (occupied + empty):       20
------------------------------------------------------------

------------------------------------------------------------
          Preparing all fixed parts of the calculation.
------------------------------------------------------------
  Determining machine precision:
     2.2250738585072014E-308
  Setting up grids for atomic and cluster calculations.

  Creating wave function, potential, and density for free atoms.

  Species: Si

  List of occupied orbitals and eigenvalues:
    n    l              occ      energy [Ha]    energy [eV]
    1    0           2.0000       -65.491668     -1782.1190
    2    0           2.0000        -5.087967      -138.4506
    3    0           2.0000        -0.391471       -10.6525
    2    1           6.0000        -3.502246       -95.3010
    3    1           2.0000        -0.143943        -3.9169

  Creating fixed part of basis set: Ionic, confined, hydrogenic.

  Si                   ion:

  List of free ionic orbitals and eigenvalues:
    n    l      energy [Ha]    energy [eV]
    1    0       -66.364436     -1805.8682
    2    0        -5.935799      -161.5213
    3    0        -1.078166       -29.3384
    2    1        -4.351123      -118.4001
    3    1        -0.781733       -21.2720


  List of ionic basis orbitals and eigenvalues:
    n    l      energy [Ha]    energy [eV]    outer radius [A]
    3    0        -1.078146       -29.3378       4.214062


  Si                   hydrogenic:

  List of hydrogenic basis orbitals: 
    n    l      effective z      eigenvalue [eV]  inner max. [A]     outer max. [A]     outer radius [A]   
    3    2         4.200000       -26.6624           1.139231           1.139231           4.534782
    2    1         1.400000        -6.4613           1.472672           1.472672           4.590560


  Adding cutoff potential to free-atom effective potential.
  Creating atomic-like basis functions for current effective potential.

  Species Si                  :

  List of atomic basis orbitals and eigenvalues:
    n    l      energy [Ha]    energy [eV]    outer radius [A]
    1    0       -65.491668     -1782.1190       0.789468
    2    0        -5.087967      -138.4506       2.815114
    3    0        -0.391471       -10.6525       4.534782
    2    1        -3.502246       -95.3010       3.259919
    3    1        -0.143943        -3.9169       4.590560

  Assembling full basis from fixed parts.
  | Species Si :   atomic orbital   1 s accepted.
  | Species Si :   atomic orbital   2 s accepted.
  | Species Si :    ionic orbital   3 s accepted.
  | Species Si :   atomic orbital   3 s accepted.
  | Species Si :   atomic orbital   2 p accepted.
  | Species Si :   atomic orbital   3 p accepted.
  | Species Si :    hydro orbital   2 p accepted.
  | Species Si :    hydro orbital   3 d accepted.

  Basis size parameters after reduction:
  | Total number of radial functions:        8
  | Total number of basis functions :       36

  Per-task memory consumption for arrays in subroutine allocate_ext:
  |           2.757868MB.
  Testing on-site integration grid accuracy.
  |  Species  Function  <phi|h_atom|phi> (log., in eV)  <phi|h_atom|phi> (rad., in eV)
           1        1              -1782.1189727076              -1782.1182429251
           1        2               -138.4506350693               -138.4506310079
           1        3                -10.3030408815                -10.3029120678
           1        4                  5.0238999146                  4.9457540310 ***
           1        5                -95.3009689499                -95.3009689315
           1        6                 -3.9266496564                 -3.9420918374
           1        7                  6.3453628447                  6.1632372158 ***
           1        8                  6.2883050744                  6.2861881409
 * Note: Onsite integrals marked "***" above are less accurate than
 * onsite_accuracy_threshold =    0.03000 eV. Usually, this is harmless.
 * When in doubt, tighten the "radial" and/or "radial_multiplier" flags to check.

  Preparing densities etc. for the partition functions (integrals / Hartree potential).

  Preparations completed.
  max(cpu_time)          :      0.093 s.
  Wall clock time (cpu1) :      0.094 s.
------------------------------------------------------------

------------------------------------------------------------
          Begin self-consistency loop: Initialization.

          Date     :  20190513, Time     :  134314.361
------------------------------------------------------------

  Initializing index lists of integration centers etc. from given atomic structure:
  Mapping all atomic coordinates to central unit cell.

  Initializing the k-points
          Using symmetry for reducing the k-points
  | k-points reduced from:     1728 to      868
  | Number of k-points                             :       868
  The eigenvectors in the calculations are COMPLEX.
  | K-points in task   0:       868
  | Number of basis functions in the Hamiltonian integrals :      1498
  | Number of basis functions in a single unit cell        :        36
  | Number of centers in hartree potential         :       732
  | Number of centers in hartree multipole         :       336
  | Number of centers in electron density summation:       228
  | Number of centers in basis integrals           :       288
  | Number of centers in integrals                 :       101
  | Number of centers in hamiltonian               :       228
  | Consuming       1925 KiB for k_phase.
  | Number of super-cells (origin) [n_cells]                     :        2197
  | Number of super-cells (after PM_index) [n_cells]             :         142
  | Number of super-cells in hamiltonian [n_cells_in_hamiltonian]:         142
  | Size of matrix packed + index [n_hamiltonian_matrix_size] :       48927
  Partitioning the integration grid into batches with maxmin method.
  | Maximal weight for a single point:     1.000
  | Minimal weight for a single point:     0.679
  | Number of batches:      128
  | Maximal batch size:      91
  | Minimal batch size:      85
  | Average batch size:      87.562
  | Standard deviation of batch sizes:       1.519
  Initializing partition tables, free-atom densities, potentials, etc. across the integration grid (initialize_grid_storage).
  | initialize_grid_storage: Actual outermost partition radius vs. multipole_radius_free
  | (-- VB: in principle, multipole_radius_free should be larger, hence this output)
  | Species        1: Confinement radius =              4.999999999999999 AA, multipole_radius_free =              5.000694715736543 AA.
  | Species        1: outer_partition_radius set to              5.000694715736543 AA .
  | Original list of interatomic distances with         288 x        288 entries is created.
  | Net number of integration points:    11208
  | of which are non-zero points    :     9628
  | Numerical average free-atom electrostatic potential    :    -14.97128553 eV
  Renormalizing the initial density to the exact electron count on the 3D integration grid.
  | Initial density: Formal number of electrons (from input files) :      28.0000000000
  | Integrated number of electrons on 3D grid     :      28.0062648448
  | Charge integration error                      :       0.0062648448
  | Normalization factor for density and gradient :       0.9997763056
  Obtaining max. number of non-zero basis functions in each batch (get_n_compute_maxes).
  | Maximal number of non-zero basis functions:      545 in task     0
  Allocating        9.999 MB for KS_eigenvector_complex
  Integrating Hamiltonian matrix: batch-based integration.
  Time summed over all CPUs for integration: real work        0.733 s, elapsed        0.733 s
  Integrating overlap matrix.
  Time summed over all CPUs for integration: real work        0.682 s, elapsed        0.682 s
  Decreasing sparse matrix size:
   Tolerance:   9.9999998245167004E-014
   Hamiltonian matrix
  | Array has    40831 nonzero elements out of    48927 elements
  | Sparsity factor is 0.165
   Overlap matrix
  | Array has    39416 nonzero elements out of    48927 elements
  | Sparsity factor is 0.194
  New size of hamiltonian matrix:       41087

  Updating Kohn-Sham eigenvalues, eigenvectors, occupation numbers, and Fermi level.
  Solving generalized eigenproblem
  Transforming overlap matrix and checking for singularities.
  Overlap matrix is nonsingular at first k-point:
  | Lowest eigenvalue:  0.272704E-02

  Obtaining occupation numbers and chemical potential using ELSI.
  | Chemical potential (Fermi level):    -6.00000372eV
  Writing Kohn-Sham eigenvalues.
  K-point:       1 at    0.000000    0.000000    0.000000 (in units of recip. lattice)

  State    Occupation    Eigenvalue [Ha]    Eigenvalue [eV]
      1       2.00000         -65.522260        -1782.95140
      2       2.00000         -65.522260        -1782.95140
      3       2.00000          -5.125437         -139.47023
      4       2.00000          -5.124876         -139.45497
      5       2.00000          -3.539742          -96.32129
      6       2.00000          -3.539742          -96.32129
      7       2.00000          -3.539742          -96.32129
      8       2.00000          -3.538675          -96.29224
      9       2.00000          -3.538675          -96.29224
     10       2.00000          -3.538675          -96.29224
     11       2.00000          -0.711565          -19.36268
     12       2.00000          -0.244530           -6.65399
     13       2.00000          -0.244530           -6.65399
     14       2.00000          -0.244530           -6.65399
     15       0.00000          -0.136690           -3.71952
     16       0.00000          -0.136690           -3.71952
     17       0.00000          -0.136690           -3.71952
     18       0.00000          -0.061220           -1.66587
     19       0.00000           0.056828            1.54638
     20       0.00000           0.056828            1.54638

  What follows are estimated values for band gap, HOMO, LUMO, etc.
  | They are estimated on a discrete k-point grid and not necessarily exact.
  | For converged numbers, create a DOS and/or band structure plot on a denser k-grid.

  Highest occupied state (VBM) at     -6.65398812 eV (relative to internal zero)
  | Occupation number:      2.00000000
  | K-point:       1 at    0.000000    0.000000    0.000000 (in units of recip. lattice)

  Lowest unoccupied state (CBM) at    -5.95780865 eV (relative to internal zero)
  | Occupation number:      0.00000000
  | K-point:     690 at    0.583333    0.000000    0.583333 (in units of recip. lattice)

  ESTIMATED overall HOMO-LUMO gap:      0.69617947 eV between HOMO at k-point 1 and LUMO at k-point 690
  | This appears to be an indirect band gap.
  | Smallest direct gap :      2.93447112 eV for k_point 1 at    0.583333    0.000000    0.583333 (in units of recip. lattice)
  The gap value is above 0.2 eV. Unless you are using a very sparse k-point grid,
  this system is most likely an insulator or a semiconductor.
  Calculating total energy contributions from superposition of free atom densities.

  Total energy components:
  | Sum of eigenvalues            :        -328.58147105 Ha       -8941.15674838 eV
  | XC energy correction          :         -39.73528977 Ha       -1081.25224815 eV
  | XC potential correction       :          52.49618852 Ha        1428.49397065 eV
  | Free-atom electrostatic energy:        -262.91798028 Ha       -7154.36225349 eV
  | Hartree energy correction     :          -0.00000000 Ha          -0.00000000 eV
  | Entropy correction            :          -0.00000000 Ha          -0.00000000 eV
  | ---------------------------
  | Total energy                  :        -578.73855259 Ha      -15748.27727937 eV
  | Total energy, T -> 0          :        -578.73855259 Ha      -15748.27727937 eV  <-- do not rely on this value for anything but (periodic) metals
  | Electronic free energy        :        -578.73855259 Ha      -15748.27727937 eV

  Derived energy quantities:
  | Kinetic energy                :         579.91695825 Ha       15780.34332904 eV
  | Electrostatic energy          :       -1118.92022107 Ha      -30447.36836027 eV
  | Energy correction for multipole
  | error in Hartree potential    :           0.00000000 Ha           0.00000000 eV
  | Sum of eigenvalues per atom                           :       -4470.57837419 eV
  | Total energy (T->0) per atom                          :       -7874.13863969 eV  <-- do not rely on this value for anything but (periodic) metals
  | Electronic free energy per atom                       :       -7874.13863969 eV
  Initialize hartree_potential_storage
  Max. number of atoms included in rho_multipole:            2

  End scf initialization - timings             :  max(cpu_time)    wall_clock(cpu1)
  | Time for scf. initialization               :        2.743 s           2.743 s
  | Boundary condition initialization          :        0.041 s           0.040 s
  | Integration                                :        1.415 s           1.415 s
  | Solution of K.-S. eqns.                    :        1.035 s           1.034 s
  | Grid partitioning                          :        0.032 s           0.033 s
  | Preloading free-atom quantities on grid    :        0.001 s           0.000 s
  | Free-atom superposition energy             :        0.034 s           0.035 s
  | Total energy evaluation                    :        0.000 s           0.000 s

  Partial memory accounting:
  | Current value for overall tracked memory usage on task 0  :          10.821 MB
  | Peak value for overall tracked memory usage on task 0     :          14.545 MB after allocating wave
  | Largest tracked array allocation on task 0 so far         :           9.999 MB  when allocating +KS_eigenvector_complex
  Note:  These values currently only include a subset of arrays which are explicitly tracked.
  The "true" memory usage will be greater.
------------------------------------------------------------

------------------------------------------------------------
          Begin self-consistency iteration #    1

  Date     :  20190513, Time     :  134317.104
------------------------------------------------------------
  Evaluating new KS density using the density matrix
  Evaluating density matrix
  Time summed over all CPUs for getting density from density matrix: real work        1.193 s, elapsed        1.193 s
  Integration grid: deviation in total charge (<rho> - N_e) =   8.320455E-12
  Pulay mixing of updated and previous charge densities.

  Evaluating partitioned Hartree potential by multipole expansion.
  | Analytical far-field extrapolation by fixed multipoles:
  | Hartree multipole sum: apparent total charge =   0.647522E-02
  Summing up the Hartree potential.
  | Estimated reciprocal-space cutoff momentum G_max:         2.52493718 bohr^-1 .
  | Reciprocal lattice points for long-range Hartree potential:      58
  Time summed over all CPUs for potential: real work        0.360 s, elapsed        0.360 s
  | RMS charge density error from multipole expansion :   0.677686E-03
  | Average real-space part of the electrostatic potential :     -0.00460308 eV

  Integrating Hamiltonian matrix: batch-based integration.
  Time summed over all CPUs for integration: real work        0.701 s, elapsed        0.701 s

  Updating Kohn-Sham eigenvalues, eigenvectors, occupation numbers, and Fermi level.
  Solving generalized eigenproblem

  Obtaining occupation numbers and chemical potential using ELSI.
  | Chemical potential (Fermi level):    -5.99298176eV
  Writing Kohn-Sham eigenvalues.
  K-point:       1 at    0.000000    0.000000    0.000000 (in units of recip. lattice)

  State    Occupation    Eigenvalue [Ha]    Eigenvalue [eV]
      1       2.00000         -65.525821        -1783.04830
      2       2.00000         -65.525821        -1783.04830
      3       2.00000          -5.125903         -139.48291
      4       2.00000          -5.125343         -139.46767
      5       2.00000          -3.540309          -96.33670
      6       2.00000          -3.540309          -96.33670
      7       2.00000          -3.540309          -96.33670
      8       2.00000          -3.539244          -96.30773
      9       2.00000          -3.539244          -96.30773
     10       2.00000          -3.539244          -96.30773
     11       2.00000          -0.710961          -19.34623
     12       2.00000          -0.243628           -6.62946
     13       2.00000          -0.243628           -6.62946
     14       2.00000          -0.243628           -6.62946
     15       0.00000          -0.136258           -3.70776
     16       0.00000          -0.136258           -3.70776
     17       0.00000          -0.136258           -3.70776
     18       0.00000          -0.060448           -1.64489
     19       0.00000           0.057352            1.56064
     20       0.00000           0.057352            1.56064

  What follows are estimated values for band gap, HOMO, LUMO, etc.
  | They are estimated on a discrete k-point grid and not necessarily exact.
  | For converged numbers, create a DOS and/or band structure plot on a denser k-grid.

  Highest occupied state (VBM) at     -6.62946255 eV (relative to internal zero)
  | Occupation number:      2.00000000
  | K-point:       1 at    0.000000    0.000000    0.000000 (in units of recip. lattice)

  Lowest unoccupied state (CBM) at    -5.95078041 eV (relative to internal zero)
  | Occupation number:      0.00000000
  | K-point:     690 at    0.583333    0.000000    0.583333 (in units of recip. lattice)

  ESTIMATED overall HOMO-LUMO gap:      0.67868214 eV between HOMO at k-point 1 and LUMO at k-point 690
  | This appears to be an indirect band gap.
  | Smallest direct gap :      2.92170528 eV for k_point 1 at    0.583333    0.000000    0.583333 (in units of recip. lattice)
  The gap value is above 0.2 eV. Unless you are using a very sparse k-point grid,
  this system is most likely an insulator or a semiconductor.

  Total energy components:
  | Sum of eigenvalues            :        -328.59902166 Ha       -8941.63432468 eV
  | XC energy correction          :         -39.73918071 Ha       -1081.35812589 eV
  | XC potential correction       :          52.50132682 Ha        1428.63379094 eV
  | Free-atom electrostatic energy:        -262.91798028 Ha       -7154.36225349 eV
  | Hartree energy correction     :           0.01706653 Ha           0.46440397 eV
  | Entropy correction            :          -0.00000000 Ha          -0.00000000 eV
  | ---------------------------
  | Total energy                  :        -578.73778929 Ha      -15748.25650916 eV
  | Total energy, T -> 0          :        -578.73778929 Ha      -15748.25650916 eV  <-- do not rely on this value for anything but (periodic) metals
  | Electronic free energy        :        -578.73778929 Ha      -15748.25650916 eV

  Derived energy quantities:
  | Kinetic energy                :         579.75465858 Ha       15775.92693042 eV
  | Electrostatic energy          :       -1118.75326717 Ha      -30442.82531368 eV
  | Energy correction for multipole
  | error in Hartree potential    :           0.00091670 Ha           0.02494458 eV
  | Sum of eigenvalues per atom                           :       -4470.81716234 eV
  | Total energy (T->0) per atom                          :       -7874.12825458 eV  <-- do not rely on this value for anything but (periodic) metals
  | Electronic free energy per atom                       :       -7874.12825458 eV

  Self-consistency convergence accuracy:
  | Change of charge density      :  0.1188E+00
  | Change of sum of eigenvalues  : -0.4776E+00 eV
  | Change of total energy        :  0.2077E-01 eV

  End self-consistency iteration #     1       :  max(cpu_time)    wall_clock(cpu1)
  | Time for this iteration                    :        2.896 s           2.896 s
  | Charge density update                      :        1.263 s           1.263 s
  | Density mixing & preconditioning           :        0.048 s           0.049 s
  | Hartree multipole update                   :        0.001 s           0.001 s
  | Hartree multipole summation                :        0.363 s           0.363 s
  | Integration                                :        0.701 s           0.701 s
  | Solution of K.-S. eqns.                    :        0.519 s           0.518 s
  | Total energy evaluation                    :        0.000 s           0.000 s

  Partial memory accounting:
  | Current value for overall tracked memory usage on task 0  :          10.821 MB
  | Peak value for overall tracked memory usage on task 0     :          14.545 MB after allocating wave
  | Largest tracked array allocation on task 0 so far         :           9.999 MB  when allocating +KS_eigenvector_complex
  Note:  These values currently only include a subset of arrays which are explicitly tracked.
  The "true" memory usage will be greater.
------------------------------------------------------------

------------------------------------------------------------
          Begin self-consistency iteration #    2

  Date     :  20190513, Time     :  134320.000
------------------------------------------------------------
  Evaluating new KS density using the density matrix
  Evaluating density matrix
  Time summed over all CPUs for getting density from density matrix: real work        1.191 s, elapsed        1.191 s
  Integration grid: deviation in total charge (<rho> - N_e) =   8.331114E-12
  Pulay mixing of updated and previous charge densities.

  Evaluating partitioned Hartree potential by multipole expansion.
  | Analytical far-field extrapolation by fixed multipoles:
  | Hartree multipole sum: apparent total charge =   0.103106E-01
  Summing up the Hartree potential.
  Time summed over all CPUs for potential: real work        0.437 s, elapsed        0.437 s
  | RMS charge density error from multipole expansion :   0.132490E-01
  | Average real-space part of the electrostatic potential :      0.43971746 eV

  Integrating Hamiltonian matrix: batch-based integration.
  Time summed over all CPUs for integration: real work        0.704 s, elapsed        0.704 s

  Updating Kohn-Sham eigenvalues, eigenvectors, occupation numbers, and Fermi level.
  Solving generalized eigenproblem

  Obtaining occupation numbers and chemical potential using ELSI.
  | Chemical potential (Fermi level):    -5.81964133eV
  What follows are estimated values for band gap, HOMO, LUMO, etc.
  | They are estimated on a discrete k-point grid and not necessarily exact.
  | For converged numbers, create a DOS and/or band structure plot on a denser k-grid.

  Highest occupied state (VBM) at     -5.97008503 eV (relative to internal zero)
  | Occupation number:      2.00000000
  | K-point:       1 at    0.000000    0.000000    0.000000 (in units of recip. lattice)

  Lowest unoccupied state (CBM) at    -5.77743859 eV (relative to internal zero)
  | Occupation number:      0.00000000
  | K-point:      48 at    0.000000    0.416667    0.416667 (in units of recip. lattice)

  ESTIMATED overall HOMO-LUMO gap:      0.19264644 eV between HOMO at k-point 1 and LUMO at k-point 48
  | This appears to be an indirect band gap.
  | Smallest direct gap :      2.58403109 eV for k_point 1 at    0.000000    0.416667    0.416667 (in units of recip. lattice)
  The gap value is rather small. This may be a metal or a small-gap semiconductor.
  Since we use a finite k-point grid, a DOS and/or band structure plot is required
  for an unambiguous assignment.

  Checking to see if s.c.f. parameters should be adjusted.
  Adjusted the Pulay mixing parameter (charge_mix_param) for an expected low-gap system. New value:   0.020000 .
  Adjusted the occupation broadening width for an expected low-gap system. New value:      0.05000000 eV.

  Total energy components:
  | Sum of eigenvalues            :        -327.49250558 Ha       -8911.52449018 eV
  | XC energy correction          :         -39.82468913 Ha       -1083.68492858 eV
  | XC potential correction       :          52.61420079 Ha        1431.70524788 eV
  | Free-atom electrostatic energy:        -262.91798028 Ha       -7154.36225349 eV
  | Hartree energy correction     :          -1.10919374 Ha         -30.18269745 eV
  | Entropy correction            :          -0.00000088 Ha          -0.00002403 eV
  | ---------------------------
  | Total energy                  :        -578.73016795 Ha      -15748.04912183 eV
  | Total energy, T -> 0          :        -578.73016883 Ha      -15748.04914585 eV  <-- do not rely on this value for anything but (periodic) metals
  | Electronic free energy        :        -578.73016972 Ha      -15748.04916988 eV

  Derived energy quantities:
  | Kinetic energy                :         580.29155441 Ha       15790.53660917 eV
  | Electrostatic energy          :       -1119.19703323 Ha      -30454.90080241 eV
  | Energy correction for multipole
  | error in Hartree potential    :           0.01789144 Ha           0.48685074 eV
  | Sum of eigenvalues per atom                           :       -4455.76224509 eV
  | Total energy (T->0) per atom                          :       -7874.02457293 eV  <-- do not rely on this value for anything but (periodic) metals
  | Electronic free energy per atom                       :       -7874.02458494 eV

  Self-consistency convergence accuracy:
  | Change of charge density      :  0.1128E+00
  | Change of sum of eigenvalues  :  0.3011E+02 eV
  | Change of total energy        :  0.2074E+00 eV

  End self-consistency iteration #     2       :  max(cpu_time)    wall_clock(cpu1)
  | Time for this iteration                    :        2.975 s           2.975 s
  | Charge density update                      :        1.261 s           1.261 s
  | Density mixing & preconditioning           :        0.045 s           0.045 s
  | Hartree multipole update                   :        0.001 s           0.000 s
  | Hartree multipole summation                :        0.440 s           0.441 s
  | Integration                                :        0.704 s           0.704 s
  | Solution of K.-S. eqns.                    :        0.523 s           0.523 s
  | Total energy evaluation                    :        0.000 s           0.001 s

  Partial memory accounting:
  | Current value for overall tracked memory usage on task 0  :          10.822 MB
  | Peak value for overall tracked memory usage on task 0     :          14.545 MB after allocating wave
  | Largest tracked array allocation on task 0 so far         :           9.999 MB  when allocating +KS_eigenvector_complex
  Note:  These values currently only include a subset of arrays which are explicitly tracked.
  The "true" memory usage will be greater.
------------------------------------------------------------

------------------------------------------------------------
          Begin self-consistency iteration #    3

  Date     :  20190513, Time     :  134322.975
------------------------------------------------------------
  Evaluating new KS density using the density matrix
  Evaluating density matrix
  Time summed over all CPUs for getting density from density matrix: real work        1.191 s, elapsed        1.191 s
  Integration grid: deviation in total charge (<rho> - N_e) =   8.228085E-12
  Pulay mixing of updated and previous charge densities.

  Evaluating partitioned Hartree potential by multipole expansion.
  | Analytical far-field extrapolation by fixed multipoles:
  | Hartree multipole sum: apparent total charge =   0.101526E-01
  Summing up the Hartree potential.
  Time summed over all CPUs for potential: real work        0.435 s, elapsed        0.435 s
  | RMS charge density error from multipole expansion :   0.128484E-01
  | Average real-space part of the electrostatic potential :      0.42547312 eV

  Integrating Hamiltonian matrix: batch-based integration.
  Time summed over all CPUs for integration: real work        0.703 s, elapsed        0.703 s

  Updating Kohn-Sham eigenvalues, eigenvectors, occupation numbers, and Fermi level.
  Solving generalized eigenproblem

  Obtaining occupation numbers and chemical potential using ELSI.
  | Chemical potential (Fermi level):    -5.89176047eV
  What follows are estimated values for band gap, HOMO, LUMO, etc.
  | They are estimated on a discrete k-point grid and not necessarily exact.
  | For converged numbers, create a DOS and/or band structure plot on a denser k-grid.

  Highest occupied state (VBM) at     -5.99187208 eV (relative to internal zero)
  | Occupation number:      1.99536819
  | K-point:       1 at    0.000000    0.000000    0.000000 (in units of recip. lattice)

  Lowest unoccupied state (CBM) at    -5.78405356 eV (relative to internal zero)
  | Occupation number:      0.00231591
  | K-point:      48 at    0.000000    0.416667    0.416667 (in units of recip. lattice)

  ESTIMATED overall HOMO-LUMO gap:      0.20781852 eV between HOMO at k-point 1 and LUMO at k-point 48
  | This appears to be an indirect band gap.
  | Smallest direct gap :      2.59506699 eV for k_point 1 at    0.000000    0.416667    0.416667 (in units of recip. lattice)
  The gap value is above 0.2 eV. Unless you are using a very sparse k-point grid,
  this system is most likely an insulator or a semiconductor.

  Total energy components:
  | Sum of eigenvalues            :        -327.53066532 Ha       -8912.56286963 eV
  | XC energy correction          :         -39.82125142 Ha       -1083.59138355 eV
  | XC potential correction       :          52.60966137 Ha        1431.58172382 eV
  | Free-atom electrostatic energy:        -262.91798028 Ha       -7154.36225349 eV
  | Hartree energy correction     :          -1.06981848 Ha         -29.11124209 eV
  | Entropy correction            :          -0.00000003 Ha          -0.00000092 eV
  | ---------------------------
  | Total energy                  :        -578.73005414 Ha      -15748.04602494 eV
  | Total energy, T -> 0          :        -578.73005417 Ha      -15748.04602585 eV  <-- do not rely on this value for anything but (periodic) metals
  | Electronic free energy        :        -578.73005421 Ha      -15748.04602677 eV

  Derived energy quantities:
  | Kinetic energy                :         580.26941657 Ha       15789.93420786 eV
  | Electrostatic energy          :       -1119.17821929 Ha      -30454.38884924 eV
  | Energy correction for multipole
  | error in Hartree potential    :           0.01734040 Ha           0.47185627 eV
  | Sum of eigenvalues per atom                           :       -4456.28143481 eV
  | Total energy (T->0) per atom                          :       -7874.02301293 eV  <-- do not rely on this value for anything but (periodic) metals
  | Electronic free energy per atom                       :       -7874.02301338 eV

  Self-consistency convergence accuracy:
  | Change of charge density      :  0.1951E-01
  | Change of sum of eigenvalues  : -0.1038E+01 eV
  | Change of total energy        :  0.3097E-02 eV

  End self-consistency iteration #     3       :  max(cpu_time)    wall_clock(cpu1)
  | Time for this iteration                    :        2.971 s           2.971 s
  | Charge density update                      :        1.262 s           1.262 s
  | Density mixing & preconditioning           :        0.045 s           0.045 s
  | Hartree multipole update                   :        0.001 s           0.001 s
  | Hartree multipole summation                :        0.438 s           0.438 s
  | Integration                                :        0.703 s           0.703 s
  | Solution of K.-S. eqns.                    :        0.521 s           0.521 s
  | Total energy evaluation                    :        0.000 s           0.001 s

  Partial memory accounting:
  | Current value for overall tracked memory usage on task 0  :          10.823 MB
  | Peak value for overall tracked memory usage on task 0     :          14.545 MB after allocating wave
  | Largest tracked array allocation on task 0 so far         :           9.999 MB  when allocating +KS_eigenvector_complex
  Note:  These values currently only include a subset of arrays which are explicitly tracked.
  The "true" memory usage will be greater.
------------------------------------------------------------

------------------------------------------------------------
          Begin self-consistency iteration #    4

  Date     :  20190513, Time     :  134325.946
------------------------------------------------------------
  Evaluating new KS density using the density matrix
  Evaluating density matrix
  Time summed over all CPUs for getting density from density matrix: real work        1.186 s, elapsed        1.186 s
  Integration grid: deviation in total charge (<rho> - N_e) =   8.547829E-12
  Pulay mixing of updated and previous charge densities.

  Evaluating partitioned Hartree potential by multipole expansion.
  | Analytical far-field extrapolation by fixed multipoles:
  | Hartree multipole sum: apparent total charge =   0.150889E-01
  Summing up the Hartree potential.
  Time summed over all CPUs for potential: real work        0.437 s, elapsed        0.437 s
  | RMS charge density error from multipole expansion :   0.145048E-01
  | Average real-space part of the electrostatic potential :      0.49642862 eV

  Integrating Hamiltonian matrix: batch-based integration.
  Time summed over all CPUs for integration: real work        0.700 s, elapsed        0.700 s

  Updating Kohn-Sham eigenvalues, eigenvectors, occupation numbers, and Fermi level.
  Solving generalized eigenproblem

  Obtaining occupation numbers and chemical potential using ELSI.
  | Chemical potential (Fermi level):    -5.82713445eV
  What follows are estimated values for band gap, HOMO, LUMO, etc.
  | They are estimated on a discrete k-point grid and not necessarily exact.
  | For converged numbers, create a DOS and/or band structure plot on a denser k-grid.

  Highest occupied state (VBM) at     -5.89647976 eV (relative to internal zero)
  | Occupation number:      1.95016548
  | K-point:       1 at    0.000000    0.000000    0.000000 (in units of recip. lattice)

  Lowest unoccupied state (CBM) at    -5.74784381 eV (relative to internal zero)
  | Occupation number:      0.02491759
  | K-point:      48 at    0.000000    0.416667    0.416667 (in units of recip. lattice)

  ESTIMATED overall HOMO-LUMO gap:      0.14863595 eV between HOMO at k-point 1 and LUMO at k-point 48
  | This appears to be an indirect band gap.
  | Smallest direct gap :      2.55140642 eV for k_point 1 at    0.000000    0.416667    0.416667 (in units of recip. lattice)
  The gap value is rather small. This may be a metal or a small-gap semiconductor.
  Since we use a finite k-point grid, a DOS and/or band structure plot is required
  for an unambiguous assignment.

  Total energy components:
  | Sum of eigenvalues            :        -327.04930554 Ha       -8899.46440339 eV
  | XC energy correction          :         -39.87589646 Ha       -1085.07835093 eV
  | XC potential correction       :          52.68212996 Ha        1433.55369455 eV
  | Free-atom electrostatic energy:        -262.91798028 Ha       -7154.36225349 eV
  | Hartree energy correction     :          -1.57014803 Ha         -42.72590175 eV
  | Entropy correction            :          -0.00000028 Ha          -0.00000754 eV
  | ---------------------------
  | Total energy                  :        -578.73120036 Ha      -15748.07721501 eV
  | Total energy, T -> 0          :        -578.73120063 Ha      -15748.07722255 eV  <-- do not rely on this value for anything but (periodic) metals
  | Electronic free energy        :        -578.73120091 Ha      -15748.07723009 eV

  Derived energy quantities:
  | Kinetic energy                :         581.00776245 Ha       15810.02562139 eV
  | Electrostatic energy          :       -1119.86306634 Ha      -30473.02448547 eV
  | Energy correction for multipole
  | error in Hartree potential    :           0.02059211 Ha           0.56033977 eV
  | Sum of eigenvalues per atom                           :       -4449.73220169 eV
  | Total energy (T->0) per atom                          :       -7874.03861127 eV  <-- do not rely on this value for anything but (periodic) metals
  | Electronic free energy per atom                       :       -7874.03861504 eV

  Self-consistency convergence accuracy:
  | Change of charge density      :  0.1751E-01
  | Change of sum of eigenvalues  :  0.1310E+02 eV
  | Change of total energy        : -0.3119E-01 eV

  End self-consistency iteration #     4       :  max(cpu_time)    wall_clock(cpu1)
  | Time for this iteration                    :        2.965 s           2.965 s
  | Charge density update                      :        1.256 s           1.256 s
  | Density mixing & preconditioning           :        0.046 s           0.046 s
  | Hartree multipole update                   :        0.001 s           0.001 s
  | Hartree multipole summation                :        0.440 s           0.440 s
  | Integration                                :        0.699 s           0.700 s
  | Solution of K.-S. eqns.                    :        0.522 s           0.522 s
  | Total energy evaluation                    :        0.000 s           0.000 s

  Partial memory accounting:
  | Current value for overall tracked memory usage on task 0  :          10.823 MB
  | Peak value for overall tracked memory usage on task 0     :          14.545 MB after allocating wave
  | Largest tracked array allocation on task 0 so far         :           9.999 MB  when allocating +KS_eigenvector_complex
  Note:  These values currently only include a subset of arrays which are explicitly tracked.
  The "true" memory usage will be greater.
------------------------------------------------------------

------------------------------------------------------------
          Begin self-consistency iteration #    5

  Date     :  20190513, Time     :  134328.911
------------------------------------------------------------
  Evaluating new KS density using the density matrix
  Evaluating density matrix
  Time summed over all CPUs for getting density from density matrix: real work        1.182 s, elapsed        1.182 s
  Integration grid: deviation in total charge (<rho> - N_e) =   8.292034E-12
  Pulay mixing of updated and previous charge densities.

  Evaluating partitioned Hartree potential by multipole expansion.
  | Analytical far-field extrapolation by fixed multipoles:
  | Hartree multipole sum: apparent total charge =   0.138202E-01
  Summing up the Hartree potential.
  Time summed over all CPUs for potential: real work        0.435 s, elapsed        0.435 s
  | RMS charge density error from multipole expansion :   0.141223E-01
  | Average real-space part of the electrostatic potential :      0.47481856 eV

  Integrating Hamiltonian matrix: batch-based integration.
  Time summed over all CPUs for integration: real work        0.707 s, elapsed        0.707 s

  Updating Kohn-Sham eigenvalues, eigenvectors, occupation numbers, and Fermi level.
  Solving generalized eigenproblem

  Obtaining occupation numbers and chemical potential using ELSI.
  | Chemical potential (Fermi level):    -5.84832369eV
  What follows are estimated values for band gap, HOMO, LUMO, etc.
  | They are estimated on a discrete k-point grid and not necessarily exact.
  | For converged numbers, create a DOS and/or band structure plot on a denser k-grid.

  Highest occupied state (VBM) at     -5.92947790 eV (relative to internal zero)
  | Occupation number:      1.97828909
  | K-point:       1 at    0.000000    0.000000    0.000000 (in units of recip. lattice)

  Lowest unoccupied state (CBM) at    -5.75826247 eV (relative to internal zero)
  | Occupation number:      0.01085551
  | K-point:      48 at    0.000000    0.416667    0.416667 (in units of recip. lattice)

  ESTIMATED overall HOMO-LUMO gap:      0.17121543 eV between HOMO at k-point 1 and LUMO at k-point 48
  | This appears to be an indirect band gap.
  | Smallest direct gap :      2.56675838 eV for k_point 1 at    0.000000    0.416667    0.416667 (in units of recip. lattice)
  The gap value is rather small. This may be a metal or a small-gap semiconductor.
  Since we use a finite k-point grid, a DOS and/or band structure plot is required
  for an unambiguous assignment.

  Total energy components:
  | Sum of eigenvalues            :        -327.16257560 Ha       -8902.54663868 eV
  | XC energy correction          :         -39.86481752 Ha       -1084.77687767 eV
  | XC potential correction       :          52.66745190 Ha        1433.15428432 eV
  | Free-atom electrostatic energy:        -262.91798028 Ha       -7154.36225349 eV
  | Hartree energy correction     :          -1.45285422 Ha         -39.53417473 eV
  | Entropy correction            :          -0.00000013 Ha          -0.00000367 eV
  | ---------------------------
  | Total energy                  :        -578.73077573 Ha      -15748.06566024 eV
  | Total energy, T -> 0          :        -578.73077586 Ha      -15748.06566391 eV  <-- do not rely on this value for anything but (periodic) metals
  | Electronic free energy        :        -578.73077599 Ha      -15748.06566758 eV

  Derived energy quantities:
  | Kinetic energy                :         580.87335615 Ha       15806.36824009 eV
  | Electrostatic energy          :       -1119.73931435 Ha      -30469.65702267 eV
  | Energy correction for multipole
  | error in Hartree potential    :           0.01993812 Ha           0.54254397 eV
  | Sum of eigenvalues per atom                           :       -4451.27331934 eV
  | Total energy (T->0) per atom                          :       -7874.03283196 eV  <-- do not rely on this value for anything but (periodic) metals
  | Electronic free energy per atom                       :       -7874.03283379 eV

  Self-consistency convergence accuracy:
  | Change of charge density      :  0.5166E-01
  | Change of sum of eigenvalues  : -0.3082E+01 eV
  | Change of total energy        :  0.1155E-01 eV

  End self-consistency iteration #     5       :  max(cpu_time)    wall_clock(cpu1)
  | Time for this iteration                    :        2.968 s           2.968 s
  | Charge density update                      :        1.252 s           1.252 s
  | Density mixing & preconditioning           :        0.045 s           0.045 s
  | Hartree multipole update                   :        0.001 s           0.000 s
  | Hartree multipole summation                :        0.439 s           0.439 s
  | Integration                                :        0.707 s           0.707 s
  | Solution of K.-S. eqns.                    :        0.524 s           0.524 s
  | Total energy evaluation                    :        0.000 s           0.000 s

  Partial memory accounting:
  | Current value for overall tracked memory usage on task 0  :          10.823 MB
  | Peak value for overall tracked memory usage on task 0     :          14.545 MB after allocating wave
  | Largest tracked array allocation on task 0 so far         :           9.999 MB  when allocating +KS_eigenvector_complex
  Note:  These values currently only include a subset of arrays which are explicitly tracked.
  The "true" memory usage will be greater.
------------------------------------------------------------

------------------------------------------------------------
          Begin self-consistency iteration #    6

  Date     :  20190513, Time     :  134331.879
------------------------------------------------------------
  Evaluating new KS density using the density matrix
  Evaluating density matrix
  Time summed over all CPUs for getting density from density matrix: real work        1.254 s, elapsed        1.254 s
  Integration grid: deviation in total charge (<rho> - N_e) =   8.224532E-12
  Pulay mixing of updated and previous charge densities.

  Evaluating partitioned Hartree potential by multipole expansion.
  | Analytical far-field extrapolation by fixed multipoles:
  | Hartree multipole sum: apparent total charge =   0.963689E-02
  Summing up the Hartree potential.
  Time summed over all CPUs for potential: real work        0.435 s, elapsed        0.435 s
  | RMS charge density error from multipole expansion :   0.138595E-01
  | Average real-space part of the electrostatic potential :      0.43376960 eV

  Integrating Hamiltonian matrix: batch-based integration.
  Time summed over all CPUs for integration: real work        0.782 s, elapsed        0.782 s

  Updating Kohn-Sham eigenvalues, eigenvectors, occupation numbers, and Fermi level.
  Solving generalized eigenproblem

  Obtaining occupation numbers and chemical potential using ELSI.
  | Chemical potential (Fermi level):    -5.88917975eV
  What follows are estimated values for band gap, HOMO, LUMO, etc.
  | They are estimated on a discrete k-point grid and not necessarily exact.
  | For converged numbers, create a DOS and/or band structure plot on a denser k-grid.

  Highest occupied state (VBM) at     -5.99344838 eV (relative to internal zero)
  | Occupation number:      1.99681363
  | K-point:       1 at    0.000000    0.000000    0.000000 (in units of recip. lattice)

  Lowest unoccupied state (CBM) at    -5.77755759 eV (relative to internal zero)
  | Occupation number:      0.00159319
  | K-point:      48 at    0.000000    0.416667    0.416667 (in units of recip. lattice)

  ESTIMATED overall HOMO-LUMO gap:      0.21589078 eV between HOMO at k-point 1 and LUMO at k-point 48
  | This appears to be an indirect band gap.
  | Smallest direct gap :      2.59418648 eV for k_point 1 at    0.000000    0.416667    0.416667 (in units of recip. lattice)
  The gap value is above 0.2 eV. Unless you are using a very sparse k-point grid,
  this system is most likely an insulator or a semiconductor.

  Total energy components:
  | Sum of eigenvalues            :        -327.46573224 Ha       -8910.79595044 eV
  | XC energy correction          :         -39.83540182 Ha       -1083.97643574 eV
  | XC potential correction       :          52.62844507 Ha        1432.09285450 eV
  | Free-atom electrostatic energy:        -262.91798028 Ha       -7154.36225349 eV
  | Hartree energy correction     :          -1.13931007 Ha         -31.00220440 eV
  | Entropy correction            :          -0.00000002 Ha          -0.00000065 eV
  | ---------------------------
  | Total energy                  :        -578.72997934 Ha      -15748.04398957 eV
  | Total energy, T -> 0          :        -578.72997937 Ha      -15748.04399022 eV  <-- do not rely on this value for anything but (periodic) metals
  | Electronic free energy        :        -578.72997939 Ha      -15748.04399087 eV

  Derived energy quantities:
  | Kinetic energy                :         580.46841259 Ha       15795.34916512 eV
  | Electrostatic energy          :       -1119.36299011 Ha      -30459.41671895 eV
  | Energy correction for multipole
  | error in Hartree potential    :           0.01915332 Ha           0.52118849 eV
  | Sum of eigenvalues per atom                           :       -4455.39797522 eV
  | Total energy (T->0) per atom                          :       -7874.02199511 eV  <-- do not rely on this value for anything but (periodic) metals
  | Electronic free energy per atom                       :       -7874.02199544 eV

  Self-consistency convergence accuracy:
  | Change of charge density      :  0.4414E-01
  | Change of sum of eigenvalues  : -0.8249E+01 eV
  | Change of total energy        :  0.2167E-01 eV

  End self-consistency iteration #     6       :  max(cpu_time)    wall_clock(cpu1)
  | Time for this iteration                    :        3.117 s           3.117 s
  | Charge density update                      :        1.326 s           1.326 s
  | Density mixing & preconditioning           :        0.045 s           0.044 s
  | Hartree multipole update                   :        0.001 s           0.001 s
  | Hartree multipole summation                :        0.438 s           0.439 s
  | Integration                                :        0.783 s           0.782 s
  | Solution of K.-S. eqns.                    :        0.524 s           0.525 s
  | Total energy evaluation                    :        0.000 s           0.000 s

  Partial memory accounting:
  | Current value for overall tracked memory usage on task 0  :          10.824 MB
  | Peak value for overall tracked memory usage on task 0     :          14.545 MB after allocating wave
  | Largest tracked array allocation on task 0 so far         :           9.999 MB  when allocating +KS_eigenvector_complex
  Note:  These values currently only include a subset of arrays which are explicitly tracked.
  The "true" memory usage will be greater.
------------------------------------------------------------

------------------------------------------------------------
          Begin self-consistency iteration #    7

  Date     :  20190513, Time     :  134334.996
------------------------------------------------------------
  Evaluating new KS density using the density matrix
  Evaluating density matrix
  Time summed over all CPUs for getting density from density matrix: real work        1.186 s, elapsed        1.186 s
  Integration grid: deviation in total charge (<rho> - N_e) =   8.363088E-12
  Pulay mixing of updated and previous charge densities.

  Evaluating partitioned Hartree potential by multipole expansion.
  | Analytical far-field extrapolation by fixed multipoles:
  | Hartree multipole sum: apparent total charge =   0.884020E-02
  Summing up the Hartree potential.
  Time summed over all CPUs for potential: real work        0.440 s, elapsed        0.440 s
  | RMS charge density error from multipole expansion :   0.136735E-01
  | Average real-space part of the electrostatic potential :      0.42015865 eV

  Integrating Hamiltonian matrix: batch-based integration.
  Time summed over all CPUs for integration: real work        0.712 s, elapsed        0.712 s

  Updating Kohn-Sham eigenvalues, eigenvectors, occupation numbers, and Fermi level.
  Solving generalized eigenproblem

  Obtaining occupation numbers and chemical potential using ELSI.
  | Chemical potential (Fermi level):    -5.90139263eV
  What follows are estimated values for band gap, HOMO, LUMO, etc.
  | They are estimated on a discrete k-point grid and not necessarily exact.
  | For converged numbers, create a DOS and/or band structure plot on a denser k-grid.

  Highest occupied state (VBM) at     -6.01220003 eV (relative to internal zero)
  | Occupation number:      1.99827622
  | K-point:       1 at    0.000000    0.000000    0.000000 (in units of recip. lattice)

  Lowest unoccupied state (CBM) at    -5.78358467 eV (relative to internal zero)
  | Occupation number:      0.00086189
  | K-point:      48 at    0.000000    0.416667    0.416667 (in units of recip. lattice)

  ESTIMATED overall HOMO-LUMO gap:      0.22861535 eV between HOMO at k-point 1 and LUMO at k-point 48
  | This appears to be an indirect band gap.
  | Smallest direct gap :      2.60253985 eV for k_point 1 at    0.000000    0.416667    0.416667 (in units of recip. lattice)
  The gap value is above 0.2 eV. Unless you are using a very sparse k-point grid,
  this system is most likely an insulator or a semiconductor.

  Total energy components:
  | Sum of eigenvalues            :        -327.55016929 Ha       -8913.09359952 eV
  | XC energy correction          :         -39.82683884 Ha       -1083.74342522 eV
  | XC potential correction       :          52.61709453 Ha        1431.78399057 eV
  | Free-atom electrostatic energy:        -262.91798028 Ha       -7154.36225349 eV
  | Hartree energy correction     :          -1.05194241 Ha         -28.62480942 eV
  | Entropy correction            :          -0.00000001 Ha          -0.00000037 eV
  | ---------------------------
  | Total energy                  :        -578.72983630 Ha      -15748.04009708 eV
  | Total energy, T -> 0          :        -578.72983631 Ha      -15748.04009745 eV  <-- do not rely on this value for anything but (periodic) metals
  | Electronic free energy        :        -578.72983632 Ha      -15748.04009782 eV

  Derived energy quantities:
  | Kinetic energy                :         580.35978250 Ha       15792.39318981 eV
  | Electrostatic energy          :       -1119.26277995 Ha      -30456.68986168 eV
  | Energy correction for multipole
  | error in Hartree potential    :           0.01877370 Ha           0.51085837 eV
  | Sum of eigenvalues per atom                           :       -4456.54679976 eV
  | Total energy (T->0) per atom                          :       -7874.02004872 eV  <-- do not rely on this value for anything but (periodic) metals
  | Electronic free energy per atom                       :       -7874.02004891 eV

  Self-consistency convergence accuracy:
  | Change of charge density      :  0.2378E-01
  | Change of sum of eigenvalues  : -0.2298E+01 eV
  | Change of total energy        :  0.3892E-02 eV

  End self-consistency iteration #     7       :  max(cpu_time)    wall_clock(cpu1)
  | Time for this iteration                    :        2.982 s           2.982 s
  | Charge density update                      :        1.256 s           1.256 s
  | Density mixing & preconditioning           :        0.044 s           0.045 s
  | Hartree multipole update                   :        0.001 s           0.000 s
  | Hartree multipole summation                :        0.443 s           0.444 s
  | Integration                                :        0.712 s           0.712 s
  | Solution of K.-S. eqns.                    :        0.524 s           0.524 s
  | Total energy evaluation                    :        0.000 s           0.001 s

  Partial memory accounting:
  | Current value for overall tracked memory usage on task 0  :          10.824 MB
  | Peak value for overall tracked memory usage on task 0     :          14.545 MB after allocating wave
  | Largest tracked array allocation on task 0 so far         :           9.999 MB  when allocating +KS_eigenvector_complex
  Note:  These values currently only include a subset of arrays which are explicitly tracked.
  The "true" memory usage will be greater.
------------------------------------------------------------

------------------------------------------------------------
          Begin self-consistency iteration #    8

  Date     :  20190513, Time     :  134337.978
------------------------------------------------------------
  Evaluating new KS density using the density matrix
  Evaluating density matrix
  Time summed over all CPUs for getting density from density matrix: real work        1.194 s, elapsed        1.194 s
  Integration grid: deviation in total charge (<rho> - N_e) =   8.348877E-12
  Pulay mixing of updated and previous charge densities.

  Evaluating partitioned Hartree potential by multipole expansion.
  | Analytical far-field extrapolation by fixed multipoles:
  | Hartree multipole sum: apparent total charge =   0.614216E-02
  Summing up the Hartree potential.
  Time summed over all CPUs for potential: real work        0.440 s, elapsed        0.440 s
  | RMS charge density error from multipole expansion :   0.135902E-01
  | Average real-space part of the electrostatic potential :      0.38992588 eV

  Integrating Hamiltonian matrix: batch-based integration.
  Time summed over all CPUs for integration: real work        0.703 s, elapsed        0.703 s

  Updating Kohn-Sham eigenvalues, eigenvectors, occupation numbers, and Fermi level.
  Solving generalized eigenproblem

  Obtaining occupation numbers and chemical potential using ELSI.
  | Chemical potential (Fermi level):    -5.92998737eV
  What follows are estimated values for band gap, HOMO, LUMO, etc.
  | They are estimated on a discrete k-point grid and not necessarily exact.
  | For converged numbers, create a DOS and/or band structure plot on a denser k-grid.

  Highest occupied state (VBM) at     -6.05723858 eV (relative to internal zero)
  | Occupation number:      1.99968081
  | K-point:       1 at    0.000000    0.000000    0.000000 (in units of recip. lattice)

  Lowest unoccupied state (CBM) at    -5.79649830 eV (relative to internal zero)
  | Occupation number:      0.00015960
  | K-point:      48 at    0.000000    0.416667    0.416667 (in units of recip. lattice)

  ESTIMATED overall HOMO-LUMO gap:      0.26074028 eV between HOMO at k-point 1 and LUMO at k-point 48
  | This appears to be an indirect band gap.
  | Smallest direct gap :      2.62152503 eV for k_point 1 at    0.000000    0.416667    0.416667 (in units of recip. lattice)
  The gap value is above 0.2 eV. Unless you are using a very sparse k-point grid,
  this system is most likely an insulator or a semiconductor.

  Total energy components:
  | Sum of eigenvalues            :        -327.76891913 Ha       -8919.04608566 eV
  | XC energy correction          :         -39.80621604 Ha       -1083.18225010 eV
  | XC potential correction       :          52.58975131 Ha        1431.03994375 eV
  | Free-atom electrostatic energy:        -262.91798028 Ha       -7154.36225349 eV
  | Hartree energy correction     :          -0.82621418 Ha         -22.48243181 eV
  | Entropy correction            :          -0.00000000 Ha          -0.00000008 eV
  | ---------------------------
  | Total energy                  :        -578.72957832 Ha      -15748.03307731 eV
  | Total energy, T -> 0          :        -578.72957833 Ha      -15748.03307739 eV  <-- do not rely on this value for anything but (periodic) metals
  | Electronic free energy        :        -578.72957833 Ha      -15748.03307747 eV

  Derived energy quantities:
  | Kinetic energy                :         580.08310046 Ha       15784.86428864 eV
  | Electrostatic energy          :       -1119.00646275 Ha      -30449.71511585 eV
  | Energy correction for multipole
  | error in Hartree potential    :           0.01836976 Ha           0.49986673 eV
  | Sum of eigenvalues per atom                           :       -4459.52304283 eV
  | Total energy (T->0) per atom                          :       -7874.01653870 eV  <-- do not rely on this value for anything but (periodic) metals
  | Electronic free energy per atom                       :       -7874.01653873 eV

  Self-consistency convergence accuracy:
  | Change of charge density      :  0.1809E-01
  | Change of sum of eigenvalues  : -0.5952E+01 eV
  | Change of total energy        :  0.7020E-02 eV

  End self-consistency iteration #     8       :  max(cpu_time)    wall_clock(cpu1)
  | Time for this iteration                    :        2.981 s           2.981 s
  | Charge density update                      :        1.265 s           1.265 s
  | Density mixing & preconditioning           :        0.044 s           0.044 s
  | Hartree multipole update                   :        0.001 s           0.001 s
  | Hartree multipole summation                :        0.443 s           0.443 s
  | Integration                                :        0.704 s           0.703 s
  | Solution of K.-S. eqns.                    :        0.524 s           0.524 s
  | Total energy evaluation                    :        0.000 s           0.001 s

  Partial memory accounting:
  | Current value for overall tracked memory usage on task 0  :          10.824 MB
  | Peak value for overall tracked memory usage on task 0     :          14.545 MB after allocating wave
  | Largest tracked array allocation on task 0 so far         :           9.999 MB  when allocating +KS_eigenvector_complex
  Note:  These values currently only include a subset of arrays which are explicitly tracked.
  The "true" memory usage will be greater.
------------------------------------------------------------

------------------------------------------------------------
          Begin self-consistency iteration #    9

  Date     :  20190513, Time     :  134340.959
------------------------------------------------------------
  Evaluating new KS density using the density matrix
  Evaluating density matrix
  Time summed over all CPUs for getting density from density matrix: real work        1.191 s, elapsed        1.191 s
  Integration grid: deviation in total charge (<rho> - N_e) =   8.348877E-12
  Pulay mixing of updated and previous charge densities.

  Evaluating partitioned Hartree potential by multipole expansion.
  | Analytical far-field extrapolation by fixed multipoles:
  | Hartree multipole sum: apparent total charge =   0.627802E-02
  Summing up the Hartree potential.
  Time summed over all CPUs for potential: real work        0.435 s, elapsed        0.435 s
  | RMS charge density error from multipole expansion :   0.135244E-01
  | Average real-space part of the electrostatic potential :      0.38062331 eV

  Integrating Hamiltonian matrix: batch-based integration.
  Time summed over all CPUs for integration: real work        0.701 s, elapsed        0.701 s

  Updating Kohn-Sham eigenvalues, eigenvectors, occupation numbers, and Fermi level.
  Solving generalized eigenproblem

  Obtaining occupation numbers and chemical potential using ELSI.
  | Chemical potential (Fermi level):    -5.93634906eV
  What follows are estimated values for band gap, HOMO, LUMO, etc.
  | They are estimated on a discrete k-point grid and not necessarily exact.
  | For converged numbers, create a DOS and/or band structure plot on a denser k-grid.

  Highest occupied state (VBM) at     -6.06727920 eV (relative to internal zero)
  | Occupation number:      1.99978716
  | K-point:       1 at    0.000000    0.000000    0.000000 (in units of recip. lattice)

  Lowest unoccupied state (CBM) at    -5.79933091 eV (relative to internal zero)
  | Occupation number:      0.00010642
  | K-point:      48 at    0.000000    0.416667    0.416667 (in units of recip. lattice)

  ESTIMATED overall HOMO-LUMO gap:      0.26794829 eV between HOMO at k-point 1 and LUMO at k-point 48
  | This appears to be an indirect band gap.
  | Smallest direct gap :      2.62602989 eV for k_point 1 at    0.000000    0.416667    0.416667 (in units of recip. lattice)
  The gap value is above 0.2 eV. Unless you are using a very sparse k-point grid,
  this system is most likely an insulator or a semiconductor.

  Total energy components:
  | Sum of eigenvalues            :        -327.81692038 Ha       -8920.35226614 eV
  | XC energy correction          :         -39.80122120 Ha       -1083.04633354 eV
  | XC potential correction       :          52.58313450 Ha        1430.85989100 eV
  | Free-atom electrostatic energy:        -262.91798028 Ha       -7154.36225349 eV
  | Hartree energy correction     :          -0.77656761 Ha         -21.13147977 eV
  | Entropy correction            :          -0.00000000 Ha          -0.00000005 eV
  | ---------------------------
  | Total energy                  :        -578.72955498 Ha      -15748.03244195 eV
[...]
  | Total energy evaluation                    :        0.000 s           0.000 s

  Partial memory accounting:
  | Current value for overall tracked memory usage on task 0  :          10.824 MB
  | Peak value for overall tracked memory usage on task 0     :          14.545 MB after allocating wave
  | Largest tracked array allocation on task 0 so far         :           9.999 MB  when allocating +KS_eigenvector_complex
  Note:  These values currently only include a subset of arrays which are explicitly tracked.
  The "true" memory usage will be greater.
------------------------------------------------------------

------------------------------------------------------------
          Begin self-consistency iteration #   12

  Date     :  20190513, Time     :  134350.140
------------------------------------------------------------
  Evaluating new KS density using the density matrix
  Evaluating density matrix
  Time summed over all CPUs for getting density from density matrix: real work        1.188 s, elapsed        1.188 s
  Integration grid: deviation in total charge (<rho> - N_e) =   8.348877E-12
  Pulay mixing of updated and previous charge densities.

  Evaluating partitioned Hartree potential by multipole expansion.
  | Analytical far-field extrapolation by fixed multipoles:
  | Hartree multipole sum: apparent total charge =   0.629474E-02
  Summing up the Hartree potential.
  Time summed over all CPUs for potential: real work        0.437 s, elapsed        0.437 s
  | RMS charge density error from multipole expansion :   0.134964E-01
  | Average real-space part of the electrostatic potential :      0.37701648 eV

  Integrating Hamiltonian matrix: batch-based integration.
  Time summed over all CPUs for integration: real work        0.701 s, elapsed        0.701 s

  Updating Kohn-Sham eigenvalues, eigenvectors, occupation numbers, and Fermi level.
  Solving generalized eigenproblem

  Obtaining occupation numbers and chemical potential using ELSI.
  | Chemical potential (Fermi level):    -5.93909123eV
  What follows are estimated values for band gap, HOMO, LUMO, etc.
  | They are estimated on a discrete k-point grid and not necessarily exact.
  | For converged numbers, create a DOS and/or band structure plot on a denser k-grid.

  Highest occupied state (VBM) at     -6.07164987 eV (relative to internal zero)
  | Occupation number:      1.99982269
  | K-point:       1 at    0.000000    0.000000    0.000000 (in units of recip. lattice)

  Lowest unoccupied state (CBM) at    -5.80050880 eV (relative to internal zero)
  | Occupation number:      0.00008866
  | K-point:      48 at    0.000000    0.416667    0.416667 (in units of recip. lattice)

  ESTIMATED overall HOMO-LUMO gap:      0.27114107 eV between HOMO at k-point 1 and LUMO at k-point 48
  | This appears to be an indirect band gap.
  | Smallest direct gap :      2.62804114 eV for k_point 1 at    0.000000    0.416667    0.416667 (in units of recip. lattice)
  The gap value is above 0.2 eV. Unless you are using a very sparse k-point grid,
  this system is most likely an insulator or a semiconductor.

  Total energy components:
  | Sum of eigenvalues            :        -327.83406120 Ha       -8920.81869138 eV
  | XC energy correction          :         -39.79952060 Ha       -1083.00005788 eV
  | XC potential correction       :          52.58088230 Ha        1430.79860574 eV
  | Free-atom electrostatic energy:        -262.91798028 Ha       -7154.36225349 eV
  | Hartree energy correction     :          -0.75886850 Ha         -20.64986244 eV
  | Entropy correction            :          -0.00000000 Ha          -0.00000004 eV
  | ---------------------------
  | Total energy                  :        -578.72954827 Ha      -15748.03225945 eV
  | Total energy, T -> 0          :        -578.72954827 Ha      -15748.03225950 eV  <-- do not rely on this value for anything but (periodic) metals
  | Electronic free energy        :        -578.72954827 Ha      -15748.03225954 eV

  Derived energy quantities:
  | Kinetic energy                :         580.00002212 Ha       15782.60361204 eV
  | Electrostatic energy          :       -1118.93004980 Ha      -30447.63581361 eV
  | Energy correction for multipole
  | error in Hartree potential    :           0.01815587 Ha           0.49404631 eV
  | Sum of eigenvalues per atom                           :       -4460.40934569 eV
  | Total energy (T->0) per atom                          :       -7874.01612975 eV  <-- do not rely on this value for anything but (periodic) metals
  | Electronic free energy per atom                       :       -7874.01612977 eV

  Self-consistency convergence accuracy:
  | Change of charge density      :  0.3628E-04
  | Change of sum of eigenvalues  : -0.1330E-01 eV
  | Change of total energy        :  0.6103E-05 eV

  End self-consistency iteration #    12       :  max(cpu_time)    wall_clock(cpu1)
  | Time for this iteration                    :        3.010 s           3.010 s
  | Charge density update                      :        1.259 s           1.259 s
  | Density mixing & preconditioning           :        0.044 s           0.044 s
  | Hartree multipole update                   :        0.001 s           0.001 s
  | Hartree multipole summation                :        0.440 s           0.440 s
  | Integration                                :        0.701 s           0.701 s
  | Solution of K.-S. eqns.                    :        0.564 s           0.564 s
  | Total energy evaluation                    :        0.000 s           0.000 s

  Partial memory accounting:
  | Current value for overall tracked memory usage on task 0  :          10.824 MB
  | Peak value for overall tracked memory usage on task 0     :          14.545 MB after allocating wave
  | Largest tracked array allocation on task 0 so far         :           9.999 MB  when allocating +KS_eigenvector_complex
  Note:  These values currently only include a subset of arrays which are explicitly tracked.
  The "true" memory usage will be greater.
------------------------------------------------------------

------------------------------------------------------------
          Begin self-consistency iteration #   13

  Date     :  20190513, Time     :  134353.150
------------------------------------------------------------
  Evaluating new KS density using the density matrix
  Evaluating density matrix
  Time summed over all CPUs for getting density from density matrix: real work        1.278 s, elapsed        1.278 s
  Integration grid: deviation in total charge (<rho> - N_e) =   8.405721E-12
  Pulay mixing of updated and previous charge densities.

  Evaluating partitioned Hartree potential by multipole expansion.
  | Analytical far-field extrapolation by fixed multipoles:
  | Hartree multipole sum: apparent total charge =   0.629597E-02
  Summing up the Hartree potential.
  Time summed over all CPUs for potential: real work        0.456 s, elapsed        0.456 s
  | RMS charge density error from multipole expansion :   0.134965E-01
  | Average real-space part of the electrostatic potential :      0.37701095 eV

  Integrating Hamiltonian matrix: batch-based integration.
  Time summed over all CPUs for integration: real work        0.704 s, elapsed        0.704 s

  Updating Kohn-Sham eigenvalues, eigenvectors, occupation numbers, and Fermi level.
  Solving generalized eigenproblem

  Obtaining occupation numbers and chemical potential using ELSI.
  | Chemical potential (Fermi level):    -5.93909170eV
  What follows are estimated values for band gap, HOMO, LUMO, etc.
  | They are estimated on a discrete k-point grid and not necessarily exact.
  | For converged numbers, create a DOS and/or band structure plot on a denser k-grid.

  Highest occupied state (VBM) at     -6.07165122 eV (relative to internal zero)
  | Occupation number:      1.99982271
  | K-point:       1 at    0.000000    0.000000    0.000000 (in units of recip. lattice)

  Lowest unoccupied state (CBM) at    -5.80050841 eV (relative to internal zero)
  | Occupation number:      0.00008865
  | K-point:      48 at    0.000000    0.416667    0.416667 (in units of recip. lattice)

  ESTIMATED overall HOMO-LUMO gap:      0.27114281 eV between HOMO at k-point 1 and LUMO at k-point 48
  | This appears to be an indirect band gap.
  | Smallest direct gap :      2.62804167 eV for k_point 1 at    0.000000    0.416667    0.416667 (in units of recip. lattice)
  The gap value is above 0.2 eV. Unless you are using a very sparse k-point grid,
  this system is most likely an insulator or a semiconductor.

  Total energy components:
  | Sum of eigenvalues            :        -327.83408237 Ha       -8920.81926754 eV
  | XC energy correction          :         -39.79951787 Ha       -1082.99998375 eV
  | XC potential correction       :          52.58087870 Ha        1430.79850765 eV
  | Free-atom electrostatic energy:        -262.91798028 Ha       -7154.36225349 eV
  | Hartree energy correction     :          -0.75884643 Ha         -20.64926207 eV
  | Entropy correction            :          -0.00000000 Ha          -0.00000004 eV
  | ---------------------------
  | Total energy                  :        -578.72954826 Ha      -15748.03225919 eV
  | Total energy, T -> 0          :        -578.72954826 Ha      -15748.03225924 eV  <-- do not rely on this value for anything but (periodic) metals
  | Electronic free energy        :        -578.72954826 Ha      -15748.03225928 eV

  Derived energy quantities:
  | Kinetic energy                :         579.99998922 Ha       15782.60271677 eV
  | Electrostatic energy          :       -1118.93001961 Ha      -30447.63499222 eV
  | Energy correction for multipole
  | error in Hartree potential    :           0.01815596 Ha           0.49404887 eV
  | Sum of eigenvalues per atom                           :       -4460.40963377 eV
  | Total energy (T->0) per atom                          :       -7874.01612962 eV  <-- do not rely on this value for anything but (periodic) metals
  | Electronic free energy per atom                       :       -7874.01612964 eV

  Self-consistency convergence accuracy:
  | Change of charge density      :  0.8731E-06
  | Change of sum of eigenvalues  : -0.5762E-03 eV
  | Change of total energy        :  0.2579E-06 eV

  Preliminary charge convergence reached. Turning off preconditioner.

  Writing Kohn-Sham eigenvalues.
  K-point:       1 at    0.000000    0.000000    0.000000 (in units of recip. lattice)

  State    Occupation    Eigenvalue [Ha]    Eigenvalue [eV]
      1       2.00000         -65.483235        -1781.88947
      2       2.00000         -65.483235        -1781.88947
      3       2.00000          -5.097309         -138.70483
      4       2.00000          -5.096750         -138.68961
      5       2.00000          -3.510392          -95.52262
      6       2.00000          -3.510392          -95.52262
      7       2.00000          -3.510392          -95.52262
      8       2.00000          -3.509329          -95.49370
      9       2.00000          -3.509329          -95.49370
     10       2.00000          -3.509329          -95.49370
     11       2.00000          -0.697428          -18.97798
     12       1.99982          -0.223129           -6.07165
     13       1.99982          -0.223129           -6.07165
     14       1.99982          -0.223129           -6.07165
     15       0.00000          -0.126550           -3.44361
     16       0.00000          -0.126550           -3.44361
     17       0.00000          -0.126550           -3.44361
     18       0.00000          -0.039923           -1.08637
     19       0.00000           0.067200            1.82862
     20       0.00000           0.067200            1.82862

  What follows are estimated values for band gap, HOMO, LUMO, etc.
  | They are estimated on a discrete k-point grid and not necessarily exact.
  | For converged numbers, create a DOS and/or band structure plot on a denser k-grid.

  Highest occupied state (VBM) at     -6.07165122 eV (relative to internal zero)
  | Occupation number:      1.99982271
  | K-point:       1 at    0.000000    0.000000    0.000000 (in units of recip. lattice)

  Lowest unoccupied state (CBM) at    -5.80050841 eV (relative to internal zero)
  | Occupation number:      0.00008865
  | K-point:      48 at    0.000000    0.416667    0.416667 (in units of recip. lattice)

  ESTIMATED overall HOMO-LUMO gap:      0.27114281 eV between HOMO at k-point 1 and LUMO at k-point 48
  | This appears to be an indirect band gap.
  | Smallest direct gap :      2.62804167 eV for k_point 1 at    0.000000    0.416667    0.416667 (in units of recip. lattice)
  The gap value is above 0.2 eV. Unless you are using a very sparse k-point grid,
  this system is most likely an insulator or a semiconductor.

  Self-consistency cycle converged.

  End self-consistency iteration #    13       :  max(cpu_time)    wall_clock(cpu1)
  | Time for this iteration                    :        3.089 s           3.089 s
  | Charge density update                      :        1.350 s           1.350 s
  | Density mixing                             :        0.051 s           0.052 s
  | Hartree multipole update                   :        0.001 s           0.001 s
  | Hartree multipole summation                :        0.462 s           0.462 s
  | Integration                                :        0.704 s           0.704 s
  | Solution of K.-S. eqns.                    :        0.520 s           0.520 s
  | Total energy evaluation                    :        0.000 s           0.000 s

  Partial memory accounting:
  | Current value for overall tracked memory usage on task 0  :          10.824 MB
  | Peak value for overall tracked memory usage on task 0     :          14.545 MB after allocating wave
  | Largest tracked array allocation on task 0 so far         :           9.999 MB  when allocating +KS_eigenvector_complex
  Note:  These values currently only include a subset of arrays which are explicitly tracked.
  The "true" memory usage will be greater.
------------------------------------------------------------

  Energy and forces in a compact form:
  | Total energy uncorrected      :         -0.157480322591946E+05 eV
  | Total energy corrected        :         -0.157480322592389E+05 eV  <-- do not rely on this value for anything but (periodic) metals
  | Electronic free energy        :         -0.157480322592831E+05 eV

  ------------------------------------ 
  Start decomposition of the XC Energy 
  ------------------------------------ 
  X and C from original XC functional choice 
  Hartree-Fock Energy :          0.000000000 Ha              0.000000000 eV
  X Energy            :        -37.647957089 Ha          -1024.453035986 eV
  C Energy            :         -2.151560784 Ha            -58.546947763 eV
  Total XC Energy     :        -39.799517873 Ha          -1082.999983748 eV
  ------------------------------------ 
  LDA X and C from self-consistent density 
  X Energy LDA        :        -37.647957089 Ha          -1024.453035986 eV
  C Energy LDA        :         -2.151560784 Ha            -58.546947763 eV
  ------------------------------------ 
  End decomposition of the XC Energy 
  ------------------------------------ 

------------------------------------------------------------

------------------------------------------------------------------------------
  Final output of selected total energy values:

  The following output summarizes some interesting total energy values
  at the end of a run (AFTER all relaxation, molecular dynamics, etc.).

  | Total energy of the DFT / Hartree-Fock s.c.f. calculation      :         -15748.032259195 eV
  | Final zero-broadening corrected energy (caution - metals only) :         -15748.032259239 eV
  | For reference only, the value of 1 Hartree used in FHI-aims is :             27.211384500 eV

  Before relying on these values, please be sure to understand exactly which
  total energy value is referred to by a given number. Different objects may
  all carry the same name 'total energy'. Definitions:

  Total energy of the DFT / Hartree-Fock s.c.f. calculation:
  | Note that this energy does not include ANY quantities calculated after the
  | s.c.f. cycle, in particular not ANY RPA, MP2, etc. many-body perturbation terms.

  Final zero-broadening corrected energy:
  | For metallic systems only, a broadening of the occupation numbers at the Fermi
  | level can be extrapolated back to zero broadening by an electron-gas inspired
  | formula. For all systems that are not real metals, this value can be
  | meaningless and should be avoided.

------------------------------------------------------------------------------
  Methods described in the following list of references were used in this FHI-aims run.
  If you publish the results, please make sure to cite these reference if they apply.
  FHI-aims is an academic code, and for our developers (often, Ph.D. students
  and postdocs), scientific credit in the community is essential.
  Thank you for helping us!

  For any use of FHI-aims, please cite:

    Volker Blum, Ralf Gehrke, Felix Hanke, Paula Havu, Ville Havu,
    Xinguo Ren, Karsten Reuter, and Matthias Scheffler
    'Ab initio molecular simulations with numeric atom-centered orbitals'
    Computer Physics Communications 180, 2175-2196 (2009)
    http://dx.doi.org/10.1016/j.cpc.2009.06.022


  For the real-space grid partitioning and parallelization used in this calculation, please cite:

    Ville Havu, Volker Blum, Paula Havu, and Matthias Scheffler,
    'Efficient O(N) integration for all-electron electronic structure calculation'
    'using numerically tabulated basis functions'
    Journal of Computational Physics 228, 8367-8379 (2009).
    http://dx.doi.org/10.1016/j.jcp.2009.08.008

  Of course, there are many other important community references, e.g., those cited in the
  above references. Our list is limited to references that describe implementations in the
  FHI-aims code. The reason is purely practical (length of this list) - please credit others as well.

------------------------------------------------------------
          Leaving FHI-aims.
          Date     :  20190513, Time     :  134356.247

          Computational steps:
          | Number of self-consistency cycles          :           13
          | Number of SCF (re)initializations          :            1

          Detailed time accounting                     :  max(cpu_time)    wall_clock(cpu1)
          | Total time                                 :       41.981 s          41.981 s
          | Preparation time                           :        0.093 s           0.094 s
          | Boundary condition initalization           :        0.041 s           0.040 s
          | Grid partitioning                          :        0.032 s           0.033 s
          | Preloading free-atom quantities on grid    :        0.001 s           0.000 s
          | Free-atom superposition energy             :        0.034 s           0.035 s
          | Total time for integrations                :       10.660 s          10.659 s
          | Total time for solution of K.-S. equations :        7.866 s           7.864 s
          | Total time for density update              :       16.744 s          16.743 s
          | Total time for mixing & preconditioning    :        0.600 s           0.600 s
          | Total time for Hartree multipole update    :        0.011 s           0.010 s
          | Total time for Hartree multipole sum       :        5.697 s           5.699 s
          | Total time for total energy evaluation     :        0.004 s           0.004 s
          | Total time for scaled ZORA corrections     :        0.000 s           0.000 s

 This is a stub MPI_ALLREDUCE call.
 You should not be here. Check your
 setting on the use_mpi variable, or
 link against true MPI-libraries.
