------------------------------------------------------------
          Invoking FHI-aims ...
          Version 171221_1
          Compiled on 2019/05/06 at 14:26:40 on host ffph0xx.

          When using FHI-aims, please cite the following reference:

          Volker Blum, Ralf Gehrke, Felix Hanke, Paula Havu,
          Ville Havu, Xinguo Ren, Karsten Reuter, and Matthias Scheffler,
          'Ab Initio Molecular Simulations with Numeric Atom-Centered Orbitals',
          Computer Physics Communications 180, 2175-2196 (2009)

          For any questions about FHI-aims, please visit the aimsclub website
          with its forums and wiki. Contributions to both the forums and the
          wiki are warmly encouraged - they are for you, and everyone is welcome there.

------------------------------------------------------------



  Date     :  20190514, Time     :  123639.538
  Time zero on CPU 1             :   0.917000000000000E-03  s.
  Internal wall clock time zero  :           327069399.538  s.

  FHI-aims created a unique identifier for this run for later identification
  aims_uuid : 894682D9-8C8D-40E0-A3E9-1513A4E0FB28


  Performing system and environment tests:
  *** Environment variable OMP_NUM_THREADS is not set
  *** For performance reasons you might want to set it to 1
  | Stacksize not measured: no C compiler

  Obtaining array dimensions for all initial allocations:
  
  -----------------------------------------------------------------------
  Parsing control.in (first pass over file, find array dimensions only).
  The contents of control.in will be repeated verbatim below
  unless switched off by setting 'verbatim_writeout .false.' .
  in the first line of control.in .
  -----------------------------------------------------------------------
  
  #--- method ---
  xc pw-lda
  spin none
  relativistic atomic_zora scalar
  #---
  
  #--- k-grid settings ---
  k_grid 12 12 12
  #---
  
  
  
  
  
  
  
  
  
  
  
  #-------------------------------------------------------------------------------
  #--- Species defaults for Si
  #-------------------------------------------------------------------------------
  
  ################################################################################
  #
  #  FHI-aims code project
  #  VB, Fritz-Haber Institut, 2009
  #
  #  Suggested "light" defaults for Si atom (to be pasted into control.in file)
  #  Be sure to double-check any results obtained with these settings for post-processing,
  #  e.g., with the "tight" defaults and larger basis sets.
  #
  ################################################################################
    species        Si
  #     global species definitions
      nucleus             14
      mass                28.0855
  #
      l_hartree           4
  #
      cut_pot             3.5          1.5  1.0
      basis_dep_cutoff    1e-4
  #
      radial_base         42 5.0
      radial_multiplier   1
      angular_grids       specified
        division   0.5866   50
        division   0.9616  110
        division   1.2249  194
        division   1.3795  302
  #      division   1.4810  434
  #      division   1.5529  590
  #      division   1.6284  770
  #      division   1.7077  974
  #      division   2.4068 1202
  #      outer_grid   974
        outer_grid 302
  ################################################################################
  #
  #  Definition of "minimal" basis
  #
  ################################################################################
  #     valence basis states
      valence      3  s   2.
      valence      3  p   2.
  #     ion occupancy
      ion_occ      3  s   1.
      ion_occ      3  p   1.
  ################################################################################
  #
  #  Suggested additional basis functions. For production calculations,
  #  uncomment them one after another (the most important basis functions are
  #  listed first).
  #
  #  Constructed for dimers: 1.75 A, 2.0 A, 2.25 A, 2.75 A, 3.75 A
  #
  ################################################################################
  #  "First tier" - improvements: -571.96 meV to -37.03 meV
       hydro 3 d 4.2
       hydro 2 p 1.4
  #     hydro 4 f 6.2
       ionic 3 s auto
  #  "Second tier" - improvements: -16.76 meV to -3.03 meV
  #     hydro 3 d 9
  #     hydro 5 g 9.4
  #     hydro 4 p 4
  #     hydro 1 s 0.65
  #  "Third tier" - improvements: -3.89 meV to -0.60 meV
  #     ionic 3 d auto
  #     hydro 3 s 2.6
  #     hydro 4 f 8.4
  #     hydro 3 d 3.4
  #     hydro 3 p 7.8
  #  "Fourth tier" - improvements: -0.33 meV to -0.11 meV
  #     hydro 2 p 1.6
  #     hydro 5 g 10.8
  #     hydro 5 f 11.2
  #     hydro 3 d 1
  #     hydro 4 s 4.5
  #  Further basis functions that fell out of the optimization - noise
  #  level... < -0.08 meV
  #     hydro 4 d 6.6
  #     hydro 5 g 16.4
  #     hydro 4 d 9
  
  -----------------------------------------------------------------------
  Completed first pass over input file control.in .
  -----------------------------------------------------------------------
  
  
  -----------------------------------------------------------------------
  Parsing geometry.in (first pass over file, find array dimensions only).
  The contents of geometry.in will be repeated verbatim below
  unless switched off by setting 'verbatim_writeout .false.' .
  in the first line of geometry.in .
  -----------------------------------------------------------------------
  
  lattice_vector  -2.700000   2.700000   2.700000
  lattice_vector   2.700000  -2.700000   2.700000
  lattice_vector   2.700000   2.700000  -2.700000
  atom_frac   0.000000   0.000000   0.000000 Si
  
  -----------------------------------------------------------------------
  Completed first pass over input file geometry.in .
  -----------------------------------------------------------------------
  

  Basic array size parameters:
  | Number of species                 :        1
  | Number of atoms                   :        1
  | Number of lattice vectors         :        3
  | Max. basis fn. angular momentum   :        2
  | Max. atomic/ionic basis occupied n:        3
  | Max. number of basis fn. types    :        3
  | Max. radial fns per species/type  :        5
  | Max. logarithmic grid size        :     1346
  | Max. radial integration grid size :       42
  | Max. angular integration grid size:      302
  | Max. angular grid division number :        8
  | Radial grid for Hartree potential :     1346
  | Number of spin channels           :        1

------------------------------------------------------------
          Reading file control.in.
------------------------------------------------------------
  XC: Using Perdew-Wang parametrisation of Ceperley-Alder LDA.
  Spin treatment: No spin polarisation.
  Scalar relativistic treatment of kinetic energy: on-site free-atom approximation to ZORA.
  Found k-point grid:        12        12        12

  Reading configuration options for species Si                  .
  | Found nuclear charge :  14.0000
  | Found atomic mass :    28.085500000000000      amu
  | Found l_max for Hartree potential  :   4
  | Found cutoff potl. onset [A], width [A], scale factor :    3.50000    1.50000    1.00000
  | Threshold for basis-dependent cutoff potential is   0.100000E-03
  | Found data for basic radial integration grid :    42 points, outermost radius =    5.000 A
  | Found multiplier for basic radial grid :   1
  | Found angular grid specification: user-specified.
  | Specified grid contains     5 separate shells.
  | Check grid settings after all constraints further below.
  | Found free-atom valence shell :  3 s   2.000
  | Found free-atom valence shell :  3 p   2.000
  | Found free-ion valence shell :  3 s   1.000
  | Found free-ion valence shell :  3 p   1.000
  | Found hydrogenic basis function :  3 d   4.200
  | Found hydrogenic basis function :  2 p   1.400
  | Found ionic basis function :  3 s , default cutoff radius.
  Species Si                  : Missing cutoff potential type.
  Defaulting to exp(1/x)/(1-x)^2 type cutoff potential.
  Species Si: No 'logarithmic' tag. Using default grid for free atom:
  | Default logarithmic grid data [bohr] : 0.1000E-03 0.1000E+03 0.1012E+01
  | Will include ionic basis functions of  2.0-fold positive Si                   ion.
  Species Si: On-site basis accuracy parameter (for Gram-Schmidt orthonormalisation) not specified.
  Using default value basis_acc =  0.1000000E-03.
  Species Si                  : Using default innermost maximum threshold i_radial=  2 for radial functions.
  Species Si                  : Default cutoff onset for free atom density etc. : 0.35000000E+01 AA.
  Species Si                  : Basic radial grid will be enhanced according to radial_multiplier =   1, to contain    42 grid points.

  Finished reading input file 'control.in'. Consistency checks are next.

  MPI_IN_PLACE appears to work with this MPI implementation.
  | Keeping use_mpi_in_place .true. (see manual).
  Target number of points in a grid batch is not set. Defaulting to  100
  Method for grid partitioning is not set. Defaulting to 'maxmin' partitioning.
  Batch size limit is not set. Defaulting to    200
  By default, will store active basis functions for each batch.
  If in need of memory, prune_basis_once .false. can be used to disable this option.
  communication_type for Hartree potential was not specified.
  Defaulting to calc_hartree .
 * Attention: 
 * You may want to set distributed_spline_storage to .true. in order to save memory.
 * This doesn't harm performance and is perfectly ok unless:
 * - you get error messages in postprocessing (about missing atoms in get_rho_multipole_spl)
 * - you need full spline storage in hirshfeld_analysis
  Defaulting to Pulay charge density mixer.
  Pulay mixer: Number of relevant iterations not set.
  Defaulting to    8 iterations.
  Pulay mixer: Number of initial linear mixing iterations not set.
  Defaulting to    0 iterations.
  Work space size for distributed Hartree potential not set.
  Defaulting to   0.200000E+03 MB.
  Mixing parameter for charge density mixing has not been set.
  Using default: charge_mix_param =     0.0500.
  The mixing parameter will be adjusted in iteration number     2 of the first full s.c.f. cycle only.
  Algorithm-dependent basis array size parameters:
  | n_max_pulay                         :        8
 * Notice: The s.c.f. convergence criterion sc_accuracy_rho was not provided.
 * We used to stop in this case, and ask the user to provide reasonable
 * scf convergence criteria. However, this led some users to employ criteria
 * that led to extremely long run times, e.g., for simple relaxation.
 * We now preset a default value for sc_accuracy_rho if it is not set.
 * You may still wish to check if this setting is too tight or too loose for your needs.
 * Based on n_atoms, FHI-aims chose sc_accuracy_rho =  0.100000E-05 .
  Maximum number of self-consistency iterations not provided.
  Presetting  1000 iterations.
  Presetting      1001 iterations before the initial mixing cycle
  is restarted anyway using the sc_init_iter criterion / keyword.
  Presetting a factor      1.000 between actual scf density residual
  and density convergence criterion sc_accuracy_rho below which sc_init_iter
  takes no effect.
 * No s.c.f. convergence criteria (sc_accuracy_*) were provided in control.in.
 * The run will proceed with a reasonable default guess, but please check whether.
 * the s.c.f. cycles seem to take too much or too little time.
  Calculation of forces was not defined in control.in. No forces will be calculated.
  Geometry relaxation not requested: no relaxation will be performed.
  No accuracy limit for integral partition fn. given. Defaulting to  0.1000E-14.
  No threshold value for u(r) in integrations given. Defaulting to  0.1000E-05.
  No occupation type (smearing scheme) given. Defaulting to Gaussian broadening, width =  0.1000E-01 eV.
  The width will be adjusted in iteration number     2 of the first full s.c.f. cycle only.
  S.C.F. convergence parameters will be adjusted in iteration number     2 of the first full s.c.f. cycle only.
  No accuracy for occupation numbers given. Defaulting to  0.1000E-12.
  No threshold value for occupation numbers given. Defaulting to  0.0000E+00.
  No accuracy for fermi level given. Defaulting to  0.1000E-19.
  Maximum # of iterations to find E_F not set. Defaulting to  200.
  Preferred method for the eigenvalue solver ('KS_method') not specified in 'control.in'.
  Defaulting to serial version, 'lapack_fast'.
  Will not use alltoall communication since running on < 1024 CPUs.
  Threshold for basis singularities not set.
  Default threshold for basis singularities:  0.1000E-04
  partition_type (choice of integration weights) for integrals was not specified.
  | Using a version of the partition function of Stratmann and coworkers ('stratmann_smoother').
  | At each grid point, the set of atoms used to build the partition table is smoothly restricted to
  | only those atoms whose free-atom density would be non-zero at that grid point.
  Partitioning for Hartree potential was not defined. Using partition_type for integrals.
  | Adjusted default value of keyword multip_moments_threshold to:       0.10000000E-11
  | This value may affect high angular momentum components of the Hartree potential in periodic systems.
  Angular momentum expansion for Kerker preconditioner not set explicitly.
  | Using default value of   0
  No explicit requirement for turning off preconditioner.
  | By default, it will be turned off when the charge convergence reaches
  | sc_accuracy_rho  =   0.100000E-05
  No special mixing parameter while Kerker preconditioner is on.
  Using default: charge_mix_param =     0.0500.
  No q(lm)/r^(l+1) cutoff set for long-range Hartree potential.
  | Using default value of  0.100000E-09 .
  | Verify using the multipole_threshold keyword.
  Defaulting to new monopole extrapolation.
  Density update method: automatic selection selected.
  Using density matrix based charge density update.
  Using density matrix based charge density update.
  Using packed matrix style: index .
  Defaulting to use time-reversal symmetry for k-point grid.
------------------------------------------------------------


------------------------------------------------------------
          Reading geometry description geometry.in.
------------------------------------------------------------
  Input structure read successfully.
  The structure contains        1 atoms,  and a total of         14.000 electrons.

  Input geometry:
  | Unit cell:
  |       -2.70000000        2.70000000        2.70000000
  |        2.70000000       -2.70000000        2.70000000
  |        2.70000000        2.70000000       -2.70000000
  | Atomic structure:
  |       Atom                x [A]            y [A]            z [A]
  |    1: Species Si            0.00000000        0.00000000        0.00000000

  Lattice parameters for 3D lattice (in Angstroms) :     4.676537    4.676537    4.676537
  Angle(s) between unit vectors (in degrees)      :   109.471221  109.471221  109.471221

  |

  | The smallest distance between any two atoms is         4.67653718 AA.
  |
  | The first atom of this pair is atom number                      1 .
  | The second atom of this pair is atom number                     1 .
  | Wigner-Seitz cell of the first atom image           0     0     1 .
  | (The Wigner-Seitz cell of the second atom is 0 0 0  by definition.)

  Quantities derived from the lattice vectors:
  | Reciprocal lattice vector 1:  0.000000  1.163553  1.163553
  | Reciprocal lattice vector 2:  1.163553 -0.000000  1.163553
  | Reciprocal lattice vector 3:  1.163553  1.163553 -0.000000
  | Unit cell volume                               :   0.787320E+02  A^3

  Range separation radius for Ewald summation (hartree_convergence_parameter):      5.00000000 bohr.

  Fractional coordinates:
                         L1                L2                L3
       atom_frac         0.00000000        0.00000000        0.00000000  Si

  Number of empty states per atom not set in control.in - providing a guess from actual geometry.
  | Total number of empty states used during s.c.f. cycle:        3
  If you use a very high smearing, use empty_states (per atom!) in control.in to increase this value.

  Structure-dependent array size parameters: 
  | Maximum number of distinct radial functions  :        8
  | Maximum number of basis functions            :       18
  | Number of Kohn-Sham states (occupied + empty):       10
------------------------------------------------------------

------------------------------------------------------------
          Preparing all fixed parts of the calculation.
------------------------------------------------------------
  Determining machine precision:
     2.2250738585072014E-308
  Setting up grids for atomic and cluster calculations.

  Creating wave function, potential, and density for free atoms.

  Species: Si

  List of occupied orbitals and eigenvalues:
    n    l              occ      energy [Ha]    energy [eV]
    1    0           2.0000       -65.491668     -1782.1190
    2    0           2.0000        -5.087967      -138.4506
    3    0           2.0000        -0.391471       -10.6525
    2    1           6.0000        -3.502246       -95.3010
    3    1           2.0000        -0.143943        -3.9169

  Creating fixed part of basis set: Ionic, confined, hydrogenic.

  Si                   ion:

  List of free ionic orbitals and eigenvalues:
    n    l      energy [Ha]    energy [eV]
    1    0       -66.364436     -1805.8682
    2    0        -5.935799      -161.5213
    3    0        -1.078166       -29.3384
    2    1        -4.351123      -118.4001
    3    1        -0.781733       -21.2720


  List of ionic basis orbitals and eigenvalues:
    n    l      energy [Ha]    energy [eV]    outer radius [A]
    3    0        -1.078146       -29.3378       4.214062


  Si                   hydrogenic:

  List of hydrogenic basis orbitals: 
    n    l      effective z      eigenvalue [eV]  inner max. [A]     outer max. [A]     outer radius [A]   
    3    2         4.200000       -26.6624           1.139231           1.139231           4.534782
    2    1         1.400000        -6.4613           1.472672           1.472672           4.590560


  Adding cutoff potential to free-atom effective potential.
  Creating atomic-like basis functions for current effective potential.

  Species Si                  :

  List of atomic basis orbitals and eigenvalues:
    n    l      energy [Ha]    energy [eV]    outer radius [A]
    1    0       -65.491668     -1782.1190       0.789468
    2    0        -5.087967      -138.4506       2.815114
    3    0        -0.391471       -10.6525       4.534782
    2    1        -3.502246       -95.3010       3.259919
    3    1        -0.143943        -3.9169       4.590560

  Assembling full basis from fixed parts.
  | Species Si :   atomic orbital   1 s accepted.
  | Species Si :   atomic orbital   2 s accepted.
  | Species Si :    ionic orbital   3 s accepted.
  | Species Si :   atomic orbital   3 s accepted.
  | Species Si :   atomic orbital   2 p accepted.
  | Species Si :   atomic orbital   3 p accepted.
  | Species Si :    hydro orbital   2 p accepted.
  | Species Si :    hydro orbital   3 d accepted.

  Basis size parameters after reduction:
  | Total number of radial functions:        8
  | Total number of basis functions :       18

  Per-task memory consumption for arrays in subroutine allocate_ext:
  |           2.757468MB.
  Testing on-site integration grid accuracy.
  |  Species  Function  <phi|h_atom|phi> (log., in eV)  <phi|h_atom|phi> (rad., in eV)
           1        1              -1782.1189727076              -1782.1182429251
           1        2               -138.4506350693               -138.4506310079
           1        3                -10.3030408815                -10.3029120678
           1        4                  5.0238999146                  4.9457540310 ***
           1        5                -95.3009689499                -95.3009689315
           1        6                 -3.9266496564                 -3.9420918374
           1        7                  6.3453628447                  6.1632372158 ***
           1        8                  6.2883050744                  6.2861881409
 * Note: Onsite integrals marked "***" above are less accurate than
 * onsite_accuracy_threshold =    0.03000 eV. Usually, this is harmless.
 * When in doubt, tighten the "radial" and/or "radial_multiplier" flags to check.

  Preparing densities etc. for the partition functions (integrals / Hartree potential).

  Preparations completed.
  max(cpu_time)          :      0.098 s.
  Wall clock time (cpu1) :      0.098 s.
------------------------------------------------------------

------------------------------------------------------------
          Begin self-consistency loop: Initialization.

          Date     :  20190514, Time     :  123639.637
------------------------------------------------------------

  Initializing index lists of integration centers etc. from given atomic structure:
  Mapping all atomic coordinates to central unit cell.

  Initializing the k-points
          Using symmetry for reducing the k-points
  | k-points reduced from:     1728 to      868
  | Number of k-points                             :       868
  The eigenvectors in the calculations are COMPLEX.
  | K-points in task   0:       868
  | Number of basis functions in the Hamiltonian integrals :       412
  | Number of basis functions in a single unit cell        :        18
  | Number of centers in hartree potential         :       259
  | Number of centers in hartree multipole         :        65
  | Number of centers in electron density summation:        59
  | Number of centers in basis integrals           :        59
  | Number of centers in integrals                 :        27
  | Number of centers in hamiltonian               :        59
  | Consuming        813 KiB for k_phase.
  | Number of super-cells (origin) [n_cells]                     :        1331
  | Number of super-cells (after PM_index) [n_cells]             :          60
  | Number of super-cells in hamiltonian [n_cells_in_hamiltonian]:          60
  | Size of matrix packed + index [n_hamiltonian_matrix_size] :        6978
  Partitioning the integration grid into batches with maxmin method.
  | Maximal weight for a single point:     1.000
  | Minimal weight for a single point:     0.447
  | Number of batches:       64
  | Maximal batch size:      90
  | Minimal batch size:      85
  | Average batch size:      87.562
  | Standard deviation of batch sizes:       1.499
  Initializing partition tables, free-atom densities, potentials, etc. across the integration grid (initialize_grid_storage).
  | initialize_grid_storage: Actual outermost partition radius vs. multipole_radius_free
  | (-- VB: in principle, multipole_radius_free should be larger, hence this output)
  | Species        1: Confinement radius =              4.999999999999999 AA, multipole_radius_free =              5.000694715736543 AA.
  | Species        1: outer_partition_radius set to              5.000694715736543 AA .
  | Original list of interatomic distances with          59 x         59 entries is created.
  | Net number of integration points:     5604
  | of which are non-zero points    :     5438
  | Numerical average free-atom electrostatic potential    :     -3.34131555 eV
  Renormalizing the initial density to the exact electron count on the 3D integration grid.
  | Initial density: Formal number of electrons (from input files) :      14.0000000000
  | Integrated number of electrons on 3D grid     :      14.0001181097
  | Charge integration error                      :       0.0001181097
  | Normalization factor for density and gradient :       0.9999915637
  Obtaining max. number of non-zero basis functions in each batch (get_n_compute_maxes).
  | Maximal number of non-zero basis functions:      157 in task     0
  Allocating        2.500 MB for KS_eigenvector_complex
  Integrating Hamiltonian matrix: batch-based integration.
  Time summed over all CPUs for integration: real work        0.036 s, elapsed        0.036 s
  Integrating overlap matrix.
  Time summed over all CPUs for integration: real work        0.025 s, elapsed        0.025 s
  Decreasing sparse matrix size:
   Tolerance:   9.9999998245167004E-014
   Hamiltonian matrix
  | Array has     4325 nonzero elements out of     6978 elements
  | Sparsity factor is 0.380
   Overlap matrix
  | Array has     4035 nonzero elements out of     6978 elements
  | Sparsity factor is 0.422
  New size of hamiltonian matrix:        4464

  Updating Kohn-Sham eigenvalues, eigenvectors, occupation numbers, and Fermi level.
  Solving generalized eigenproblem
  Transforming overlap matrix and checking for singularities.
  Overlap matrix is nonsingular at first k-point:
  | Lowest eigenvalue:  0.233957E+00

  Obtaining occupation numbers and chemical potential using ELSI.
  | Chemical potential (Fermi level):    -4.28735912eV
  Writing Kohn-Sham eigenvalues.
  K-point:       1 at    0.000000    0.000000    0.000000 (in units of recip. lattice)

  State    Occupation    Eigenvalue [Ha]    Eigenvalue [eV]
      1       2.00000         -65.491654        -1782.11857
      2       2.00000          -5.087963         -138.45051
      3       2.00000          -3.502242          -95.30084
      4       2.00000          -3.502242          -95.30084
      5       2.00000          -3.502242          -95.30084
      6       2.00000          -0.409099          -11.13214
      7       0.00000          -0.111921           -3.04552
      8       0.00000          -0.111921           -3.04552
      9       0.00000          -0.111921           -3.04552
     10       0.00000           0.041275            1.12315

  What follows are estimated values for band gap, HOMO, LUMO, etc.
  | They are estimated on a discrete k-point grid and not necessarily exact.
  | For converged numbers, create a DOS and/or band structure plot on a denser k-grid.

  Highest occupied state (VBM) at     -4.30046017 eV (relative to internal zero)
  | Occupation number:      1.93608442
  | K-point:     311 at    0.250000    0.166667    0.250000 (in units of recip. lattice)

  Lowest unoccupied state (CBM) at    -4.28639759 eV (relative to internal zero)
  | Occupation number:      0.89183623
  | K-point:     672 at    0.500000    0.500000    0.583333 (in units of recip. lattice)

  ESTIMATED overall HOMO-LUMO gap:      0.01406258 eV between HOMO at k-point 311 and LUMO at k-point 672
  | This appears to be an indirect band gap.
  | Smallest direct gap :      0.02585935 eV for k_point 663 at    0.500000    0.500000    0.583333 (in units of recip. lattice)
  However, this system has fractional occupation numbers. Since we use a finite k-point grid,
  this material is metallic within the approximate finite broadening function (occupation_type)
  applied to determine the occupation numbers.
  Calculating total energy contributions from superposition of free atom densities.

  Total energy components:
  | Sum of eigenvalues            :        -163.30657704 Ha       -4443.79805934 eV
  | XC energy correction          :         -19.62694971 Ha        -534.07647512 eV
  | XC potential correction       :          25.93255122 Ha         705.66062219 eV
  | Free-atom electrostatic energy:        -132.20651472 Ha       -3597.52230545 eV
  | Hartree energy correction     :          -0.00000000 Ha          -0.00000000 eV
  | Entropy correction            :          -0.00000290 Ha          -0.00007902 eV
  | ---------------------------
  | Total energy                  :        -289.20749026 Ha       -7869.73621772 eV
  | Total energy, T -> 0          :        -289.20749316 Ha       -7869.73629675 eV  <-- do not rely on this value for anything but (periodic) metals
  | Electronic free energy        :        -289.20749607 Ha       -7869.73637577 eV

  Derived energy quantities:
  | Kinetic energy                :         289.56154611 Ha        7879.37056754 eV
  | Electrostatic energy          :        -559.14208666 Ha      -15215.03031014 eV
  | Energy correction for multipole
  | error in Hartree potential    :           0.00000000 Ha           0.00000000 eV
  | Sum of eigenvalues per atom                           :       -4443.79805934 eV
  | Total energy (T->0) per atom                          :       -7869.73629675 eV  <-- do not rely on this value for anything but (periodic) metals
  | Electronic free energy per atom                       :       -7869.73637577 eV
  Initialize hartree_potential_storage
  Max. number of atoms included in rho_multipole:            1

  End scf initialization - timings             :  max(cpu_time)    wall_clock(cpu1)
  | Time for scf. initialization               :        0.337 s           0.337 s
  | Boundary condition initialization          :        0.035 s           0.036 s
  | Integration                                :        0.061 s           0.061 s
  | Solution of K.-S. eqns.                    :        0.210 s           0.210 s
  | Grid partitioning                          :        0.008 s           0.008 s
  | Preloading free-atom quantities on grid    :        0.001 s           0.001 s
  | Free-atom superposition energy             :        0.006 s           0.007 s
  | Total energy evaluation                    :        0.000 s           0.000 s

  Partial memory accounting:
  | Current value for overall tracked memory usage on task 0  :           2.589 MB
  | Peak value for overall tracked memory usage on task 0     :           3.176 MB after allocating wave
  | Largest tracked array allocation on task 0 so far         :           2.500 MB  when allocating +KS_eigenvector_complex
  Note:  These values currently only include a subset of arrays which are explicitly tracked.
  The "true" memory usage will be greater.
------------------------------------------------------------

------------------------------------------------------------
          Begin self-consistency iteration #    1

  Date     :  20190514, Time     :  123639.974
------------------------------------------------------------
  Evaluating new KS density using the density matrix
  Evaluating density matrix
  Time summed over all CPUs for getting density from density matrix: real work        0.054 s, elapsed        0.054 s
  Integration grid: deviation in total charge (<rho> - N_e) =  -3.108624E-13
  Pulay mixing of updated and previous charge densities.

  Evaluating partitioned Hartree potential by multipole expansion.
  | Analytical far-field extrapolation by fixed multipoles:
  | Hartree multipole sum: apparent total charge =  -0.836347E-04
  Summing up the Hartree potential.
  | Estimated reciprocal-space cutoff momentum G_max:         1.84432723 bohr^-1 .
  | Reciprocal lattice points for long-range Hartree potential:      54
  Time summed over all CPUs for potential: real work        0.069 s, elapsed        0.069 s
  | RMS charge density error from multipole expansion :   0.428994E-04
  | Average real-space part of the electrostatic potential :     -0.01227279 eV

  Integrating Hamiltonian matrix: batch-based integration.
  Time summed over all CPUs for integration: real work        0.036 s, elapsed        0.036 s

  Updating Kohn-Sham eigenvalues, eigenvectors, occupation numbers, and Fermi level.
  Solving generalized eigenproblem

  Obtaining occupation numbers and chemical potential using ELSI.
  | Chemical potential (Fermi level):    -4.30340155eV
  Writing Kohn-Sham eigenvalues.
  K-point:       1 at    0.000000    0.000000    0.000000 (in units of recip. lattice)

  State    Occupation    Eigenvalue [Ha]    Eigenvalue [eV]
      1       2.00000         -65.494620        -1782.19930
      2       2.00000          -5.090133         -138.50956
      3       2.00000          -3.504467          -95.36140
      4       2.00000          -3.504467          -95.36140
      5       2.00000          -3.504467          -95.36140
      6       2.00000          -0.409883          -11.15350
      7       0.00000          -0.112646           -3.06527
      8       0.00000          -0.112646           -3.06527
      9       0.00000          -0.112646           -3.06527
     10       0.00000           0.040649            1.10612

  What follows are estimated values for band gap, HOMO, LUMO, etc.
  | They are estimated on a discrete k-point grid and not necessarily exact.
  | For converged numbers, create a DOS and/or band structure plot on a denser k-grid.

  Highest occupied state (VBM) at     -4.31611585 eV (relative to internal zero)
  | Occupation number:      1.92783462
  | K-point:     328 at    0.250000    0.333333    0.166667 (in units of recip. lattice)

  Lowest unoccupied state (CBM) at    -4.30279984 eV (relative to internal zero)
  | Occupation number:      0.93218539
  | K-point:     662 at    0.500000    0.416667    0.500000 (in units of recip. lattice)

  ESTIMATED overall HOMO-LUMO gap:      0.01331602 eV between HOMO at k-point 328 and LUMO at k-point 662
  | This appears to be an indirect band gap.
  | Smallest direct gap :      0.02579963 eV for k_point 662 at    0.500000    0.416667    0.500000 (in units of recip. lattice)
  However, this system has fractional occupation numbers. Since we use a finite k-point grid,
  this material is metallic within the approximate finite broadening function (occupation_type)
  applied to determine the occupation numbers.

  Total energy components:
  | Sum of eigenvalues            :        -163.33300578 Ha       -4444.51722184 eV
  | XC energy correction          :         -19.62474043 Ha        -534.01635754 eV
  | XC potential correction       :          25.92964311 Ha         705.58148862 eV
  | Free-atom electrostatic energy:        -132.20651472 Ha       -3597.52230545 eV
  | Hartree energy correction     :           0.02727544 Ha           0.74220261 eV
  | Entropy correction            :          -0.00000290 Ha          -0.00007883 eV
  | ---------------------------
  | Total energy                  :        -289.20734238 Ha       -7869.73219359 eV
  | Total energy, T -> 0          :        -289.20734527 Ha       -7869.73227242 eV  <-- do not rely on this value for anything but (periodic) metals
  | Electronic free energy        :        -289.20734817 Ha       -7869.73235125 eV

  Derived energy quantities:
  | Kinetic energy                :         289.54307104 Ha        7878.86783549 eV
  | Electrostatic energy          :        -559.12567299 Ha      -15214.58367155 eV
  | Energy correction for multipole
  | error in Hartree potential    :           0.00000444 Ha           0.00012072 eV
  | Sum of eigenvalues per atom                           :       -4444.51722184 eV
  | Total energy (T->0) per atom                          :       -7869.73227242 eV  <-- do not rely on this value for anything but (periodic) metals
  | Electronic free energy per atom                       :       -7869.73235125 eV

  Self-consistency convergence accuracy:
  | Change of charge density      :  0.3029E-01
  | Change of sum of eigenvalues  : -0.7192E+00 eV
  | Change of total energy        :  0.4024E-02 eV

  End self-consistency iteration #     1       :  max(cpu_time)    wall_clock(cpu1)
  | Time for this iteration                    :        0.272 s           0.272 s
  | Charge density update                      :        0.062 s           0.063 s
  | Density mixing & preconditioning           :        0.009 s           0.009 s
  | Hartree multipole update                   :        0.000 s           0.000 s
  | Hartree multipole summation                :        0.071 s           0.071 s
  | Integration                                :        0.037 s           0.036 s
  | Solution of K.-S. eqns.                    :        0.092 s           0.093 s
  | Total energy evaluation                    :        0.000 s           0.000 s

  Partial memory accounting:
  | Current value for overall tracked memory usage on task 0  :           2.589 MB
  | Peak value for overall tracked memory usage on task 0     :           3.176 MB after allocating wave
  | Largest tracked array allocation on task 0 so far         :           2.500 MB  when allocating +KS_eigenvector_complex
  Note:  These values currently only include a subset of arrays which are explicitly tracked.
  The "true" memory usage will be greater.
------------------------------------------------------------

------------------------------------------------------------
          Begin self-consistency iteration #    2

  Date     :  20190514, Time     :  123640.246
------------------------------------------------------------
  Evaluating new KS density using the density matrix
  Evaluating density matrix
  Time summed over all CPUs for getting density from density matrix: real work        0.055 s, elapsed        0.055 s
  Integration grid: deviation in total charge (<rho> - N_e) =  -4.156675E-13
  Pulay mixing of updated and previous charge densities.

  Evaluating partitioned Hartree potential by multipole expansion.
  | Analytical far-field extrapolation by fixed multipoles:
  | Hartree multipole sum: apparent total charge =  -0.361017E-02
  Summing up the Hartree potential.
  Time summed over all CPUs for potential: real work        0.097 s, elapsed        0.097 s
  | RMS charge density error from multipole expansion :   0.785985E-03
  | Average real-space part of the electrostatic potential :     -0.21769257 eV

  Integrating Hamiltonian matrix: batch-based integration.
  Time summed over all CPUs for integration: real work        0.038 s, elapsed        0.038 s

  Updating Kohn-Sham eigenvalues, eigenvectors, occupation numbers, and Fermi level.
  Solving generalized eigenproblem

  Obtaining occupation numbers and chemical potential using ELSI.
  | Chemical potential (Fermi level):    -4.57241405eV
  What follows are estimated values for band gap, HOMO, LUMO, etc.
  | They are estimated on a discrete k-point grid and not necessarily exact.
  | For converged numbers, create a DOS and/or band structure plot on a denser k-grid.

  Highest occupied state (VBM) at     -4.57864578 eV (relative to internal zero)
  | Occupation number:      1.62184494
  | K-point:     662 at    0.500000    0.416667    0.500000 (in units of recip. lattice)

  Lowest unoccupied state (CBM) at    -4.56471128 eV (relative to internal zero)
  | Occupation number:      0.27600592
  | K-point:     705 at    0.583333    0.416667    0.583333 (in units of recip. lattice)

  ESTIMATED overall HOMO-LUMO gap:      0.01393450 eV between HOMO at k-point 662 and LUMO at k-point 705
  | This appears to be an indirect band gap.
  | Smallest direct gap :      0.14703465 eV for k_point 575 at    0.583333    0.416667    0.583333 (in units of recip. lattice)
  However, this system has fractional occupation numbers. Since we use a finite k-point grid,
  this material is metallic within the approximate finite broadening function (occupation_type)
  applied to determine the occupation numbers.

  Checking to see if s.c.f. parameters should be adjusted.
  Adjusted the Pulay mixing parameter (charge_mix_param) for an expected low-gap system. New value:   0.020000 .
  Adjusted the occupation broadening width for an expected low-gap system. New value:      0.05000000 eV.

  Total energy components:
  | Sum of eigenvalues            :        -163.75808057 Ha       -4456.08409549 eV
  | XC energy correction          :         -19.58763810 Ha        -533.00675186 eV
  | XC potential correction       :          25.88080193 Ha         704.25245260 eV
  | Free-atom electrostatic energy:        -132.20651472 Ha       -3597.52230545 eV
  | Hartree energy correction     :           0.46554371 Ha          12.66808898 eV
  | Entropy correction            :          -0.00006510 Ha          -0.00177143 eV
  | ---------------------------
  | Total energy                  :        -289.20588775 Ha       -7869.69261122 eV
  | Total energy, T -> 0          :        -289.20595285 Ha       -7869.69438265 eV  <-- do not rely on this value for anything but (periodic) metals
  | Electronic free energy        :        -289.20601795 Ha       -7869.69615408 eV

  Derived energy quantities:
  | Kinetic energy                :         289.29065778 Ha        7871.99932121 eV
  | Electrostatic energy          :        -558.90890743 Ha      -15208.68518057 eV
  | Energy correction for multipole
  | error in Hartree potential    :           0.00009185 Ha           0.00249939 eV
  | Sum of eigenvalues per atom                           :       -4456.08409549 eV
  | Total energy (T->0) per atom                          :       -7869.69438265 eV  <-- do not rely on this value for anything but (periodic) metals
  | Electronic free energy per atom                       :       -7869.69615408 eV

  Self-consistency convergence accuracy:
  | Change of charge density      :  0.2875E-01
  | Change of sum of eigenvalues  : -0.1157E+02 eV
  | Change of total energy        :  0.3958E-01 eV

  End self-consistency iteration #     2       :  max(cpu_time)    wall_clock(cpu1)
  | Time for this iteration                    :        0.302 s           0.302 s
  | Charge density update                      :        0.063 s           0.063 s
  | Density mixing & preconditioning           :        0.009 s           0.009 s
  | Hartree multipole update                   :        0.000 s           0.000 s
  | Hartree multipole summation                :        0.099 s           0.099 s
  | Integration                                :        0.038 s           0.038 s
  | Solution of K.-S. eqns.                    :        0.093 s           0.093 s
  | Total energy evaluation                    :        0.000 s           0.000 s

  Partial memory accounting:
  | Current value for overall tracked memory usage on task 0  :           2.590 MB
  | Peak value for overall tracked memory usage on task 0     :           3.176 MB after allocating wave
  | Largest tracked array allocation on task 0 so far         :           2.500 MB  when allocating +KS_eigenvector_complex
  Note:  These values currently only include a subset of arrays which are explicitly tracked.
  The "true" memory usage will be greater.
------------------------------------------------------------

------------------------------------------------------------
          Begin self-consistency iteration #    3

  Date     :  20190514, Time     :  123640.548
------------------------------------------------------------
  Evaluating new KS density using the density matrix
  Evaluating density matrix
  Time summed over all CPUs for getting density from density matrix: real work        0.055 s, elapsed        0.055 s
  Integration grid: deviation in total charge (<rho> - N_e) =  -2.167155E-13
  Pulay mixing of updated and previous charge densities.

  Evaluating partitioned Hartree potential by multipole expansion.
  | Analytical far-field extrapolation by fixed multipoles:
  | Hartree multipole sum: apparent total charge =  -0.501005E-02
  Summing up the Hartree potential.
  Time summed over all CPUs for potential: real work        0.100 s, elapsed        0.100 s
  | RMS charge density error from multipole expansion :   0.100709E-02
  | Average real-space part of the electrostatic potential :     -0.28282951 eV

  Integrating Hamiltonian matrix: batch-based integration.
  Time summed over all CPUs for integration: real work        0.037 s, elapsed        0.037 s

  Updating Kohn-Sham eigenvalues, eigenvectors, occupation numbers, and Fermi level.
  Solving generalized eigenproblem

  Obtaining occupation numbers and chemical potential using ELSI.
  | Chemical potential (Fermi level):    -4.64532606eV
  What follows are estimated values for band gap, HOMO, LUMO, etc.
  | They are estimated on a discrete k-point grid and not necessarily exact.
  | For converged numbers, create a DOS and/or band structure plot on a denser k-grid.

  Highest occupied state (VBM) at     -4.64959896 eV (relative to internal zero)
  | Occupation number:      1.09619494
  | K-point:     419 at    0.333333    0.166667    0.250000 (in units of recip. lattice)

  Lowest unoccupied state (CBM) at    -4.63843942 eV (relative to internal zero)
  | Occupation number:      0.84556251
  | K-point:     705 at    0.583333    0.416667    0.583333 (in units of recip. lattice)

  ESTIMATED overall HOMO-LUMO gap:      0.01115954 eV between HOMO at k-point 419 and LUMO at k-point 705
  | This appears to be an indirect band gap.
  | Smallest direct gap :      0.14521922 eV for k_point 575 at    0.583333    0.416667    0.583333 (in units of recip. lattice)
  However, this system has fractional occupation numbers. Since we use a finite k-point grid,
  this material is metallic within the approximate finite broadening function (occupation_type)
  applied to determine the occupation numbers.

  Total energy components:
  | Sum of eigenvalues            :        -163.83721398 Ha       -4458.23742505 eV
  | XC energy correction          :         -19.58175733 Ha        -532.84672793 eV
  | XC potential correction       :          25.87311115 Ha         704.04317562 eV
  | Free-atom electrostatic energy:        -132.20651472 Ha       -3597.52230545 eV
  | Hartree energy correction     :           0.54657732 Ha          14.87312567 eV
  | Entropy correction            :          -0.00006536 Ha          -0.00177862 eV
  | ---------------------------
  | Total energy                  :        -289.20579756 Ha       -7869.69015714 eV
  | Total energy, T -> 0          :        -289.20586293 Ha       -7869.69193576 eV  <-- do not rely on this value for anything but (periodic) metals
  | Electronic free energy        :        -289.20592829 Ha       -7869.69371438 eV

  Derived energy quantities:
  | Kinetic energy                :         289.29868990 Ha        7872.21788621 eV
  | Electrostatic energy          :        -558.92273013 Ha      -15209.06131542 eV
  | Energy correction for multipole
  | error in Hartree potential    :           0.00013497 Ha           0.00367260 eV
  | Sum of eigenvalues per atom                           :       -4458.23742505 eV
  | Total energy (T->0) per atom                          :       -7869.69193576 eV  <-- do not rely on this value for anything but (periodic) metals
  | Electronic free energy per atom                       :       -7869.69371438 eV

  Self-consistency convergence accuracy:
  | Change of charge density      :  0.7982E-02
  | Change of sum of eigenvalues  : -0.2153E+01 eV
  | Change of total energy        :  0.2454E-02 eV

  End self-consistency iteration #     3       :  max(cpu_time)    wall_clock(cpu1)
  | Time for this iteration                    :        0.308 s           0.307 s
  | Charge density update                      :        0.063 s           0.063 s
  | Density mixing & preconditioning           :        0.009 s           0.008 s
  | Hartree multipole update                   :        0.000 s           0.001 s
  | Hartree multipole summation                :        0.102 s           0.102 s
  | Integration                                :        0.037 s           0.037 s
  | Solution of K.-S. eqns.                    :        0.096 s           0.096 s
  | Total energy evaluation                    :        0.000 s           0.000 s

  Partial memory accounting:
  | Current value for overall tracked memory usage on task 0  :           2.591 MB
  | Peak value for overall tracked memory usage on task 0     :           3.176 MB after allocating wave
  | Largest tracked array allocation on task 0 so far         :           2.500 MB  when allocating +KS_eigenvector_complex
  Note:  These values currently only include a subset of arrays which are explicitly tracked.
  The "true" memory usage will be greater.
------------------------------------------------------------

------------------------------------------------------------
          Begin self-consistency iteration #    4

  Date     :  20190514, Time     :  123640.856
------------------------------------------------------------
  Evaluating new KS density using the density matrix
  Evaluating density matrix
  Time summed over all CPUs for getting density from density matrix: real work        0.055 s, elapsed        0.055 s
  Integration grid: deviation in total charge (<rho> - N_e) =  -1.953993E-13
  Pulay mixing of updated and previous charge densities.

  Evaluating partitioned Hartree potential by multipole expansion.
  | Analytical far-field extrapolation by fixed multipoles:
  | Hartree multipole sum: apparent total charge =  -0.547730E-02
  Summing up the Hartree potential.
  Time summed over all CPUs for potential: real work        0.099 s, elapsed        0.099 s
  | RMS charge density error from multipole expansion :   0.104887E-02
  | Average real-space part of the electrostatic potential :     -0.29478408 eV

  Integrating Hamiltonian matrix: batch-based integration.
  Time summed over all CPUs for integration: real work        0.036 s, elapsed        0.036 s

  Updating Kohn-Sham eigenvalues, eigenvectors, occupation numbers, and Fermi level.
  Solving generalized eigenproblem

  Obtaining occupation numbers and chemical potential using ELSI.
  | Chemical potential (Fermi level):    -4.64483214eV
  What follows are estimated values for band gap, HOMO, LUMO, etc.
  | They are estimated on a discrete k-point grid and not necessarily exact.
  | For converged numbers, create a DOS and/or band structure plot on a denser k-grid.

  Highest occupied state (VBM) at     -4.64957548 eV (relative to internal zero)
  | Occupation number:      1.10672554
  | K-point:     321 at    0.250000    0.250000    0.333333 (in units of recip. lattice)

  Lowest unoccupied state (CBM) at    -4.63731768 eV (relative to internal zero)
  | Occupation number:      0.83168509
  | K-point:     705 at    0.583333    0.416667    0.583333 (in units of recip. lattice)

  ESTIMATED overall HOMO-LUMO gap:      0.01225780 eV between HOMO at k-point 321 and LUMO at k-point 705
  | This appears to be an indirect band gap.
  | Smallest direct gap :      0.14580952 eV for k_point 575 at    0.583333    0.416667    0.583333 (in units of recip. lattice)
  However, this system has fractional occupation numbers. Since we use a finite k-point grid,
  this material is metallic within the approximate finite broadening function (occupation_type)
  applied to determine the occupation numbers.

  Total energy components:
  | Sum of eigenvalues            :        -163.79334972 Ha       -4457.04381772 eV
  | XC energy correction          :         -19.58654704 Ha        -532.97706264 eV
  | XC potential correction       :          25.87948092 Ha         704.21650590 eV
  | Free-atom electrostatic energy:        -132.20651472 Ha       -3597.52230545 eV
  | Hartree energy correction     :           0.50113116 Ha          13.63647274 eV
  | Entropy correction            :          -0.00006511 Ha          -0.00177162 eV
  | ---------------------------
  | Total energy                  :        -289.20579940 Ha       -7869.69020717 eV
  | Total energy, T -> 0          :        -289.20586451 Ha       -7869.69197879 eV  <-- do not rely on this value for anything but (periodic) metals
  | Electronic free energy        :        -289.20592961 Ha       -7869.69375041 eV

  Derived energy quantities:
  | Kinetic energy                :         289.39245501 Ha        7874.76936473 eV
  | Electrostatic energy          :        -559.01170737 Ha      -15211.48250926 eV
  | Energy correction for multipole
  | error in Hartree potential    :           0.00015564 Ha           0.00423505 eV
  | Sum of eigenvalues per atom                           :       -4457.04381772 eV
  | Total energy (T->0) per atom                          :       -7869.69197879 eV  <-- do not rely on this value for anything but (periodic) metals
  | Electronic free energy per atom                       :       -7869.69375041 eV

  Self-consistency convergence accuracy:
  | Change of charge density      :  0.5206E-02
  | Change of sum of eigenvalues  :  0.1194E+01 eV
  | Change of total energy        : -0.5003E-04 eV

  End self-consistency iteration #     4       :  max(cpu_time)    wall_clock(cpu1)
  | Time for this iteration                    :        0.304 s           0.303 s
  | Charge density update                      :        0.062 s           0.062 s
  | Density mixing & preconditioning           :        0.009 s           0.009 s
  | Hartree multipole update                   :        0.000 s           0.000 s
  | Hartree multipole summation                :        0.101 s           0.101 s
  | Integration                                :        0.036 s           0.036 s
  | Solution of K.-S. eqns.                    :        0.094 s           0.094 s
  | Total energy evaluation                    :        0.000 s           0.000 s

  Partial memory accounting:
  | Current value for overall tracked memory usage on task 0  :           2.591 MB
  | Peak value for overall tracked memory usage on task 0     :           3.176 MB after allocating wave
  | Largest tracked array allocation on task 0 so far         :           2.500 MB  when allocating +KS_eigenvector_complex
  Note:  These values currently only include a subset of arrays which are explicitly tracked.
  The "true" memory usage will be greater.
------------------------------------------------------------

------------------------------------------------------------
          Begin self-consistency iteration #    5

  Date     :  20190514, Time     :  123641.159
------------------------------------------------------------
  Evaluating new KS density using the density matrix
  Evaluating density matrix
  Time summed over all CPUs for getting density from density matrix: real work        0.055 s, elapsed        0.055 s
  Integration grid: deviation in total charge (<rho> - N_e) =  -4.138911E-13
  Pulay mixing of updated and previous charge densities.

  Evaluating partitioned Hartree potential by multipole expansion.
  | Analytical far-field extrapolation by fixed multipoles:
  | Hartree multipole sum: apparent total charge =  -0.546481E-02
  Summing up the Hartree potential.
  Time summed over all CPUs for potential: real work        0.101 s, elapsed        0.101 s
  | RMS charge density error from multipole expansion :   0.105035E-02
  | Average real-space part of the electrostatic potential :     -0.29529830 eV

  Integrating Hamiltonian matrix: batch-based integration.
  Time summed over all CPUs for integration: real work        0.038 s, elapsed        0.038 s

  Updating Kohn-Sham eigenvalues, eigenvectors, occupation numbers, and Fermi level.
  Solving generalized eigenproblem

  Obtaining occupation numbers and chemical potential using ELSI.
  | Chemical potential (Fermi level):    -4.64531456eV
  What follows are estimated values for band gap, HOMO, LUMO, etc.
  | They are estimated on a discrete k-point grid and not necessarily exact.
  | For converged numbers, create a DOS and/or band structure plot on a denser k-grid.

  Highest occupied state (VBM) at     -4.65004506 eV (relative to internal zero)
  | Occupation number:      1.10643838
  | K-point:     319 at    0.250000    0.250000    0.166667 (in units of recip. lattice)

  Lowest unoccupied state (CBM) at    -4.63780997 eV (relative to internal zero)
  | Occupation number:      0.83190270
  | K-point:     705 at    0.583333    0.416667    0.583333 (in units of recip. lattice)

  ESTIMATED overall HOMO-LUMO gap:      0.01223510 eV between HOMO at k-point 319 and LUMO at k-point 705
  | This appears to be an indirect band gap.
  | Smallest direct gap :      0.14579631 eV for k_point 575 at    0.583333    0.416667    0.583333 (in units of recip. lattice)
  However, this system has fractional occupation numbers. Since we use a finite k-point grid,
  this material is metallic within the approximate finite broadening function (occupation_type)
  applied to determine the occupation numbers.

  Total energy components:
  | Sum of eigenvalues            :        -163.79395012 Ha       -4457.06015552 eV
  | XC energy correction          :         -19.58649222 Ha        -532.97557079 eV
  | XC potential correction       :          25.87940903 Ha         704.21454977 eV
  | Free-atom electrostatic energy:        -132.20651472 Ha       -3597.52230545 eV
  | Hartree energy correction     :           0.50174873 Ha          13.65327769 eV
  | Entropy correction            :          -0.00006511 Ha          -0.00177168 eV
  | ---------------------------
  | Total energy                  :        -289.20579930 Ha       -7869.69020431 eV
  | Total energy, T -> 0          :        -289.20586441 Ha       -7869.69197599 eV  <-- do not rely on this value for anything but (periodic) metals
  | Electronic free energy        :        -289.20592951 Ha       -7869.69374768 eV

  Derived energy quantities:
  | Kinetic energy                :         289.39229374 Ha        7874.76497640 eV
  | Electrostatic energy          :        -559.01160082 Ha      -15211.47960992 eV
  | Energy correction for multipole
  | error in Hartree potential    :           0.00015603 Ha           0.00424592 eV
  | Sum of eigenvalues per atom                           :       -4457.06015552 eV
  | Total energy (T->0) per atom                          :       -7869.69197599 eV  <-- do not rely on this value for anything but (periodic) metals
  | Electronic free energy per atom                       :       -7869.69374768 eV

  Self-consistency convergence accuracy:
  | Change of charge density      :  0.2024E-02
  | Change of sum of eigenvalues  : -0.1634E-01 eV
  | Change of total energy        :  0.2864E-05 eV

  End self-consistency iteration #     5       :  max(cpu_time)    wall_clock(cpu1)
  | Time for this iteration                    :        0.306 s           0.306 s
  | Charge density update                      :        0.062 s           0.063 s
  | Density mixing & preconditioning           :        0.008 s           0.008 s
  | Hartree multipole update                   :        0.000 s           0.000 s
  | Hartree multipole summation                :        0.103 s           0.103 s
  | Integration                                :        0.038 s           0.038 s
  | Solution of K.-S. eqns.                    :        0.094 s           0.093 s
  | Total energy evaluation                    :        0.000 s           0.000 s

  Partial memory accounting:
  | Current value for overall tracked memory usage on task 0  :           2.591 MB
  | Peak value for overall tracked memory usage on task 0     :           3.176 MB after allocating wave
  | Largest tracked array allocation on task 0 so far         :           2.500 MB  when allocating +KS_eigenvector_complex
  Note:  These values currently only include a subset of arrays which are explicitly tracked.
  The "true" memory usage will be greater.
------------------------------------------------------------

------------------------------------------------------------
          Begin self-consistency iteration #    6

  Date     :  20190514, Time     :  123641.465
------------------------------------------------------------
  Evaluating new KS density using the density matrix
  Evaluating density matrix
  Time summed over all CPUs for getting density from density matrix: real work        0.056 s, elapsed        0.056 s
  Integration grid: deviation in total charge (<rho> - N_e) =  -3.037570E-13
  Pulay mixing of updated and previous charge densities.

  Evaluating partitioned Hartree potential by multipole expansion.
  | Analytical far-field extrapolation by fixed multipoles:
  | Hartree multipole sum: apparent total charge =  -0.161458E-02
  Summing up the Hartree potential.
  Time summed over all CPUs for potential: real work        0.102 s, elapsed        0.102 s
  | RMS charge density error from multipole expansion :   0.105539E-02
  | Average real-space part of the electrostatic potential :     -0.31080527 eV

  Integrating Hamiltonian matrix: batch-based integration.
  Time summed over all CPUs for integration: real work        0.037 s, elapsed        0.037 s

  Updating Kohn-Sham eigenvalues, eigenvectors, occupation numbers, and Fermi level.
  Solving generalized eigenproblem

  Obtaining occupation numbers and chemical potential using ELSI.
  | Chemical potential (Fermi level):    -4.64554954eV
  What follows are estimated values for band gap, HOMO, LUMO, etc.
  | They are estimated on a discrete k-point grid and not necessarily exact.
  | For converged numbers, create a DOS and/or band structure plot on a denser k-grid.

  Highest occupied state (VBM) at     -4.65018856 eV (relative to internal zero)
  | Occupation number:      1.10439189
  | K-point:     312 at    0.250000    0.166667    0.333333 (in units of recip. lattice)

  Lowest unoccupied state (CBM) at    -4.63809064 eV (relative to internal zero)
  | Occupation number:      0.83291112
  | K-point:     557 at    0.416667    0.416667    0.583333 (in units of recip. lattice)

  ESTIMATED overall HOMO-LUMO gap:      0.01209792 eV between HOMO at k-point 312 and LUMO at k-point 557
  | This appears to be an indirect band gap.
  | Smallest direct gap :      0.14579715 eV for k_point 557 at    0.416667    0.416667    0.583333 (in units of recip. lattice)
  However, this system has fractional occupation numbers. Since we use a finite k-point grid,
  this material is metallic within the approximate finite broadening function (occupation_type)
  applied to determine the occupation numbers.

  Total energy components:
  | Sum of eigenvalues            :        -163.80121568 Ha       -4457.25786133 eV
  | XC energy correction          :         -19.58418518 Ha        -532.91279309 eV
  | XC potential correction       :          25.87637206 Ha         704.13190965 eV
  | Free-atom electrostatic energy:        -132.20651472 Ha       -3597.52230545 eV
  | Hartree energy correction     :           0.50974471 Ha          13.87085929 eV
  | Entropy correction            :          -0.00006509 Ha          -0.00177118 eV
  | ---------------------------
  | Total energy                  :        -289.20579881 Ha       -7869.69019093 eV
  | Total energy, T -> 0          :        -289.20586390 Ha       -7869.69196211 eV  <-- do not rely on this value for anything but (periodic) metals
  | Electronic free energy        :        -289.20592899 Ha       -7869.69373330 eV

  Derived energy quantities:
  | Kinetic energy                :         289.36583900 Ha        7874.04510610 eV
  | Electrostatic energy          :        -558.98745262 Ha      -15210.82250394 eV
  | Energy correction for multipole
  | error in Hartree potential    :           0.00017564 Ha           0.00477929 eV
  | Sum of eigenvalues per atom                           :       -4457.25786133 eV
  | Total energy (T->0) per atom                          :       -7869.69196211 eV  <-- do not rely on this value for anything but (periodic) metals
  | Electronic free energy per atom                       :       -7869.69373330 eV

  Self-consistency convergence accuracy:
  | Change of charge density      :  0.2008E-02
  | Change of sum of eigenvalues  : -0.1977E+00 eV
  | Change of total energy        :  0.1338E-04 eV

  End self-consistency iteration #     6       :  max(cpu_time)    wall_clock(cpu1)
  | Time for this iteration                    :        0.308 s           0.308 s
  | Charge density update                      :        0.064 s           0.064 s
  | Density mixing & preconditioning           :        0.009 s           0.008 s
  | Hartree multipole update                   :        0.000 s           0.001 s
  | Hartree multipole summation                :        0.103 s           0.103 s
  | Integration                                :        0.037 s           0.037 s
  | Solution of K.-S. eqns.                    :        0.095 s           0.095 s
  | Total energy evaluation                    :        0.000 s           0.000 s

  Partial memory accounting:
  | Current value for overall tracked memory usage on task 0  :           2.592 MB
  | Peak value for overall tracked memory usage on task 0     :           3.176 MB after allocating wave
  | Largest tracked array allocation on task 0 so far         :           2.500 MB  when allocating +KS_eigenvector_complex
  Note:  These values currently only include a subset of arrays which are explicitly tracked.
  The "true" memory usage will be greater.
------------------------------------------------------------

------------------------------------------------------------
          Begin self-consistency iteration #    7

  Date     :  20190514, Time     :  123641.773
------------------------------------------------------------
  Evaluating new KS density using the density matrix
  Evaluating density matrix
  Time summed over all CPUs for getting density from density matrix: real work        0.055 s, elapsed        0.055 s
  Integration grid: deviation in total charge (<rho> - N_e) =  -3.463896E-13
  Pulay mixing of updated and previous charge densities.

  Evaluating partitioned Hartree potential by multipole expansion.
  | Analytical far-field extrapolation by fixed multipoles:
  | Hartree multipole sum: apparent total charge =  -0.201519E-02
  Summing up the Hartree potential.
  Time summed over all CPUs for potential: real work        0.100 s, elapsed        0.100 s
  | RMS charge density error from multipole expansion :   0.108059E-02
  | Average real-space part of the electrostatic potential :     -0.31729814 eV

  Integrating Hamiltonian matrix: batch-based integration.
  Time summed over all CPUs for integration: real work        0.037 s, elapsed        0.037 s

  Updating Kohn-Sham eigenvalues, eigenvectors, occupation numbers, and Fermi level.
  Solving generalized eigenproblem

  Obtaining occupation numbers and chemical potential using ELSI.
  | Chemical potential (Fermi level):    -4.65605688eV
  What follows are estimated values for band gap, HOMO, LUMO, etc.
  | They are estimated on a discrete k-point grid and not necessarily exact.
  | For converged numbers, create a DOS and/or band structure plot on a denser k-grid.

  Highest occupied state (VBM) at     -4.66037923 eV (relative to internal zero)
  | Occupation number:      1.09730261
  | K-point:     312 at    0.250000    0.166667    0.333333 (in units of recip. lattice)

  Lowest unoccupied state (CBM) at    -4.64888356 eV (relative to internal zero)
  | Occupation number:      0.83921935
  | K-point:     557 at    0.416667    0.416667    0.583333 (in units of recip. lattice)

  ESTIMATED overall HOMO-LUMO gap:      0.01149567 eV between HOMO at k-point 312 and LUMO at k-point 557
  | This appears to be an indirect band gap.
  | Smallest direct gap :      0.14542936 eV for k_point 557 at    0.416667    0.416667    0.583333 (in units of recip. lattice)
  However, this system has fractional occupation numbers. Since we use a finite k-point grid,
  this material is metallic within the approximate finite broadening function (occupation_type)
  applied to determine the occupation numbers.

  Total energy components:
  | Sum of eigenvalues            :        -163.81734895 Ha       -4457.69687010 eV
  | XC energy correction          :         -19.58299634 Ha        -532.88044294 eV
  | XC potential correction       :          25.87480701 Ha         704.08932232 eV
  | Free-atom electrostatic energy:        -132.20651472 Ha       -3597.52230545 eV
  | Hartree energy correction     :           0.52625448 Ha          14.32011291 eV
  | Entropy correction            :          -0.00006518 Ha          -0.00177366 eV
  | ---------------------------
  | Total energy                  :        -289.20579852 Ha       -7869.69018326 eV
  | Total energy, T -> 0          :        -289.20586370 Ha       -7869.69195692 eV  <-- do not rely on this value for anything but (periodic) metals
  | Electronic free energy        :        -289.20592889 Ha       -7869.69373058 eV

  Derived energy quantities:
  | Kinetic energy                :         289.35876298 Ha        7873.85255782 eV
  | Electrostatic energy          :        -558.98156517 Ha      -15210.66229814 eV
  | Energy correction for multipole
  | error in Hartree potential    :           0.00017680 Ha           0.00481103 eV
  | Sum of eigenvalues per atom                           :       -4457.69687010 eV
  | Total energy (T->0) per atom                          :       -7869.69195692 eV  <-- do not rely on this value for anything but (periodic) metals
  | Electronic free energy per atom                       :       -7869.69373058 eV

  Self-consistency convergence accuracy:
  | Change of charge density      :  0.2327E-03
  | Change of sum of eigenvalues  : -0.4390E+00 eV
  | Change of total energy        :  0.7668E-05 eV

  End self-consistency iteration #     7       :  max(cpu_time)    wall_clock(cpu1)
  | Time for this iteration                    :        0.306 s           0.306 s
  | Charge density update                      :        0.063 s           0.063 s
  | Density mixing & preconditioning           :        0.009 s           0.009 s
  | Hartree multipole update                   :        0.000 s           0.000 s
  | Hartree multipole summation                :        0.102 s           0.102 s
  | Integration                                :        0.037 s           0.037 s
  | Solution of K.-S. eqns.                    :        0.094 s           0.095 s
  | Total energy evaluation                    :        0.000 s           0.000 s

  Partial memory accounting:
  | Current value for overall tracked memory usage on task 0  :           2.592 MB
  | Peak value for overall tracked memory usage on task 0     :           3.176 MB after allocating wave
  | Largest tracked array allocation on task 0 so far         :           2.500 MB  when allocating +KS_eigenvector_complex
  Note:  These values currently only include a subset of arrays which are explicitly tracked.
  The "true" memory usage will be greater.
------------------------------------------------------------

------------------------------------------------------------
          Begin self-consistency iteration #    8

  Date     :  20190514, Time     :  123642.079
------------------------------------------------------------
  Evaluating new KS density using the density matrix
  Evaluating density matrix
  Time summed over all CPUs for getting density from density matrix: real work        0.054 s, elapsed        0.054 s
  Integration grid: deviation in total charge (<rho> - N_e) =  -4.209966E-13
  Pulay mixing of updated and previous charge densities.

  Evaluating partitioned Hartree potential by multipole expansion.
  | Analytical far-field extrapolation by fixed multipoles:
  | Hartree multipole sum: apparent total charge =   0.158481E-03
  Summing up the Hartree potential.
  Time summed over all CPUs for potential: real work        0.101 s, elapsed        0.101 s
  | RMS charge density error from multipole expansion :   0.105465E-02
  | Average real-space part of the electrostatic potential :     -0.31579377 eV

  Integrating Hamiltonian matrix: batch-based integration.
  Time summed over all CPUs for integration: real work        0.037 s, elapsed        0.037 s

  Updating Kohn-Sham eigenvalues, eigenvectors, occupation numbers, and Fermi level.
  Solving generalized eigenproblem

  Obtaining occupation numbers and chemical potential using ELSI.
  | Chemical potential (Fermi level):    -4.64653731eV
  What follows are estimated values for band gap, HOMO, LUMO, etc.
  | They are estimated on a discrete k-point grid and not necessarily exact.
  | For converged numbers, create a DOS and/or band structure plot on a denser k-grid.

  Highest occupied state (VBM) at     -4.65109048 eV (relative to internal zero)
  | Occupation number:      1.10247068
  | K-point:     319 at    0.250000    0.250000    0.166667 (in units of recip. lattice)

  Lowest unoccupied state (CBM) at    -4.63918249 eV (relative to internal zero)
  | Occupation number:      0.83520885
  | K-point:     705 at    0.583333    0.416667    0.583333 (in units of recip. lattice)

  ESTIMATED overall HOMO-LUMO gap:      0.01190799 eV between HOMO at k-point 319 and LUMO at k-point 705
  | This appears to be an indirect band gap.
  | Smallest direct gap :      0.14567893 eV for k_point 575 at    0.583333    0.416667    0.583333 (in units of recip. lattice)
  However, this system has fractional occupation numbers. Since we use a finite k-point grid,
  this material is metallic within the approximate finite broadening function (occupation_type)
  applied to determine the occupation numbers.

  Total energy components:
  | Sum of eigenvalues            :        -163.80289618 Ha       -4457.30359030 eV
  | XC energy correction          :         -19.58369024 Ha        -532.89932514 eV
  | XC potential correction       :          25.87572703 Ha         704.11435731 eV
  | Free-atom electrostatic energy:        -132.20651472 Ha       -3597.52230545 eV
  | Hartree energy correction     :           0.51157535 Ha          13.92067354 eV
  | Entropy correction            :          -0.00006513 Ha          -0.00177237 eV
  | ---------------------------
  | Total energy                  :        -289.20579877 Ha       -7869.69019004 eV
  | Total energy, T -> 0          :        -289.20586391 Ha       -7869.69196241 eV  <-- do not rely on this value for anything but (periodic) metals
  | Electronic free energy        :        -289.20592904 Ha       -7869.69373479 eV

  Derived energy quantities:
  | Kinetic energy                :         289.36557443 Ha        7874.03790688 eV
  | Electrostatic energy          :        -558.98768296 Ha      -15210.82877178 eV
  | Energy correction for multipole
  | error in Hartree potential    :           0.00017471 Ha           0.00475397 eV
  | Sum of eigenvalues per atom                           :       -4457.30359030 eV
  | Total energy (T->0) per atom                          :       -7869.69196241 eV  <-- do not rely on this value for anything but (periodic) metals
  | Electronic free energy per atom                       :       -7869.69373479 eV

  Self-consistency convergence accuracy:
  | Change of charge density      :  0.8905E-03
  | Change of sum of eigenvalues  :  0.3933E+00 eV
  | Change of total energy        : -0.6777E-05 eV

  End self-consistency iteration #     8       :  max(cpu_time)    wall_clock(cpu1)
  | Time for this iteration                    :        0.307 s           0.307 s
  | Charge density update                      :        0.062 s           0.062 s
  | Density mixing & preconditioning           :        0.008 s           0.008 s
  | Hartree multipole update                   :        0.000 s           0.001 s
  | Hartree multipole summation                :        0.102 s           0.102 s
  | Integration                                :        0.037 s           0.037 s
  | Solution of K.-S. eqns.                    :        0.097 s           0.096 s
  | Total energy evaluation                    :        0.000 s           0.001 s

  Partial memory accounting:
  | Current value for overall tracked memory usage on task 0  :           2.592 MB
  | Peak value for overall tracked memory usage on task 0     :           3.176 MB after allocating wave
  | Largest tracked array allocation on task 0 so far         :           2.500 MB  when allocating +KS_eigenvector_complex
  Note:  These values currently only include a subset of arrays which are explicitly tracked.
  The "true" memory usage will be greater.
------------------------------------------------------------

------------------------------------------------------------
          Begin self-consistency iteration #    9

  Date     :  20190514, Time     :  123642.386
------------------------------------------------------------
  Evaluating new KS density using the density matrix
  Evaluating density matrix
  Time summed over all CPUs for getting density from density matrix: real work        0.054 s, elapsed        0.054 s
  Integration grid: deviation in total charge (<rho> - N_e) =  -3.037570E-13
  Pulay mixing of updated and previous charge densities.

  Evaluating partitioned Hartree potential by multipole expansion.
  | Analytical far-field extrapolation by fixed multipoles:
  | Hartree multipole sum: apparent total charge =   0.158122E-03
  Summing up the Hartree potential.
  Time summed over all CPUs for potential: real work        0.101 s, elapsed        0.101 s
  | RMS charge density error from multipole expansion :   0.105464E-02
  | Average real-space part of the electrostatic potential :     -0.31578762 eV

  Integrating Hamiltonian matrix: batch-based integration.
  Time summed over all CPUs for integration: real work        0.037 s, elapsed        0.037 s

  Updating Kohn-Sham eigenvalues, eigenvectors, occupation numbers, and Fermi level.
  Solving generalized eigenproblem

  Obtaining occupation numbers and chemical potential using ELSI.
  | Chemical potential (Fermi level):    -4.64653069eV
  What follows are estimated values for band gap, HOMO, LUMO, etc.
  | They are estimated on a discrete k-point grid and not necessarily exact.
  | For converged numbers, create a DOS and/or band structure plot on a denser k-grid.

  Highest occupied state (VBM) at     -4.65108407 eV (relative to internal zero)
  | Occupation number:      1.10247544
  | K-point:     321 at    0.250000    0.250000    0.333333 (in units of recip. lattice)

  Lowest unoccupied state (CBM) at    -4.63917568 eV (relative to internal zero)
  | Occupation number:      0.83520471
  | K-point:     705 at    0.583333    0.416667    0.583333 (in units of recip. lattice)

  ESTIMATED overall HOMO-LUMO gap:      0.01190839 eV between HOMO at k-point 321 and LUMO at k-point 705
  | This appears to be an indirect band gap.
  | Smallest direct gap :      0.14567917 eV for k_point 575 at    0.583333    0.416667    0.583333 (in units of recip. lattice)
  However, this system has fractional occupation numbers. Since we use a finite k-point grid,
  this material is metallic within the approximate finite broadening function (occupation_type)
  applied to determine the occupation numbers.

  Total energy components:
  | Sum of eigenvalues            :        -163.80288567 Ha       -4457.30330413 eV
  | XC energy correction          :         -19.58369118 Ha        -532.89935071 eV
  | XC potential correction       :          25.87572826 Ha         704.11439091 eV
  | Free-atom electrostatic energy:        -132.20651472 Ha       -3597.52230545 eV
  | Hartree energy correction     :           0.51156454 Ha          13.92037931 eV
  | Entropy correction            :          -0.00006513 Ha          -0.00177237 eV
  | ---------------------------
  | Total energy                  :        -289.20579877 Ha       -7869.69019007 eV
  | Total energy, T -> 0          :        -289.20586391 Ha       -7869.69196244 eV  <-- do not rely on this value for anything but (periodic) metals
  | Electronic free energy        :        -289.20592904 Ha       -7869.69373481 eV

  Derived energy quantities:
  | Kinetic energy                :         289.36557950 Ha        7874.03804484 eV
  | Electrostatic energy          :        -558.98768709 Ha      -15210.82888420 eV
  | Energy correction for multipole
  | error in Hartree potential    :           0.00017470 Ha           0.00475390 eV
  | Sum of eigenvalues per atom                           :       -4457.30330413 eV
[...]
  | Hartree multipole update                   :        0.000 s           0.001 s
  | Hartree multipole summation                :        0.102 s           0.102 s
  | Integration                                :        0.037 s           0.037 s
  | Solution of K.-S. eqns.                    :        0.095 s           0.095 s
  | Total energy evaluation                    :        0.000 s           0.000 s

  Partial memory accounting:
  | Current value for overall tracked memory usage on task 0  :           2.592 MB
  | Peak value for overall tracked memory usage on task 0     :           3.176 MB after allocating wave
  | Largest tracked array allocation on task 0 so far         :           2.500 MB  when allocating +KS_eigenvector_complex
  Note:  These values currently only include a subset of arrays which are explicitly tracked.
  The "true" memory usage will be greater.
------------------------------------------------------------

------------------------------------------------------------
          Begin self-consistency iteration #   11

  Date     :  20190514, Time     :  123642.997
------------------------------------------------------------
  Evaluating new KS density using the density matrix
  Evaluating density matrix
  Time summed over all CPUs for getting density from density matrix: real work        0.055 s, elapsed        0.055 s
  Integration grid: deviation in total charge (<rho> - N_e) =  -3.730349E-13
  Pulay mixing of updated and previous charge densities.

  Evaluating partitioned Hartree potential by multipole expansion.
  | Analytical far-field extrapolation by fixed multipoles:
  | Hartree multipole sum: apparent total charge =   0.128015E-03
  Summing up the Hartree potential.
  Time summed over all CPUs for potential: real work        0.108 s, elapsed        0.108 s
  | RMS charge density error from multipole expansion :   0.105386E-02
  | Average real-space part of the electrostatic potential :     -0.31545051 eV

  Integrating Hamiltonian matrix: batch-based integration.
  Time summed over all CPUs for integration: real work        0.038 s, elapsed        0.038 s

  Updating Kohn-Sham eigenvalues, eigenvectors, occupation numbers, and Fermi level.
  Solving generalized eigenproblem

  Obtaining occupation numbers and chemical potential using ELSI.
  | Chemical potential (Fermi level):    -4.64616362eV
  What follows are estimated values for band gap, HOMO, LUMO, etc.
  | They are estimated on a discrete k-point grid and not necessarily exact.
  | For converged numbers, create a DOS and/or band structure plot on a denser k-grid.

  Highest occupied state (VBM) at     -4.65072979 eV (relative to internal zero)
  | Occupation number:      1.10276159
  | K-point:     419 at    0.333333    0.166667    0.250000 (in units of recip. lattice)

  Lowest unoccupied state (CBM) at    -4.63879690 eV (relative to internal zero)
  | Occupation number:      0.83494598
  | K-point:     705 at    0.583333    0.416667    0.583333 (in units of recip. lattice)

  ESTIMATED overall HOMO-LUMO gap:      0.01193289 eV between HOMO at k-point 419 and LUMO at k-point 705
  | This appears to be an indirect band gap.
  | Smallest direct gap :      0.14569417 eV for k_point 575 at    0.583333    0.416667    0.583333 (in units of recip. lattice)
  However, this system has fractional occupation numbers. Since we use a finite k-point grid,
  this material is metallic within the approximate finite broadening function (occupation_type)
  applied to determine the occupation numbers.

  Total energy components:
  | Sum of eigenvalues            :        -163.80225273 Ha       -4457.28608113 eV
  | XC energy correction          :         -19.58374858 Ha        -532.90091264 eV
  | XC potential correction       :          25.87580373 Ha         704.11644463 eV
  | Free-atom electrostatic energy:        -132.20651472 Ha       -3597.52230545 eV
  | Hartree energy correction     :           0.51091347 Ha          13.90266300 eV
  | Entropy correction            :          -0.00006513 Ha          -0.00177227 eV
  | ---------------------------
  | Total energy                  :        -289.20579883 Ha       -7869.69019158 eV
  | Total energy, T -> 0          :        -289.20586396 Ha       -7869.69196385 eV  <-- do not rely on this value for anything but (periodic) metals
  | Electronic free energy        :        -289.20592909 Ha       -7869.69373612 eV

  Derived energy quantities:
  | Kinetic energy                :         289.36591722 Ha        7874.04723465 eV
  | Electrostatic energy          :        -558.98796747 Ha      -15210.83651360 eV
  | Energy correction for multipole
  | error in Hartree potential    :           0.00017463 Ha           0.00475187 eV
  | Sum of eigenvalues per atom                           :       -4457.28608113 eV
  | Total energy (T->0) per atom                          :       -7869.69196385 eV  <-- do not rely on this value for anything but (periodic) metals
  | Electronic free energy per atom                       :       -7869.69373612 eV

  Self-consistency convergence accuracy:
  | Change of charge density      :  0.1845E-05
  | Change of sum of eigenvalues  : -0.7151E-03 eV
  | Change of total energy        :  0.5739E-07 eV

  End self-consistency iteration #    11       :  max(cpu_time)    wall_clock(cpu1)
  | Time for this iteration                    :        0.316 s           0.316 s
  | Charge density update                      :        0.063 s           0.063 s
  | Density mixing & preconditioning           :        0.008 s           0.008 s
  | Hartree multipole update                   :        0.000 s           0.001 s
  | Hartree multipole summation                :        0.111 s           0.111 s
  | Integration                                :        0.038 s           0.038 s
  | Solution of K.-S. eqns.                    :        0.095 s           0.095 s
  | Total energy evaluation                    :        0.000 s           0.000 s

  Partial memory accounting:
  | Current value for overall tracked memory usage on task 0  :           2.592 MB
  | Peak value for overall tracked memory usage on task 0     :           3.176 MB after allocating wave
  | Largest tracked array allocation on task 0 so far         :           2.500 MB  when allocating +KS_eigenvector_complex
  Note:  These values currently only include a subset of arrays which are explicitly tracked.
  The "true" memory usage will be greater.
------------------------------------------------------------

------------------------------------------------------------
          Begin self-consistency iteration #   12

  Date     :  20190514, Time     :  123643.313
------------------------------------------------------------
  Evaluating new KS density using the density matrix
  Evaluating density matrix
  Time summed over all CPUs for getting density from density matrix: real work        0.055 s, elapsed        0.055 s
  Integration grid: deviation in total charge (<rho> - N_e) =  -2.522427E-13
  Pulay mixing of updated and previous charge densities.

  Evaluating partitioned Hartree potential by multipole expansion.
  | Analytical far-field extrapolation by fixed multipoles:
  | Hartree multipole sum: apparent total charge =   0.127986E-03
  Summing up the Hartree potential.
  Time summed over all CPUs for potential: real work        0.100 s, elapsed        0.100 s
  | RMS charge density error from multipole expansion :   0.105386E-02
  | Average real-space part of the electrostatic potential :     -0.31545198 eV

  Integrating Hamiltonian matrix: batch-based integration.
  Time summed over all CPUs for integration: real work        0.037 s, elapsed        0.037 s

  Updating Kohn-Sham eigenvalues, eigenvectors, occupation numbers, and Fermi level.
  Solving generalized eigenproblem

  Obtaining occupation numbers and chemical potential using ELSI.
  | Chemical potential (Fermi level):    -4.64616579eV
  What follows are estimated values for band gap, HOMO, LUMO, etc.
  | They are estimated on a discrete k-point grid and not necessarily exact.
  | For converged numbers, create a DOS and/or band structure plot on a denser k-grid.

  Highest occupied state (VBM) at     -4.65073189 eV (relative to internal zero)
  | Occupation number:      1.10276006
  | K-point:     319 at    0.250000    0.250000    0.166667 (in units of recip. lattice)

  Lowest unoccupied state (CBM) at    -4.63879913 eV (relative to internal zero)
  | Occupation number:      0.83494736
  | K-point:     705 at    0.583333    0.416667    0.583333 (in units of recip. lattice)

  ESTIMATED overall HOMO-LUMO gap:      0.01193276 eV between HOMO at k-point 319 and LUMO at k-point 705
  | This appears to be an indirect band gap.
  | Smallest direct gap :      0.14569409 eV for k_point 575 at    0.583333    0.416667    0.583333 (in units of recip. lattice)
  However, this system has fractional occupation numbers. Since we use a finite k-point grid,
  this material is metallic within the approximate finite broadening function (occupation_type)
  applied to determine the occupation numbers.

  Total energy components:
  | Sum of eigenvalues            :        -163.80225616 Ha       -4457.28617438 eV
  | XC energy correction          :         -19.58374832 Ha        -532.90090547 eV
  | XC potential correction       :          25.87580339 Ha         704.11643520 eV
  | Free-atom electrostatic energy:        -132.20651472 Ha       -3597.52230545 eV
  | Hartree energy correction     :           0.51091699 Ha          13.90275853 eV
  | Entropy correction            :          -0.00006513 Ha          -0.00177227 eV
  | ---------------------------
  | Total energy                  :        -289.20579883 Ha       -7869.69019158 eV
  | Total energy, T -> 0          :        -289.20586396 Ha       -7869.69196385 eV  <-- do not rely on this value for anything but (periodic) metals
  | Electronic free energy        :        -289.20592909 Ha       -7869.69373612 eV

  Derived energy quantities:
  | Kinetic energy                :         289.36591562 Ha        7874.04719111 eV
  | Electrostatic energy          :        -558.98796613 Ha      -15210.83647722 eV
  | Energy correction for multipole
  | error in Hartree potential    :           0.00017463 Ha           0.00475187 eV
  | Sum of eigenvalues per atom                           :       -4457.28617438 eV
  | Total energy (T->0) per atom                          :       -7869.69196385 eV  <-- do not rely on this value for anything but (periodic) metals
  | Electronic free energy per atom                       :       -7869.69373612 eV

  Self-consistency convergence accuracy:
  | Change of charge density      :  0.2594E-06
  | Change of sum of eigenvalues  : -0.9326E-04 eV
  | Change of total energy        :  0.7527E-08 eV

  Preliminary charge convergence reached. Turning off preconditioner.

  Writing Kohn-Sham eigenvalues.
  K-point:       1 at    0.000000    0.000000    0.000000 (in units of recip. lattice)

  State    Occupation    Eigenvalue [Ha]    Eigenvalue [eV]
      1       2.00000         -65.540167        -1783.43867
      2       2.00000          -5.129597         -139.58345
      3       2.00000          -3.544397          -96.44795
      4       2.00000          -3.544397          -96.44795
      5       2.00000          -3.544397          -96.44795
      6       2.00000          -0.426630          -11.60920
      7       0.00000          -0.128018           -3.48356
      8       0.00000          -0.128018           -3.48356
      9       0.00000          -0.128018           -3.48356
     10       0.00000           0.027813            0.75684

  What follows are estimated values for band gap, HOMO, LUMO, etc.
  | They are estimated on a discrete k-point grid and not necessarily exact.
  | For converged numbers, create a DOS and/or band structure plot on a denser k-grid.

  Highest occupied state (VBM) at     -4.65073189 eV (relative to internal zero)
  | Occupation number:      1.10276006
  | K-point:     319 at    0.250000    0.250000    0.166667 (in units of recip. lattice)

  Lowest unoccupied state (CBM) at    -4.63879913 eV (relative to internal zero)
  | Occupation number:      0.83494736
  | K-point:     705 at    0.583333    0.416667    0.583333 (in units of recip. lattice)

  ESTIMATED overall HOMO-LUMO gap:      0.01193276 eV between HOMO at k-point 319 and LUMO at k-point 705
  | This appears to be an indirect band gap.
  | Smallest direct gap :      0.14569409 eV for k_point 575 at    0.583333    0.416667    0.583333 (in units of recip. lattice)
  However, this system has fractional occupation numbers. Since we use a finite k-point grid,
  this material is metallic within the approximate finite broadening function (occupation_type)
  applied to determine the occupation numbers.

  Self-consistency cycle converged.

  End self-consistency iteration #    12       :  max(cpu_time)    wall_clock(cpu1)
  | Time for this iteration                    :        0.305 s           0.306 s
  | Charge density update                      :        0.063 s           0.063 s
  | Density mixing                             :        0.008 s           0.008 s
  | Hartree multipole update                   :        0.000 s           0.001 s
  | Hartree multipole summation                :        0.103 s           0.102 s
  | Integration                                :        0.036 s           0.037 s
  | Solution of K.-S. eqns.                    :        0.094 s           0.094 s
  | Total energy evaluation                    :        0.000 s           0.000 s

  Partial memory accounting:
  | Current value for overall tracked memory usage on task 0  :           2.592 MB
  | Peak value for overall tracked memory usage on task 0     :           3.176 MB after allocating wave
  | Largest tracked array allocation on task 0 so far         :           2.500 MB  when allocating +KS_eigenvector_complex
  Note:  These values currently only include a subset of arrays which are explicitly tracked.
  The "true" memory usage will be greater.
------------------------------------------------------------

  Energy and forces in a compact form:
  | Total energy uncorrected      :         -0.786969019157722E+04 eV
  | Total energy corrected        :         -0.786969196384741E+04 eV  <-- do not rely on this value for anything but (periodic) metals
  | Electronic free energy        :         -0.786969373611759E+04 eV

  ------------------------------------ 
  Start decomposition of the XC Energy 
  ------------------------------------ 
  X and C from original XC functional choice 
  Hartree-Fock Energy :          0.000000000 Ha              0.000000000 eV
  X Energy            :        -18.534305796 Ha           -504.344121450 eV
  C Energy            :         -1.049442524 Ha            -28.556784024 eV
  Total XC Energy     :        -19.583748320 Ha           -532.900905475 eV
  ------------------------------------ 
  LDA X and C from self-consistent density 
  X Energy LDA        :        -18.534305796 Ha           -504.344121450 eV
  C Energy LDA        :         -1.049442524 Ha            -28.556784024 eV
  ------------------------------------ 
  End decomposition of the XC Energy 
  ------------------------------------ 

------------------------------------------------------------

------------------------------------------------------------------------------
  Final output of selected total energy values:

  The following output summarizes some interesting total energy values
  at the end of a run (AFTER all relaxation, molecular dynamics, etc.).

  | Total energy of the DFT / Hartree-Fock s.c.f. calculation      :          -7869.690191577 eV
  | Final zero-broadening corrected energy (caution - metals only) :          -7869.691963847 eV
  | For reference only, the value of 1 Hartree used in FHI-aims is :             27.211384500 eV

  Before relying on these values, please be sure to understand exactly which
  total energy value is referred to by a given number. Different objects may
  all carry the same name 'total energy'. Definitions:

  Total energy of the DFT / Hartree-Fock s.c.f. calculation:
  | Note that this energy does not include ANY quantities calculated after the
  | s.c.f. cycle, in particular not ANY RPA, MP2, etc. many-body perturbation terms.

  Final zero-broadening corrected energy:
  | For metallic systems only, a broadening of the occupation numbers at the Fermi
  | level can be extrapolated back to zero broadening by an electron-gas inspired
  | formula. For all systems that are not real metals, this value can be
  | meaningless and should be avoided.

------------------------------------------------------------------------------
  Methods described in the following list of references were used in this FHI-aims run.
  If you publish the results, please make sure to cite these reference if they apply.
  FHI-aims is an academic code, and for our developers (often, Ph.D. students
  and postdocs), scientific credit in the community is essential.
  Thank you for helping us!

  For any use of FHI-aims, please cite:

    Volker Blum, Ralf Gehrke, Felix Hanke, Paula Havu, Ville Havu,
    Xinguo Ren, Karsten Reuter, and Matthias Scheffler
    'Ab initio molecular simulations with numeric atom-centered orbitals'
    Computer Physics Communications 180, 2175-2196 (2009)
    http://dx.doi.org/10.1016/j.cpc.2009.06.022


  For the real-space grid partitioning and parallelization used in this calculation, please cite:

    Ville Havu, Volker Blum, Paula Havu, and Matthias Scheffler,
    'Efficient O(N) integration for all-electron electronic structure calculation'
    'using numerically tabulated basis functions'
    Journal of Computational Physics 228, 8367-8379 (2009).
    http://dx.doi.org/10.1016/j.jcp.2009.08.008

  Of course, there are many other important community references, e.g., those cited in the
  above references. Our list is limited to references that describe implementations in the
  FHI-aims code. The reason is purely practical (length of this list) - please credit others as well.

------------------------------------------------------------
          Leaving FHI-aims.
          Date     :  20190514, Time     :  123643.624

          Computational steps:
          | Number of self-consistency cycles          :           12
          | Number of SCF (re)initializations          :            1

          Detailed time accounting                     :  max(cpu_time)    wall_clock(cpu1)
          | Total time                                 :        4.086 s           4.086 s
          | Preparation time                           :        0.098 s           0.098 s
          | Boundary condition initalization           :        0.035 s           0.036 s
          | Grid partitioning                          :        0.008 s           0.008 s
          | Preloading free-atom quantities on grid    :        0.001 s           0.001 s
          | Free-atom superposition energy             :        0.006 s           0.007 s
          | Total time for integrations                :        0.505 s           0.506 s
          | Total time for solution of K.-S. equations :        1.343 s           1.344 s
          | Total time for density update              :        0.751 s           0.753 s
          | Total time for mixing & preconditioning    :        0.103 s           0.101 s
          | Total time for Hartree multipole update    :        0.005 s           0.006 s
          | Total time for Hartree multipole sum       :        1.203 s           1.201 s
          | Total time for total energy evaluation     :        0.002 s           0.001 s
          | Total time for scaled ZORA corrections     :        0.000 s           0.000 s

 This is a stub MPI_ALLREDUCE call.
 You should not be here. Check your
 setting on the use_mpi variable, or
 link against true MPI-libraries.
