------------------------------------------------------------
          Invoking FHI-aims ...
          Version 171221_1
          Compiled on 2019/05/06 at 14:26:40 on host ffph0xx.

          When using FHI-aims, please cite the following reference:

          Volker Blum, Ralf Gehrke, Felix Hanke, Paula Havu,
          Ville Havu, Xinguo Ren, Karsten Reuter, and Matthias Scheffler,
          'Ab Initio Molecular Simulations with Numeric Atom-Centered Orbitals',
          Computer Physics Communications 180, 2175-2196 (2009)

          For any questions about FHI-aims, please visit the aimsclub website
          with its forums and wiki. Contributions to both the forums and the
          wiki are warmly encouraged - they are for you, and everyone is welcome there.

------------------------------------------------------------



  Date     :  20190513, Time     :  133929.614
  Time zero on CPU 1             :   0.133400000000000E-02  s.
  Internal wall clock time zero  :           326986769.614  s.

  FHI-aims created a unique identifier for this run for later identification
  aims_uuid : 22B491D8-9426-4687-A340-47EB21A8A494


  Performing system and environment tests:
  *** Environment variable OMP_NUM_THREADS is not set
  *** For performance reasons you might want to set it to 1
  | Stacksize not measured: no C compiler

  Obtaining array dimensions for all initial allocations:
  
  -----------------------------------------------------------------------
  Parsing control.in (first pass over file, find array dimensions only).
  The contents of control.in will be repeated verbatim below
  unless switched off by setting 'verbatim_writeout .false.' .
  in the first line of control.in .
  -----------------------------------------------------------------------
  
  #--- method ---
  xc pw-lda
  spin none
  relativistic atomic_zora scalar
  #---
  
  #--- k-grid settings ---
  k_grid 8 8 8
  #---
  
  
  
  
  
  
  
  
  
  
  
  #-------------------------------------------------------------------------------
  #--- Species defaults for Si
  #-------------------------------------------------------------------------------
  
  ################################################################################
  #
  #  FHI-aims code project
  #  VB, Fritz-Haber Institut, 2009
  #
  #  Suggested "light" defaults for Si atom (to be pasted into control.in file)
  #  Be sure to double-check any results obtained with these settings for post-processing,
  #  e.g., with the "tight" defaults and larger basis sets.
  #
  ################################################################################
    species        Si
  #     global species definitions
      nucleus             14
      mass                28.0855
  #
      l_hartree           4
  #
      cut_pot             3.5          1.5  1.0
      basis_dep_cutoff    1e-4
  #
      radial_base         42 5.0
      radial_multiplier   1
      angular_grids       specified
        division   0.5866   50
        division   0.9616  110
        division   1.2249  194
        division   1.3795  302
  #      division   1.4810  434
  #      division   1.5529  590
  #      division   1.6284  770
  #      division   1.7077  974
  #      division   2.4068 1202
  #      outer_grid   974
        outer_grid 302
  ################################################################################
  #
  #  Definition of "minimal" basis
  #
  ################################################################################
  #     valence basis states
      valence      3  s   2.
      valence      3  p   2.
  #     ion occupancy
      ion_occ      3  s   1.
      ion_occ      3  p   1.
  ################################################################################
  #
  #  Suggested additional basis functions. For production calculations,
  #  uncomment them one after another (the most important basis functions are
  #  listed first).
  #
  #  Constructed for dimers: 1.75 A, 2.0 A, 2.25 A, 2.75 A, 3.75 A
  #
  ################################################################################
  #  "First tier" - improvements: -571.96 meV to -37.03 meV
       hydro 3 d 4.2
       hydro 2 p 1.4
  #     hydro 4 f 6.2
       ionic 3 s auto
  #  "Second tier" - improvements: -16.76 meV to -3.03 meV
  #     hydro 3 d 9
  #     hydro 5 g 9.4
  #     hydro 4 p 4
  #     hydro 1 s 0.65
  #  "Third tier" - improvements: -3.89 meV to -0.60 meV
  #     ionic 3 d auto
  #     hydro 3 s 2.6
  #     hydro 4 f 8.4
  #     hydro 3 d 3.4
  #     hydro 3 p 7.8
  #  "Fourth tier" - improvements: -0.33 meV to -0.11 meV
  #     hydro 2 p 1.6
  #     hydro 5 g 10.8
  #     hydro 5 f 11.2
  #     hydro 3 d 1
  #     hydro 4 s 4.5
  #  Further basis functions that fell out of the optimization - noise
  #  level... < -0.08 meV
  #     hydro 4 d 6.6
  #     hydro 5 g 16.4
  #     hydro 4 d 9
  
  -----------------------------------------------------------------------
  Completed first pass over input file control.in .
  -----------------------------------------------------------------------
  
  
  -----------------------------------------------------------------------
  Parsing geometry.in (first pass over file, find array dimensions only).
  The contents of geometry.in will be repeated verbatim below
  unless switched off by setting 'verbatim_writeout .false.' .
  in the first line of geometry.in .
  -----------------------------------------------------------------------
  
  lattice_vector   0.000000   2.550000   2.550000
  lattice_vector   2.550000   0.000000   2.550000
  lattice_vector   2.550000   2.550000   0.000000
  atom_frac   0.000000   0.000000   0.000000 Si
  atom_frac   0.250000   0.250000   0.250000 Si
  
  -----------------------------------------------------------------------
  Completed first pass over input file geometry.in .
  -----------------------------------------------------------------------
  

  Basic array size parameters:
  | Number of species                 :        1
  | Number of atoms                   :        2
  | Number of lattice vectors         :        3
  | Max. basis fn. angular momentum   :        2
  | Max. atomic/ionic basis occupied n:        3
  | Max. number of basis fn. types    :        3
  | Max. radial fns per species/type  :        5
  | Max. logarithmic grid size        :     1346
  | Max. radial integration grid size :       42
  | Max. angular integration grid size:      302
  | Max. angular grid division number :        8
  | Radial grid for Hartree potential :     1346
  | Number of spin channels           :        1

------------------------------------------------------------
          Reading file control.in.
------------------------------------------------------------
  XC: Using Perdew-Wang parametrisation of Ceperley-Alder LDA.
  Spin treatment: No spin polarisation.
  Scalar relativistic treatment of kinetic energy: on-site free-atom approximation to ZORA.
  Found k-point grid:         8         8         8

  Reading configuration options for species Si                  .
  | Found nuclear charge :  14.0000
  | Found atomic mass :    28.085500000000000      amu
  | Found l_max for Hartree potential  :   4
  | Found cutoff potl. onset [A], width [A], scale factor :    3.50000    1.50000    1.00000
  | Threshold for basis-dependent cutoff potential is   0.100000E-03
  | Found data for basic radial integration grid :    42 points, outermost radius =    5.000 A
  | Found multiplier for basic radial grid :   1
  | Found angular grid specification: user-specified.
  | Specified grid contains     5 separate shells.
  | Check grid settings after all constraints further below.
  | Found free-atom valence shell :  3 s   2.000
  | Found free-atom valence shell :  3 p   2.000
  | Found free-ion valence shell :  3 s   1.000
  | Found free-ion valence shell :  3 p   1.000
  | Found hydrogenic basis function :  3 d   4.200
  | Found hydrogenic basis function :  2 p   1.400
  | Found ionic basis function :  3 s , default cutoff radius.
  Species Si                  : Missing cutoff potential type.
  Defaulting to exp(1/x)/(1-x)^2 type cutoff potential.
  Species Si: No 'logarithmic' tag. Using default grid for free atom:
  | Default logarithmic grid data [bohr] : 0.1000E-03 0.1000E+03 0.1012E+01
  | Will include ionic basis functions of  2.0-fold positive Si                   ion.
  Species Si: On-site basis accuracy parameter (for Gram-Schmidt orthonormalisation) not specified.
  Using default value basis_acc =  0.1000000E-03.
  Species Si                  : Using default innermost maximum threshold i_radial=  2 for radial functions.
  Species Si                  : Default cutoff onset for free atom density etc. : 0.35000000E+01 AA.
  Species Si                  : Basic radial grid will be enhanced according to radial_multiplier =   1, to contain    42 grid points.

  Finished reading input file 'control.in'. Consistency checks are next.

  MPI_IN_PLACE appears to work with this MPI implementation.
  | Keeping use_mpi_in_place .true. (see manual).
  Target number of points in a grid batch is not set. Defaulting to  100
  Method for grid partitioning is not set. Defaulting to 'maxmin' partitioning.
  Batch size limit is not set. Defaulting to    200
  By default, will store active basis functions for each batch.
  If in need of memory, prune_basis_once .false. can be used to disable this option.
  communication_type for Hartree potential was not specified.
  Defaulting to calc_hartree .
 * Attention: 
 * You may want to set distributed_spline_storage to .true. in order to save memory.
 * This doesn't harm performance and is perfectly ok unless:
 * - you get error messages in postprocessing (about missing atoms in get_rho_multipole_spl)
 * - you need full spline storage in hirshfeld_analysis
  Defaulting to Pulay charge density mixer.
  Pulay mixer: Number of relevant iterations not set.
  Defaulting to    8 iterations.
  Pulay mixer: Number of initial linear mixing iterations not set.
  Defaulting to    0 iterations.
  Work space size for distributed Hartree potential not set.
  Defaulting to   0.200000E+03 MB.
  Mixing parameter for charge density mixing has not been set.
  Using default: charge_mix_param =     0.0500.
  The mixing parameter will be adjusted in iteration number     2 of the first full s.c.f. cycle only.
  Algorithm-dependent basis array size parameters:
  | n_max_pulay                         :        8
 * Notice: The s.c.f. convergence criterion sc_accuracy_rho was not provided.
 * We used to stop in this case, and ask the user to provide reasonable
 * scf convergence criteria. However, this led some users to employ criteria
 * that led to extremely long run times, e.g., for simple relaxation.
 * We now preset a default value for sc_accuracy_rho if it is not set.
 * You may still wish to check if this setting is too tight or too loose for your needs.
 * Based on n_atoms, FHI-aims chose sc_accuracy_rho =  0.100000E-05 .
  Maximum number of self-consistency iterations not provided.
  Presetting  1000 iterations.
  Presetting      1001 iterations before the initial mixing cycle
  is restarted anyway using the sc_init_iter criterion / keyword.
  Presetting a factor      1.000 between actual scf density residual
  and density convergence criterion sc_accuracy_rho below which sc_init_iter
  takes no effect.
 * No s.c.f. convergence criteria (sc_accuracy_*) were provided in control.in.
 * The run will proceed with a reasonable default guess, but please check whether.
 * the s.c.f. cycles seem to take too much or too little time.
  Calculation of forces was not defined in control.in. No forces will be calculated.
  Geometry relaxation not requested: no relaxation will be performed.
  No accuracy limit for integral partition fn. given. Defaulting to  0.1000E-14.
  No threshold value for u(r) in integrations given. Defaulting to  0.1000E-05.
  No occupation type (smearing scheme) given. Defaulting to Gaussian broadening, width =  0.1000E-01 eV.
  The width will be adjusted in iteration number     2 of the first full s.c.f. cycle only.
  S.C.F. convergence parameters will be adjusted in iteration number     2 of the first full s.c.f. cycle only.
  No accuracy for occupation numbers given. Defaulting to  0.1000E-12.
  No threshold value for occupation numbers given. Defaulting to  0.0000E+00.
  No accuracy for fermi level given. Defaulting to  0.1000E-19.
  Maximum # of iterations to find E_F not set. Defaulting to  200.
  Preferred method for the eigenvalue solver ('KS_method') not specified in 'control.in'.
  Defaulting to serial version, 'lapack_fast'.
  Will not use alltoall communication since running on < 1024 CPUs.
  Threshold for basis singularities not set.
  Default threshold for basis singularities:  0.1000E-04
  partition_type (choice of integration weights) for integrals was not specified.
  | Using a version of the partition function of Stratmann and coworkers ('stratmann_smoother').
  | At each grid point, the set of atoms used to build the partition table is smoothly restricted to
  | only those atoms whose free-atom density would be non-zero at that grid point.
  Partitioning for Hartree potential was not defined. Using partition_type for integrals.
  | Adjusted default value of keyword multip_moments_threshold to:       0.10000000E-11
  | This value may affect high angular momentum components of the Hartree potential in periodic systems.
  Angular momentum expansion for Kerker preconditioner not set explicitly.
  | Using default value of   0
  No explicit requirement for turning off preconditioner.
  | By default, it will be turned off when the charge convergence reaches
  | sc_accuracy_rho  =   0.100000E-05
  No special mixing parameter while Kerker preconditioner is on.
  Using default: charge_mix_param =     0.0500.
  No q(lm)/r^(l+1) cutoff set for long-range Hartree potential.
  | Using default value of  0.100000E-09 .
  | Verify using the multipole_threshold keyword.
  Defaulting to new monopole extrapolation.
  Density update method: automatic selection selected.
  Using density matrix based charge density update.
  Using density matrix based charge density update.
  Using packed matrix style: index .
  Defaulting to use time-reversal symmetry for k-point grid.
------------------------------------------------------------


------------------------------------------------------------
          Reading geometry description geometry.in.
------------------------------------------------------------
  Input structure read successfully.
  The structure contains        2 atoms,  and a total of         28.000 electrons.

  Input geometry:
  | Unit cell:
  |        0.00000000        2.55000000        2.55000000
  |        2.55000000        0.00000000        2.55000000
  |        2.55000000        2.55000000        0.00000000
  | Atomic structure:
  |       Atom                x [A]            y [A]            z [A]
  |    1: Species Si            0.00000000        0.00000000        0.00000000
  |    2: Species Si            1.27500000        1.27500000        1.27500000

  Lattice parameters for 3D lattice (in Angstroms) :     3.606245    3.606245    3.606245
  Angle(s) between unit vectors (in degrees)      :    60.000000   60.000000   60.000000

  |

  | The smallest distance between any two atoms is         2.20836478 AA.
  |
  | The first atom of this pair is atom number                      1 .
  | The second atom of this pair is atom number                     2 .
  | Wigner-Seitz cell of the first atom image           0     0     0 .
  | (The Wigner-Seitz cell of the second atom is 0 0 0  by definition.)

  Quantities derived from the lattice vectors:
  | Reciprocal lattice vector 1: -1.231997  1.231997  1.231997
  | Reciprocal lattice vector 2:  1.231997 -1.231997  1.231997
  | Reciprocal lattice vector 3:  1.231997  1.231997 -1.231997
  | Unit cell volume                               :   0.331627E+02  A^3

  Range separation radius for Ewald summation (hartree_convergence_parameter):      3.62591133 bohr.

  Fractional coordinates:
                         L1                L2                L3
       atom_frac         0.00000000        0.00000000        0.00000000  Si
       atom_frac         0.25000000        0.25000000        0.25000000  Si

  Number of empty states per atom not set in control.in - providing a guess from actual geometry.
  | Total number of empty states used during s.c.f. cycle:        6
  If you use a very high smearing, use empty_states (per atom!) in control.in to increase this value.

  Structure-dependent array size parameters: 
  | Maximum number of distinct radial functions  :        8
  | Maximum number of basis functions            :       36
  | Number of Kohn-Sham states (occupied + empty):       20
------------------------------------------------------------

------------------------------------------------------------
          Preparing all fixed parts of the calculation.
------------------------------------------------------------
  Determining machine precision:
     2.2250738585072014E-308
  Setting up grids for atomic and cluster calculations.

  Creating wave function, potential, and density for free atoms.

  Species: Si

  List of occupied orbitals and eigenvalues:
    n    l              occ      energy [Ha]    energy [eV]
    1    0           2.0000       -65.491668     -1782.1190
    2    0           2.0000        -5.087967      -138.4506
    3    0           2.0000        -0.391471       -10.6525
    2    1           6.0000        -3.502246       -95.3010
    3    1           2.0000        -0.143943        -3.9169

  Creating fixed part of basis set: Ionic, confined, hydrogenic.

  Si                   ion:

  List of free ionic orbitals and eigenvalues:
    n    l      energy [Ha]    energy [eV]
    1    0       -66.364436     -1805.8682
    2    0        -5.935799      -161.5213
    3    0        -1.078166       -29.3384
    2    1        -4.351123      -118.4001
    3    1        -0.781733       -21.2720


  List of ionic basis orbitals and eigenvalues:
    n    l      energy [Ha]    energy [eV]    outer radius [A]
    3    0        -1.078146       -29.3378       4.214062


  Si                   hydrogenic:

  List of hydrogenic basis orbitals: 
    n    l      effective z      eigenvalue [eV]  inner max. [A]     outer max. [A]     outer radius [A]   
    3    2         4.200000       -26.6624           1.139231           1.139231           4.534782
    2    1         1.400000        -6.4613           1.472672           1.472672           4.590560


  Adding cutoff potential to free-atom effective potential.
  Creating atomic-like basis functions for current effective potential.

  Species Si                  :

  List of atomic basis orbitals and eigenvalues:
    n    l      energy [Ha]    energy [eV]    outer radius [A]
    1    0       -65.491668     -1782.1190       0.789468
    2    0        -5.087967      -138.4506       2.815114
    3    0        -0.391471       -10.6525       4.534782
    2    1        -3.502246       -95.3010       3.259919
    3    1        -0.143943        -3.9169       4.590560

  Assembling full basis from fixed parts.
  | Species Si :   atomic orbital   1 s accepted.
  | Species Si :   atomic orbital   2 s accepted.
  | Species Si :    ionic orbital   3 s accepted.
  | Species Si :   atomic orbital   3 s accepted.
  | Species Si :   atomic orbital   2 p accepted.
  | Species Si :   atomic orbital   3 p accepted.
  | Species Si :    hydro orbital   2 p accepted.
  | Species Si :    hydro orbital   3 d accepted.

  Basis size parameters after reduction:
  | Total number of radial functions:        8
  | Total number of basis functions :       36

  Per-task memory consumption for arrays in subroutine allocate_ext:
  |           2.757868MB.
  Testing on-site integration grid accuracy.
  |  Species  Function  <phi|h_atom|phi> (log., in eV)  <phi|h_atom|phi> (rad., in eV)
           1        1              -1782.1189727076              -1782.1182429251
           1        2               -138.4506350693               -138.4506310079
           1        3                -10.3030408815                -10.3029120678
           1        4                  5.0238999146                  4.9457540310 ***
           1        5                -95.3009689499                -95.3009689315
           1        6                 -3.9266496564                 -3.9420918374
           1        7                  6.3453628447                  6.1632372158 ***
           1        8                  6.2883050744                  6.2861881409
 * Note: Onsite integrals marked "***" above are less accurate than
 * onsite_accuracy_threshold =    0.03000 eV. Usually, this is harmless.
 * When in doubt, tighten the "radial" and/or "radial_multiplier" flags to check.

  Preparing densities etc. for the partition functions (integrals / Hartree potential).

  Preparations completed.
  max(cpu_time)          :      0.095 s.
  Wall clock time (cpu1) :      0.100 s.
------------------------------------------------------------

------------------------------------------------------------
          Begin self-consistency loop: Initialization.

          Date     :  20190513, Time     :  133929.729
------------------------------------------------------------

  Initializing index lists of integration centers etc. from given atomic structure:
  Mapping all atomic coordinates to central unit cell.

  Initializing the k-points
          Using symmetry for reducing the k-points
  | k-points reduced from:      512 to      260
  | Number of k-points                             :       260
  The eigenvectors in the calculations are COMPLEX.
  | K-points in task   0:       260
  | Number of basis functions in the Hamiltonian integrals :      1498
  | Number of basis functions in a single unit cell        :        36
  | Number of centers in hartree potential         :       780
  | Number of centers in hartree multipole         :       378
  | Number of centers in electron density summation:       228
  | Number of centers in basis integrals           :       288
  | Number of centers in integrals                 :       101
  | Number of centers in hamiltonian               :       228
  | Consuming        576 KiB for k_phase.
  | Number of super-cells (origin) [n_cells]                     :        2197
  | Number of super-cells (after PM_index) [n_cells]             :         142
  | Number of super-cells in hamiltonian [n_cells_in_hamiltonian]:         142
  | Size of matrix packed + index [n_hamiltonian_matrix_size] :       50271
  Partitioning the integration grid into batches with maxmin method.
  | Maximal weight for a single point:     1.000
  | Minimal weight for a single point:     0.706
  | Number of batches:      128
  | Maximal batch size:      90
  | Minimal batch size:      85
  | Average batch size:      87.562
  | Standard deviation of batch sizes:       1.493
  Initializing partition tables, free-atom densities, potentials, etc. across the integration grid (initialize_grid_storage).
  | initialize_grid_storage: Actual outermost partition radius vs. multipole_radius_free
  | (-- VB: in principle, multipole_radius_free should be larger, hence this output)
  | Species        1: Confinement radius =              4.999999999999999 AA, multipole_radius_free =              5.000694715736543 AA.
  | Species        1: outer_partition_radius set to              5.000694715736543 AA .
  | Original list of interatomic distances with         288 x        288 entries is created.
  | Net number of integration points:    11208
  | of which are non-zero points    :     9580
  | Numerical average free-atom electrostatic potential    :    -15.86988072 eV
  Renormalizing the initial density to the exact electron count on the 3D integration grid.
  | Initial density: Formal number of electrons (from input files) :      28.0000000000
  | Integrated number of electrons on 3D grid     :      28.0069324253
  | Charge integration error                      :       0.0069324253
  | Normalization factor for density and gradient :       0.9997524747
  Obtaining max. number of non-zero basis functions in each batch (get_n_compute_maxes).
  | Maximal number of non-zero basis functions:      550 in task     0
  Allocating        2.995 MB for KS_eigenvector_complex
  Integrating Hamiltonian matrix: batch-based integration.
  Time summed over all CPUs for integration: real work        0.768 s, elapsed        0.768 s
  Integrating overlap matrix.
  Time summed over all CPUs for integration: real work        0.557 s, elapsed        0.557 s
  Decreasing sparse matrix size:
   Tolerance:   9.9999998245167004E-014
   Hamiltonian matrix
  | Array has    43827 nonzero elements out of    50271 elements
  | Sparsity factor is 0.128
   Overlap matrix
  | Array has    40604 nonzero elements out of    50271 elements
  | Sparsity factor is 0.192
  New size of hamiltonian matrix:       44155

  Updating Kohn-Sham eigenvalues, eigenvectors, occupation numbers, and Fermi level.
  Solving generalized eigenproblem
  Transforming overlap matrix and checking for singularities.
  Overlap matrix is nonsingular at first k-point:
  | Lowest eigenvalue:  0.228247E-02

  Obtaining occupation numbers and chemical potential using ELSI.
  | Chemical potential (Fermi level):    -6.45334016eV
  Writing Kohn-Sham eigenvalues.
  K-point:       1 at    0.000000    0.000000    0.000000 (in units of recip. lattice)

  State    Occupation    Eigenvalue [Ha]    Eigenvalue [eV]
      1       2.00000         -65.527151        -1783.08450
      2       2.00000         -65.527151        -1783.08450
      3       2.00000          -5.131321         -139.63034
      4       2.00000          -5.130586         -139.61034
      5       2.00000          -3.545638          -96.48173
      6       2.00000          -3.545638          -96.48173
      7       2.00000          -3.545638          -96.48173
      8       2.00000          -3.544306          -96.44547
      9       2.00000          -3.544306          -96.44547
     10       2.00000          -3.544306          -96.44547
     11       2.00000          -0.732935          -19.94417
     12       2.00000          -0.249921           -6.80070
     13       2.00000          -0.249921           -6.80070
     14       2.00000          -0.249921           -6.80070
     15       0.00000          -0.140778           -3.83077
     16       0.00000          -0.140778           -3.83077
     17       0.00000          -0.140778           -3.83077
     18       0.00000          -0.037390           -1.01744
     19       0.00000           0.052470            1.42779
     20       0.00000           0.052470            1.42779

  What follows are estimated values for band gap, HOMO, LUMO, etc.
  | They are estimated on a discrete k-point grid and not necessarily exact.
  | For converged numbers, create a DOS and/or band structure plot on a denser k-grid.

  Highest occupied state (VBM) at     -6.80070496 eV (relative to internal zero)
  | Occupation number:      2.00000000
  | K-point:       1 at    0.000000    0.000000    0.000000 (in units of recip. lattice)

  Lowest unoccupied state (CBM) at    -6.12853382 eV (relative to internal zero)
  | Occupation number:      0.00000000
  | K-point:     149 at    0.375000    0.375000    0.000000 (in units of recip. lattice)

  ESTIMATED overall HOMO-LUMO gap:      0.67217114 eV between HOMO at k-point 1 and LUMO at k-point 149
  | This appears to be an indirect band gap.
  | Smallest direct gap :      2.96993543 eV for k_point 1 at    0.375000    0.375000    0.000000 (in units of recip. lattice)
  The gap value is above 0.2 eV. Unless you are using a very sparse k-point grid,
  this system is most likely an insulator or a semiconductor.
  Calculating total energy contributions from superposition of free atom densities.

  Total energy components:
  | Sum of eigenvalues            :        -328.78932154 Ha       -8946.81264803 eV
  | XC energy correction          :         -39.77187644 Ha       -1082.24782214 eV
  | XC potential correction       :          52.54427084 Ha        1429.80235714 eV
  | Free-atom electrostatic energy:        -262.71365604 Ha       -7148.80230797 eV
  | Hartree energy correction     :          -0.00000000 Ha          -0.00000000 eV
  | Entropy correction            :          -0.00000000 Ha          -0.00000000 eV
  | ---------------------------
  | Total energy                  :        -578.73058319 Ha      -15748.06042099 eV
  | Total energy, T -> 0          :        -578.73058319 Ha      -15748.06042099 eV  <-- do not rely on this value for anything but (periodic) metals
  | Electronic free energy        :        -578.73058319 Ha      -15748.06042099 eV

  Derived energy quantities:
  | Kinetic energy                :         580.02890514 Ha       15783.38955877 eV
  | Electrostatic energy          :       -1118.98761188 Ha      -30449.20215763 eV
  | Energy correction for multipole
  | error in Hartree potential    :           0.00000000 Ha           0.00000000 eV
  | Sum of eigenvalues per atom                           :       -4473.40632401 eV
  | Total energy (T->0) per atom                          :       -7874.03021050 eV  <-- do not rely on this value for anything but (periodic) metals
  | Electronic free energy per atom                       :       -7874.03021050 eV
  Initialize hartree_potential_storage
  Max. number of atoms included in rho_multipole:            2

  End scf initialization - timings             :  max(cpu_time)    wall_clock(cpu1)
  | Time for scf. initialization               :        1.937 s           1.951 s
  | Boundary condition initialization          :        0.035 s           0.036 s
  | Integration                                :        1.324 s           1.325 s
  | Solution of K.-S. eqns.                    :        0.308 s           0.315 s
  | Grid partitioning                          :        0.032 s           0.034 s
  | Preloading free-atom quantities on grid    :        0.001 s           0.000 s
  | Free-atom superposition energy             :        0.036 s           0.036 s
  | Total energy evaluation                    :        0.000 s           0.000 s

  Partial memory accounting:
  | Current value for overall tracked memory usage on task 0  :           3.879 MB
  | Peak value for overall tracked memory usage on task 0     :           7.609 MB after allocating wave
  | Largest tracked array allocation on task 0 so far         :           2.995 MB  when allocating +KS_eigenvector_complex
  Note:  These values currently only include a subset of arrays which are explicitly tracked.
  The "true" memory usage will be greater.
------------------------------------------------------------

------------------------------------------------------------
          Begin self-consistency iteration #    1

  Date     :  20190513, Time     :  133931.680
------------------------------------------------------------
  Evaluating new KS density using the density matrix
  Evaluating density matrix
  Time summed over all CPUs for getting density from density matrix: real work        1.283 s, elapsed        1.283 s
  Integration grid: deviation in total charge (<rho> - N_e) =   1.705303E-13
  Pulay mixing of updated and previous charge densities.

  Evaluating partitioned Hartree potential by multipole expansion.
  | Analytical far-field extrapolation by fixed multipoles:
  | Hartree multipole sum: apparent total charge =   0.712133E-02
  Summing up the Hartree potential.
  | Estimated reciprocal-space cutoff momentum G_max:         2.58325284 bohr^-1 .
  | Reciprocal lattice points for long-range Hartree potential:      58
  Time summed over all CPUs for potential: real work        0.374 s, elapsed        0.374 s
  | RMS charge density error from multipole expansion :   0.751597E-03
  | Average real-space part of the electrostatic potential :     -0.00514306 eV

  Integrating Hamiltonian matrix: batch-based integration.
  Time summed over all CPUs for integration: real work        0.893 s, elapsed        0.893 s

  Updating Kohn-Sham eigenvalues, eigenvectors, occupation numbers, and Fermi level.
  Solving generalized eigenproblem

  Obtaining occupation numbers and chemical potential using ELSI.
  | Chemical potential (Fermi level):    -6.43088348eV
  Writing Kohn-Sham eigenvalues.
  K-point:       1 at    0.000000    0.000000    0.000000 (in units of recip. lattice)

  State    Occupation    Eigenvalue [Ha]    Eigenvalue [eV]
      1       2.00000         -65.530917        -1783.18697
      2       2.00000         -65.530917        -1783.18697
      3       2.00000          -5.131752         -139.64207
      4       2.00000          -5.131018         -139.62210
      5       2.00000          -3.546175          -96.49634
      6       2.00000          -3.546175          -96.49634
      7       2.00000          -3.546175          -96.49634
      8       2.00000          -3.544846          -96.46018
      9       2.00000          -3.544846          -96.46018
     10       2.00000          -3.544846          -96.46018
     11       2.00000          -0.732310          -19.92716
     12       2.00000          -0.248967           -6.77474
     13       2.00000          -0.248967           -6.77474
     14       2.00000          -0.248967           -6.77474
     15       0.00000          -0.140332           -3.81862
     16       0.00000          -0.140332           -3.81862
     17       0.00000          -0.140332           -3.81862
     18       0.00000          -0.036581           -0.99542
     19       0.00000           0.053016            1.44263
     20       0.00000           0.053016            1.44263

  What follows are estimated values for band gap, HOMO, LUMO, etc.
  | They are estimated on a discrete k-point grid and not necessarily exact.
  | For converged numbers, create a DOS and/or band structure plot on a denser k-grid.

  Highest occupied state (VBM) at     -6.77473740 eV (relative to internal zero)
  | Occupation number:      2.00000000
  | K-point:       1 at    0.000000    0.000000    0.000000 (in units of recip. lattice)

  Lowest unoccupied state (CBM) at    -6.12101668 eV (relative to internal zero)
  | Occupation number:      0.00000000
  | K-point:     149 at    0.375000    0.375000    0.000000 (in units of recip. lattice)

  ESTIMATED overall HOMO-LUMO gap:      0.65372073 eV between HOMO at k-point 1 and LUMO at k-point 149
  | This appears to be an indirect band gap.
  | Smallest direct gap :      2.95611816 eV for k_point 1 at    0.375000    0.375000    0.000000 (in units of recip. lattice)
  The gap value is above 0.2 eV. Unless you are using a very sparse k-point grid,
  this system is most likely an insulator or a semiconductor.

  Total energy components:
  | Sum of eigenvalues            :        -328.80696132 Ha       -8947.29265078 eV
  | XC energy correction          :         -39.77631191 Ha       -1082.36851724 eV
  | XC potential correction       :          52.55013092 Ha        1429.96181804 eV
  | Free-atom electrostatic energy:        -262.71365604 Ha       -7148.80230797 eV
  | Hartree energy correction     :           0.01707363 Ha           0.46459723 eV
  | Entropy correction            :          -0.00000000 Ha          -0.00000000 eV
  | ---------------------------
  | Total energy                  :        -578.72972471 Ha      -15748.03706073 eV
  | Total energy, T -> 0          :        -578.72972471 Ha      -15748.03706073 eV  <-- do not rely on this value for anything but (periodic) metals
  | Electronic free energy        :        -578.72972471 Ha      -15748.03706073 eV

  Derived energy quantities:
  | Kinetic energy                :         579.85426095 Ha       15778.63724871 eV
  | Electrostatic energy          :       -1118.80767376 Ha      -30444.30579220 eV
  | Energy correction for multipole
  | error in Hartree potential    :           0.00102780 Ha           0.02796785 eV
  | Sum of eigenvalues per atom                           :       -4473.64632539 eV
  | Total energy (T->0) per atom                          :       -7874.01853036 eV  <-- do not rely on this value for anything but (periodic) metals
  | Electronic free energy per atom                       :       -7874.01853036 eV

  Self-consistency convergence accuracy:
  | Change of charge density      :  0.1259E+00
  | Change of sum of eigenvalues  : -0.4800E+00 eV
  | Change of total energy        :  0.2336E-01 eV

  End self-consistency iteration #     1       :  max(cpu_time)    wall_clock(cpu1)
  | Time for this iteration                    :        2.794 s           2.796 s
  | Charge density update                      :        1.306 s           1.306 s
  | Density mixing & preconditioning           :        0.053 s           0.056 s
  | Hartree multipole update                   :        0.001 s           0.000 s
  | Hartree multipole summation                :        0.378 s           0.377 s
  | Integration                                :        0.893 s           0.893 s
  | Solution of K.-S. eqns.                    :        0.163 s           0.163 s
  | Total energy evaluation                    :        0.000 s           0.000 s

  Partial memory accounting:
  | Current value for overall tracked memory usage on task 0  :           3.879 MB
  | Peak value for overall tracked memory usage on task 0     :           7.609 MB after allocating wave
  | Largest tracked array allocation on task 0 so far         :           2.995 MB  when allocating +KS_eigenvector_complex
  Note:  These values currently only include a subset of arrays which are explicitly tracked.
  The "true" memory usage will be greater.
------------------------------------------------------------

------------------------------------------------------------
          Begin self-consistency iteration #    2

  Date     :  20190513, Time     :  133934.477
------------------------------------------------------------
  Evaluating new KS density using the density matrix
  Evaluating density matrix
  Time summed over all CPUs for getting density from density matrix: real work        1.288 s, elapsed        1.288 s
  Integration grid: deviation in total charge (<rho> - N_e) =   1.065814E-14
  Pulay mixing of updated and previous charge densities.

  Evaluating partitioned Hartree potential by multipole expansion.
  | Analytical far-field extrapolation by fixed multipoles:
  | Hartree multipole sum: apparent total charge =   0.105876E-01
  Summing up the Hartree potential.
  Time summed over all CPUs for potential: real work        0.448 s, elapsed        0.448 s
  | RMS charge density error from multipole expansion :   0.147092E-01
  | Average real-space part of the electrostatic potential :      0.49388264 eV

  Integrating Hamiltonian matrix: batch-based integration.
  Time summed over all CPUs for integration: real work        0.766 s, elapsed        0.766 s

  Updating Kohn-Sham eigenvalues, eigenvectors, occupation numbers, and Fermi level.
  Solving generalized eigenproblem

  Obtaining occupation numbers and chemical potential using ELSI.
  | Chemical potential (Fermi level):    -6.00225974eV
  What follows are estimated values for band gap, HOMO, LUMO, etc.
  | They are estimated on a discrete k-point grid and not necessarily exact.
  | For converged numbers, create a DOS and/or band structure plot on a denser k-grid.

  Highest occupied state (VBM) at     -6.06839096 eV (relative to internal zero)
  | Occupation number:      2.00000000
  | K-point:       1 at    0.000000    0.000000    0.000000 (in units of recip. lattice)

  Lowest unoccupied state (CBM) at    -5.93178888 eV (relative to internal zero)
  | Occupation number:      0.00000000
  | K-point:      30 at    0.000000    0.625000    0.625000 (in units of recip. lattice)

  ESTIMATED overall HOMO-LUMO gap:      0.13660208 eV between HOMO at k-point 1 and LUMO at k-point 30
  | This appears to be an indirect band gap.
  | Smallest direct gap :      2.58493059 eV for k_point 1 at    0.000000    0.625000    0.625000 (in units of recip. lattice)
  The gap value is rather small. This may be a metal or a small-gap semiconductor.
  Since we use a finite k-point grid, a DOS and/or band structure plot is required
  for an unambiguous assignment.

  Checking to see if s.c.f. parameters should be adjusted.
  Adjusted the Pulay mixing parameter (charge_mix_param) for an expected low-gap system. New value:   0.020000 .
  Adjusted the occupation broadening width for an expected low-gap system. New value:      0.05000000 eV.

  Total energy components:
  | Sum of eigenvalues            :        -327.55907571 Ha       -8913.33595565 eV
  | XC energy correction          :         -39.87310807 Ha       -1085.00247495 eV
  | XC potential correction       :          52.67796033 Ha        1433.44023334 eV
  | Free-atom electrostatic energy:        -262.71365604 Ha       -7148.80230797 eV
  | Hartree energy correction     :          -1.25301896 Ha         -34.09638065 eV
  | Entropy correction            :          -0.00000172 Ha          -0.00004682 eV
  | ---------------------------
  | Total energy                  :        -578.72089845 Ha      -15747.79688588 eV
  | Total energy, T -> 0          :        -578.72090017 Ha      -15747.79693270 eV  <-- do not rely on this value for anything but (periodic) metals
  | Electronic free energy        :        -578.72090189 Ha      -15747.79697953 eV

  Derived energy quantities:
  | Kinetic energy                :         580.54288025 Ha       15797.37553334 eV
  | Electrostatic energy          :       -1119.39067063 Ha      -30460.16994427 eV
  | Energy correction for multipole
  | error in Hartree potential    :           0.02008182 Ha           0.54645408 eV
  | Sum of eigenvalues per atom                           :       -4456.66797782 eV
  | Total energy (T->0) per atom                          :       -7873.89846635 eV  <-- do not rely on this value for anything but (periodic) metals
  | Electronic free energy per atom                       :       -7873.89848976 eV

  Self-consistency convergence accuracy:
  | Change of charge density      :  0.1196E+00
  | Change of sum of eigenvalues  :  0.3396E+02 eV
  | Change of total energy        :  0.2402E+00 eV

  End self-consistency iteration #     2       :  max(cpu_time)    wall_clock(cpu1)
  | Time for this iteration                    :        2.738 s           2.739 s
  | Charge density update                      :        1.311 s           1.311 s
  | Density mixing & preconditioning           :        0.048 s           0.048 s
  | Hartree multipole update                   :        0.001 s           0.000 s
  | Hartree multipole summation                :        0.452 s           0.452 s
  | Integration                                :        0.766 s           0.766 s
  | Solution of K.-S. eqns.                    :        0.159 s           0.158 s
  | Total energy evaluation                    :        0.000 s           0.000 s

  Partial memory accounting:
  | Current value for overall tracked memory usage on task 0  :           3.880 MB
  | Peak value for overall tracked memory usage on task 0     :           7.609 MB after allocating wave
  | Largest tracked array allocation on task 0 so far         :           2.995 MB  when allocating +KS_eigenvector_complex
  Note:  These values currently only include a subset of arrays which are explicitly tracked.
  The "true" memory usage will be greater.
------------------------------------------------------------

------------------------------------------------------------
          Begin self-consistency iteration #    3

  Date     :  20190513, Time     :  133937.217
------------------------------------------------------------
  Evaluating new KS density using the density matrix
  Evaluating density matrix
  Time summed over all CPUs for getting density from density matrix: real work        1.328 s, elapsed        1.328 s
  Integration grid: deviation in total charge (<rho> - N_e) =  -3.907985E-14
  Pulay mixing of updated and previous charge densities.

  Evaluating partitioned Hartree potential by multipole expansion.
  | Analytical far-field extrapolation by fixed multipoles:
  | Hartree multipole sum: apparent total charge =   0.104192E-01
  Summing up the Hartree potential.
  Time summed over all CPUs for potential: real work        0.442 s, elapsed        0.442 s
  | RMS charge density error from multipole expansion :   0.141804E-01
  | Average real-space part of the electrostatic potential :      0.47481486 eV

  Integrating Hamiltonian matrix: batch-based integration.
  Time summed over all CPUs for integration: real work        0.765 s, elapsed        0.765 s

  Updating Kohn-Sham eigenvalues, eigenvectors, occupation numbers, and Fermi level.
  Solving generalized eigenproblem

  Obtaining occupation numbers and chemical potential using ELSI.
  | Chemical potential (Fermi level):    -6.02485595eV
  What follows are estimated values for band gap, HOMO, LUMO, etc.
  | They are estimated on a discrete k-point grid and not necessarily exact.
  | For converged numbers, create a DOS and/or band structure plot on a denser k-grid.

  Highest occupied state (VBM) at     -6.09622534 eV (relative to internal zero)
  | Occupation number:      1.95647444
  | K-point:       1 at    0.000000    0.000000    0.000000 (in units of recip. lattice)

  Lowest unoccupied state (CBM) at    -5.94035111 eV (relative to internal zero)
  | Occupation number:      0.01684114
  | K-point:      30 at    0.000000    0.625000    0.625000 (in units of recip. lattice)

  ESTIMATED overall HOMO-LUMO gap:      0.15587423 eV between HOMO at k-point 1 and LUMO at k-point 30
  | This appears to be an indirect band gap.
  | Smallest direct gap :      2.59940479 eV for k_point 1 at    0.000000    0.625000    0.625000 (in units of recip. lattice)
  The gap value is rather small. This may be a metal or a small-gap semiconductor.
  Since we use a finite k-point grid, a DOS and/or band structure plot is required
  for an unambiguous assignment.

  Total energy components:
  | Sum of eigenvalues            :        -327.60975223 Ha       -8914.71493383 eV
  | XC energy correction          :         -39.86858371 Ha       -1084.87936079 eV
  | XC potential correction       :          52.67198447 Ha        1433.27762179 eV
  | Free-atom electrostatic energy:        -262.71365604 Ha       -7148.80230797 eV
  | Hartree energy correction     :          -1.20073477 Ha         -32.67365547 eV
  | Entropy correction            :          -0.00000086 Ha          -0.00002344 eV
  | ---------------------------
  | Total energy                  :        -578.72074228 Ha      -15747.79263628 eV
  | Total energy, T -> 0          :        -578.72074314 Ha      -15747.79265972 eV  <-- do not rely on this value for anything but (periodic) metals
  | Electronic free energy        :        -578.72074400 Ha      -15747.79268316 eV

  Derived energy quantities:
  | Kinetic energy                :         580.51139434 Ha       15796.51875802 eV
  | Electrostatic energy          :       -1119.36355291 Ha      -30459.43203351 eV
  | Energy correction for multipole
  | error in Hartree potential    :           0.01934874 Ha           0.52650601 eV
  | Sum of eigenvalues per atom                           :       -4457.35746692 eV
  | Total energy (T->0) per atom                          :       -7873.89632986 eV  <-- do not rely on this value for anything but (periodic) metals
  | Electronic free energy per atom                       :       -7873.89634158 eV

  Self-consistency convergence accuracy:
  | Change of charge density      :  0.2113E-01
  | Change of sum of eigenvalues  : -0.1379E+01 eV
  | Change of total energy        :  0.4250E-02 eV

  End self-consistency iteration #     3       :  max(cpu_time)    wall_clock(cpu1)
  | Time for this iteration                    :        2.783 s           2.783 s
  | Charge density update                      :        1.363 s           1.363 s
  | Density mixing & preconditioning           :        0.047 s           0.047 s
  | Hartree multipole update                   :        0.001 s           0.001 s
  | Hartree multipole summation                :        0.445 s           0.445 s
  | Integration                                :        0.765 s           0.765 s
  | Solution of K.-S. eqns.                    :        0.161 s           0.161 s
  | Total energy evaluation                    :        0.000 s           0.001 s

  Partial memory accounting:
  | Current value for overall tracked memory usage on task 0  :           3.880 MB
  | Peak value for overall tracked memory usage on task 0     :           7.609 MB after allocating wave
  | Largest tracked array allocation on task 0 so far         :           2.995 MB  when allocating +KS_eigenvector_complex
  Note:  These values currently only include a subset of arrays which are explicitly tracked.
  The "true" memory usage will be greater.
------------------------------------------------------------

------------------------------------------------------------
          Begin self-consistency iteration #    4

  Date     :  20190513, Time     :  133940.000
------------------------------------------------------------
  Evaluating new KS density using the density matrix
  Evaluating density matrix
  Time summed over all CPUs for getting density from density matrix: real work        1.288 s, elapsed        1.288 s
  Integration grid: deviation in total charge (<rho> - N_e) =  -5.684342E-14
  Pulay mixing of updated and previous charge densities.

  Evaluating partitioned Hartree potential by multipole expansion.
  | Analytical far-field extrapolation by fixed multipoles:
  | Hartree multipole sum: apparent total charge =   0.156517E-01
  Summing up the Hartree potential.
  Time summed over all CPUs for potential: real work        0.452 s, elapsed        0.452 s
  | RMS charge density error from multipole expansion :   0.162793E-01
  | Average real-space part of the electrostatic potential :      0.57210088 eV

  Integrating Hamiltonian matrix: batch-based integration.
  Time summed over all CPUs for integration: real work        0.784 s, elapsed        0.784 s

  Updating Kohn-Sham eigenvalues, eigenvectors, occupation numbers, and Fermi level.
  Solving generalized eigenproblem

  Obtaining occupation numbers and chemical potential using ELSI.
  | Chemical potential (Fermi level):    -5.94425416eV
  What follows are estimated values for band gap, HOMO, LUMO, etc.
  | They are estimated on a discrete k-point grid and not necessarily exact.
  | For converged numbers, create a DOS and/or band structure plot on a denser k-grid.

  Highest occupied state (VBM) at     -5.96753825 eV (relative to internal zero)
  | Occupation number:      1.48983026
  | K-point:       1 at    0.000000    0.000000    0.000000 (in units of recip. lattice)

  Lowest unoccupied state (CBM) at    -5.89405054 eV (relative to internal zero)
  | Occupation number:      0.15561563
  | K-point:      30 at    0.000000    0.625000    0.625000 (in units of recip. lattice)

  ESTIMATED overall HOMO-LUMO gap:      0.07348770 eV between HOMO at k-point 1 and LUMO at k-point 30
  | This appears to be an indirect band gap.
  | Smallest direct gap :      2.53814020 eV for k_point 1 at    0.000000    0.625000    0.625000 (in units of recip. lattice)
  However, this system has fractional occupation numbers. Since we use a finite k-point grid,
  this material is metallic within the approximate finite broadening function (occupation_type)
  applied to determine the occupation numbers.

  Total energy components:
  | Sum of eigenvalues            :        -327.01710460 Ha       -8898.58817143 eV
  | XC energy correction          :         -39.93397855 Ha       -1086.65884502 eV
  | XC potential correction       :          52.75869153 Ha        1435.63704091 eV
  | Free-atom electrostatic energy:        -262.71365604 Ha       -7148.80230797 eV
  | Hartree energy correction     :          -1.81637315 Ha         -49.42602821 eV
  | Entropy correction            :          -0.00000623 Ha          -0.00016940 eV
  | ---------------------------
  | Total energy                  :        -578.72242082 Ha      -15747.83831171 eV
  | Total energy, T -> 0          :        -578.72242705 Ha      -15747.83848111 eV  <-- do not rely on this value for anything but (periodic) metals
  | Electronic free energy        :        -578.72243327 Ha      -15747.83865050 eV

  Derived energy quantities:
  | Kinetic energy                :         581.37748487 Ha       15820.08628037 eV
  | Electrostatic energy          :       -1120.16592713 Ha      -30481.26574706 eV
  | Energy correction for multipole
  | error in Hartree potential    :           0.02330734 Ha           0.63422508 eV
  | Sum of eigenvalues per atom                           :       -4449.29408571 eV
  | Total energy (T->0) per atom                          :       -7873.91924055 eV  <-- do not rely on this value for anything but (periodic) metals
  | Electronic free energy per atom                       :       -7873.91932525 eV

  Self-consistency convergence accuracy:
  | Change of charge density      :  0.1833E-01
  | Change of sum of eigenvalues  :  0.1613E+02 eV
  | Change of total energy        : -0.4568E-01 eV

  End self-consistency iteration #     4       :  max(cpu_time)    wall_clock(cpu1)
  | Time for this iteration                    :        2.755 s           2.759 s
  | Charge density update                      :        1.307 s           1.310 s
  | Density mixing & preconditioning           :        0.048 s           0.048 s
  | Hartree multipole update                   :        0.001 s           0.001 s
  | Hartree multipole summation                :        0.455 s           0.455 s
  | Integration                                :        0.784 s           0.784 s
  | Solution of K.-S. eqns.                    :        0.160 s           0.161 s
  | Total energy evaluation                    :        0.000 s           0.000 s

  Partial memory accounting:
  | Current value for overall tracked memory usage on task 0  :           3.880 MB
  | Peak value for overall tracked memory usage on task 0     :           7.609 MB after allocating wave
  | Largest tracked array allocation on task 0 so far         :           2.995 MB  when allocating +KS_eigenvector_complex
  Note:  These values currently only include a subset of arrays which are explicitly tracked.
  The "true" memory usage will be greater.
------------------------------------------------------------

------------------------------------------------------------
          Begin self-consistency iteration #    5

  Date     :  20190513, Time     :  133942.759
------------------------------------------------------------
  Evaluating new KS density using the density matrix
  Evaluating density matrix
  Time summed over all CPUs for getting density from density matrix: real work        1.309 s, elapsed        1.309 s
  Integration grid: deviation in total charge (<rho> - N_e) =   4.618528E-14
  Pulay mixing of updated and previous charge densities.

  Evaluating partitioned Hartree potential by multipole expansion.
  | Analytical far-field extrapolation by fixed multipoles:
  | Hartree multipole sum: apparent total charge =   0.130679E-01
  Summing up the Hartree potential.
  Time summed over all CPUs for potential: real work        0.451 s, elapsed        0.451 s
  | RMS charge density error from multipole expansion :   0.160695E-01
  | Average real-space part of the electrostatic potential :      0.54488684 eV

  Integrating Hamiltonian matrix: batch-based integration.
  Time summed over all CPUs for integration: real work        0.777 s, elapsed        0.777 s

  Updating Kohn-Sham eigenvalues, eigenvectors, occupation numbers, and Fermi level.
  Solving generalized eigenproblem

  Obtaining occupation numbers and chemical potential using ELSI.
  | Chemical potential (Fermi level):    -5.96671137eV
  What follows are estimated values for band gap, HOMO, LUMO, etc.
  | They are estimated on a discrete k-point grid and not necessarily exact.
  | For converged numbers, create a DOS and/or band structure plot on a denser k-grid.

  Highest occupied state (VBM) at     -6.00536360 eV (relative to internal zero)
  | Occupation number:      1.72571598
  | K-point:       1 at    0.000000    0.000000    0.000000 (in units of recip. lattice)

  Lowest unoccupied state (CBM) at    -5.90686167 eV (relative to internal zero)
  | Occupation number:      0.09049253
  | K-point:      30 at    0.000000    0.625000    0.625000 (in units of recip. lattice)

  ESTIMATED overall HOMO-LUMO gap:      0.09850193 eV between HOMO at k-point 1 and LUMO at k-point 30
  | This appears to be an indirect band gap.
  | Smallest direct gap :      2.55454038 eV for k_point 1 at    0.000000    0.625000    0.625000 (in units of recip. lattice)
  However, this system has fractional occupation numbers. Since we use a finite k-point grid,
  this material is metallic within the approximate finite broadening function (occupation_type)
  applied to determine the occupation numbers.

  Total energy components:
  | Sum of eigenvalues            :        -327.24127559 Ha       -8904.68817427 eV
  | XC energy correction          :         -39.91034627 Ha       -1086.01577779 eV
  | XC potential correction       :          52.72734231 Ha        1434.78398524 eV
  | Free-atom electrostatic energy:        -262.71365604 Ha       -7148.80230797 eV
  | Hartree energy correction     :          -1.58367920 Ha         -43.09410368 eV
  | Entropy correction            :          -0.00000396 Ha          -0.00010775 eV
  | ---------------------------
  | Total energy                  :        -578.72161479 Ha      -15747.81637847 eV
  | Total energy, T -> 0          :        -578.72161875 Ha      -15747.81648623 eV  <-- do not rely on this value for anything but (periodic) metals
  | Electronic free energy        :        -578.72162271 Ha      -15747.81659398 eV

  Derived energy quantities:
  | Kinetic energy                :         581.04100315 Ha       15810.93014686 eV
  | Electrostatic energy          :       -1119.85227167 Ha      -30472.73074754 eV
  | Energy correction for multipole
  | error in Hartree potential    :           0.02263663 Ha           0.61597393 eV
  | Sum of eigenvalues per atom                           :       -4452.34408713 eV
  | Total energy (T->0) per atom                          :       -7873.90824311 eV  <-- do not rely on this value for anything but (periodic) metals
  | Electronic free energy per atom                       :       -7873.90829699 eV

  Self-consistency convergence accuracy:
  | Change of charge density      :  0.6030E-01
  | Change of sum of eigenvalues  : -0.6100E+01 eV
  | Change of total energy        :  0.2193E-01 eV

  End self-consistency iteration #     5       :  max(cpu_time)    wall_clock(cpu1)
  | Time for this iteration                    :        2.777 s           2.777 s
  | Charge density update                      :        1.331 s           1.331 s
  | Density mixing & preconditioning           :        0.048 s           0.048 s
  | Hartree multipole update                   :        0.001 s           0.001 s
  | Hartree multipole summation                :        0.454 s           0.455 s
  | Integration                                :        0.778 s           0.777 s
  | Solution of K.-S. eqns.                    :        0.164 s           0.164 s
  | Total energy evaluation                    :        0.000 s           0.001 s

  Partial memory accounting:
  | Current value for overall tracked memory usage on task 0  :           3.880 MB
  | Peak value for overall tracked memory usage on task 0     :           7.609 MB after allocating wave
  | Largest tracked array allocation on task 0 so far         :           2.995 MB  when allocating +KS_eigenvector_complex
  Note:  These values currently only include a subset of arrays which are explicitly tracked.
  The "true" memory usage will be greater.
------------------------------------------------------------

------------------------------------------------------------
          Begin self-consistency iteration #    6

  Date     :  20190513, Time     :  133945.536
------------------------------------------------------------
  Evaluating new KS density using the density matrix
  Evaluating density matrix
  Time summed over all CPUs for getting density from density matrix: real work        1.308 s, elapsed        1.308 s
  Integration grid: deviation in total charge (<rho> - N_e) =   3.552714E-14
  Pulay mixing of updated and previous charge densities.

  Evaluating partitioned Hartree potential by multipole expansion.
  | Analytical far-field extrapolation by fixed multipoles:
  | Hartree multipole sum: apparent total charge =   0.890307E-02
  Summing up the Hartree potential.
  Time summed over all CPUs for potential: real work        0.449 s, elapsed        0.449 s
  | RMS charge density error from multipole expansion :   0.154074E-01
  | Average real-space part of the electrostatic potential :      0.48148704 eV

  Integrating Hamiltonian matrix: batch-based integration.
  Time summed over all CPUs for integration: real work        0.793 s, elapsed        0.793 s

  Updating Kohn-Sham eigenvalues, eigenvectors, occupation numbers, and Fermi level.
  Solving generalized eigenproblem

  Obtaining occupation numbers and chemical potential using ELSI.
  | Chemical potential (Fermi level):    -6.02404712eV
  What follows are estimated values for band gap, HOMO, LUMO, etc.
  | They are estimated on a discrete k-point grid and not necessarily exact.
  | For converged numbers, create a DOS and/or band structure plot on a denser k-grid.

  Highest occupied state (VBM) at     -6.10053476 eV (relative to internal zero)
  | Occupation number:      1.96948936
  | K-point:       1 at    0.000000    0.000000    0.000000 (in units of recip. lattice)

  Lowest unoccupied state (CBM) at    -5.93545942 eV (relative to internal zero)
  | Occupation number:      0.01222305
  | K-point:      30 at    0.000000    0.625000    0.625000 (in units of recip. lattice)

  ESTIMATED overall HOMO-LUMO gap:      0.16507534 eV between HOMO at k-point 1 and LUMO at k-point 30
  | This appears to be an indirect band gap.
  | Smallest direct gap :      2.59879539 eV for k_point 1 at    0.000000    0.625000    0.625000 (in units of recip. lattice)
  The gap value is rather small. This may be a metal or a small-gap semiconductor.
  Since we use a finite k-point grid, a DOS and/or band structure plot is required
  for an unambiguous assignment.

  Total energy components:
  | Sum of eigenvalues            :        -327.61505213 Ha       -8914.85915148 eV
  | XC energy correction          :         -39.87469394 Ha       -1085.04562861 eV
  | XC potential correction       :          52.68008917 Ha        1433.49816180 eV
  | Free-atom electrostatic energy:        -262.71365604 Ha       -7148.80230797 eV
  | Hartree energy correction     :          -1.19724687 Ha         -32.57874490 eV
  | Entropy correction            :          -0.00000063 Ha          -0.00001716 eV
  | ---------------------------
  | Total energy                  :        -578.72055981 Ha      -15747.78767116 eV
  | Total energy, T -> 0          :        -578.72056044 Ha      -15747.78768832 eV  <-- do not rely on this value for anything but (periodic) metals
  | Electronic free energy        :        -578.72056108 Ha      -15747.78770548 eV

  Derived energy quantities:
  | Kinetic energy                :         580.57795358 Ha       15798.32992719 eV
  | Electrostatic energy          :       -1119.42381946 Ha      -30461.07196974 eV
  | Energy correction for multipole
  | error in Hartree potential    :           0.02129430 Ha           0.57944743 eV
  | Sum of eigenvalues per atom                           :       -4457.42957574 eV
  | Total energy (T->0) per atom                          :       -7873.89384416 eV  <-- do not rely on this value for anything but (periodic) metals
  | Electronic free energy per atom                       :       -7873.89385274 eV

  Self-consistency convergence accuracy:
  | Change of charge density      :  0.4398E-01
  | Change of sum of eigenvalues  : -0.1017E+02 eV
  | Change of total energy        :  0.2871E-01 eV

  End self-consistency iteration #     6       :  max(cpu_time)    wall_clock(cpu1)
  | Time for this iteration                    :        2.816 s           2.815 s
  | Charge density update                      :        1.331 s           1.331 s
  | Density mixing & preconditioning           :        0.047 s           0.046 s
  | Hartree multipole update                   :        0.001 s           0.001 s
  | Hartree multipole summation                :        0.452 s           0.452 s
  | Integration                                :        0.793 s           0.793 s
  | Solution of K.-S. eqns.                    :        0.192 s           0.192 s
  | Total energy evaluation                    :        0.000 s           0.000 s

  Partial memory accounting:
  | Current value for overall tracked memory usage on task 0  :           3.881 MB
  | Peak value for overall tracked memory usage on task 0     :           7.609 MB after allocating wave
  | Largest tracked array allocation on task 0 so far         :           2.995 MB  when allocating +KS_eigenvector_complex
  Note:  These values currently only include a subset of arrays which are explicitly tracked.
  The "true" memory usage will be greater.
------------------------------------------------------------

------------------------------------------------------------
          Begin self-consistency iteration #    7

  Date     :  20190513, Time     :  133948.351
------------------------------------------------------------
  Evaluating new KS density using the density matrix
  Evaluating density matrix
  Time summed over all CPUs for getting density from density matrix: real work        1.479 s, elapsed        1.479 s
  Integration grid: deviation in total charge (<rho> - N_e) =  -2.131628E-14
  Pulay mixing of updated and previous charge densities.

  Evaluating partitioned Hartree potential by multipole expansion.
  | Analytical far-field extrapolation by fixed multipoles:
  | Hartree multipole sum: apparent total charge =   0.807083E-02
  Summing up the Hartree potential.
  Time summed over all CPUs for potential: real work        0.449 s, elapsed        0.449 s
  | RMS charge density error from multipole expansion :   0.151504E-01
  | Average real-space part of the electrostatic potential :      0.46005759 eV

  Integrating Hamiltonian matrix: batch-based integration.
  Time summed over all CPUs for integration: real work        0.780 s, elapsed        0.780 s

  Updating Kohn-Sham eigenvalues, eigenvectors, occupation numbers, and Fermi level.
  Solving generalized eigenproblem

  Obtaining occupation numbers and chemical potential using ELSI.
  | Chemical potential (Fermi level):    -6.04160479eV
  What follows are estimated values for band gap, HOMO, LUMO, etc.
  | They are estimated on a discrete k-point grid and not necessarily exact.
  | For converged numbers, create a DOS and/or band structure plot on a denser k-grid.

  Highest occupied state (VBM) at     -6.12859648 eV (relative to internal zero)
  | Occupation number:      1.98612551
  | K-point:       1 at    0.000000    0.000000    0.000000 (in units of recip. lattice)

  Lowest unoccupied state (CBM) at    -5.94413879 eV (relative to internal zero)
  | Occupation number:      0.00583781
  | K-point:      30 at    0.000000    0.625000    0.625000 (in units of recip. lattice)

  ESTIMATED overall HOMO-LUMO gap:      0.18445770 eV between HOMO at k-point 1 and LUMO at k-point 30
  | This appears to be an indirect band gap.
  | Smallest direct gap :      2.61180153 eV for k_point 1 at    0.000000    0.625000    0.625000 (in units of recip. lattice)
  The gap value is rather small. This may be a metal or a small-gap semiconductor.
  Since we use a finite k-point grid, a DOS and/or band structure plot is required
  for an unambiguous assignment.

  Total energy components:
  | Sum of eigenvalues            :        -327.73095261 Ha       -8918.01296414 eV
  | XC energy correction          :         -39.86350200 Ha       -1084.74108030 eV
  | XC potential correction       :          52.66525970 Ha        1433.09463142 eV
  | Free-atom electrostatic energy:        -262.71365604 Ha       -7148.80230797 eV
  | Hartree energy correction     :          -1.07752679 Ha         -29.32099581 eV
  | Entropy correction            :          -0.00000031 Ha          -0.00000851 eV
  | ---------------------------
  | Total energy                  :        -578.72037774 Ha      -15747.78271680 eV
  | Total energy, T -> 0          :        -578.72037806 Ha      -15747.78272531 eV  <-- do not rely on this value for anything but (periodic) metals
  | Electronic free energy        :        -578.72037837 Ha      -15747.78273382 eV

  Derived energy quantities:
  | Kinetic energy                :         580.44475242 Ha       15794.70533920 eV
  | Electrostatic energy          :       -1119.30162817 Ha      -30457.74697570 eV
  | Energy correction for multipole
  | error in Hartree potential    :           0.02080438 Ha           0.56611591 eV
  | Sum of eigenvalues per atom                           :       -4459.00648207 eV
  | Total energy (T->0) per atom                          :       -7873.89136266 eV  <-- do not rely on this value for anything but (periodic) metals
  | Electronic free energy per atom                       :       -7873.89136691 eV

  Self-consistency convergence accuracy:
  | Change of charge density      :  0.1920E-01
  | Change of sum of eigenvalues  : -0.3154E+01 eV
  | Change of total energy        :  0.4954E-02 eV

  End self-consistency iteration #     7       :  max(cpu_time)    wall_clock(cpu1)
  | Time for this iteration                    :        2.951 s           2.951 s
  | Charge density update                      :        1.504 s           1.505 s
  | Density mixing & preconditioning           :        0.048 s           0.048 s
  | Hartree multipole update                   :        0.001 s           0.001 s
  | Hartree multipole summation                :        0.452 s           0.452 s
  | Integration                                :        0.780 s           0.780 s
  | Solution of K.-S. eqns.                    :        0.165 s           0.165 s
  | Total energy evaluation                    :        0.000 s           0.000 s

  Partial memory accounting:
  | Current value for overall tracked memory usage on task 0  :           3.881 MB
  | Peak value for overall tracked memory usage on task 0     :           7.609 MB after allocating wave
  | Largest tracked array allocation on task 0 so far         :           2.995 MB  when allocating +KS_eigenvector_complex
  Note:  These values currently only include a subset of arrays which are explicitly tracked.
  The "true" memory usage will be greater.
------------------------------------------------------------

------------------------------------------------------------
          Begin self-consistency iteration #    8

  Date     :  20190513, Time     :  133951.302
------------------------------------------------------------
  Evaluating new KS density using the density matrix
  Evaluating density matrix
  Time summed over all CPUs for getting density from density matrix: real work        1.294 s, elapsed        1.294 s
  Integration grid: deviation in total charge (<rho> - N_e) =  -2.486900E-14
  Pulay mixing of updated and previous charge densities.

  Evaluating partitioned Hartree potential by multipole expansion.
  | Analytical far-field extrapolation by fixed multipoles:
  | Hartree multipole sum: apparent total charge =   0.661532E-02
  Summing up the Hartree potential.
  Time summed over all CPUs for potential: real work        0.583 s, elapsed        0.583 s
  | RMS charge density error from multipole expansion :   0.149746E-01
  | Average real-space part of the electrostatic potential :      0.43728703 eV

  Integrating Hamiltonian matrix: batch-based integration.
  Time summed over all CPUs for integration: real work        0.846 s, elapsed        0.846 s

  Updating Kohn-Sham eigenvalues, eigenvectors, occupation numbers, and Fermi level.
  Solving generalized eigenproblem

  Obtaining occupation numbers and chemical potential using ELSI.
  | Chemical potential (Fermi level):    -6.06296546eV
  What follows are estimated values for band gap, HOMO, LUMO, etc.
  | They are estimated on a discrete k-point grid and not necessarily exact.
  | For converged numbers, create a DOS and/or band structure plot on a denser k-grid.

  Highest occupied state (VBM) at     -6.16312888 eV (relative to internal zero)
  | Occupation number:      1.99538937
  | K-point:       1 at    0.000000    0.000000    0.000000 (in units of recip. lattice)

  Lowest unoccupied state (CBM) at    -5.95393999 eV (relative to internal zero)
  | Occupation number:      0.00204440
  | K-point:      30 at    0.000000    0.625000    0.625000 (in units of recip. lattice)

  ESTIMATED overall HOMO-LUMO gap:      0.20918889 eV between HOMO at k-point 1 and LUMO at k-point 30
  | This appears to be an indirect band gap.
  | Smallest direct gap :      2.62780783 eV for k_point 1 at    0.000000    0.625000    0.625000 (in units of recip. lattice)
  The gap value is above 0.2 eV. Unless you are using a very sparse k-point grid,
  this system is most likely an insulator or a semiconductor.

  Total energy components:
  | Sum of eigenvalues            :        -327.86165811 Ha       -8921.56964156 eV
  | XC energy correction          :         -39.85161660 Ha       -1084.41766226 eV
  | XC potential correction       :          52.64950945 Ha        1432.66604545 eV
  | Free-atom electrostatic energy:        -262.71365604 Ha       -7148.80230797 eV
  | Hartree energy correction     :          -0.94281342 Ha         -25.65525850 eV
  | Entropy correction            :          -0.00000011 Ha          -0.00000313 eV
  | ---------------------------
  | Total energy                  :        -578.72023472 Ha      -15747.77882484 eV
  | Total energy, T -> 0          :        -578.72023483 Ha      -15747.77882797 eV  <-- do not rely on this value for anything but (periodic) metals
  | Electronic free energy        :        -578.72023495 Ha      -15747.77883110 eV

  Derived energy quantities:
  | Kinetic energy                :         580.29250845 Ha       15790.56256980 eV
  | Electrostatic energy          :       -1119.16112656 Ha      -30453.92373238 eV
  | Energy correction for multipole
  | error in Hartree potential    :           0.02043042 Ha           0.55593989 eV
  | Sum of eigenvalues per atom                           :       -4460.78482078 eV
  | Total energy (T->0) per atom                          :       -7873.88941399 eV  <-- do not rely on this value for anything but (periodic) metals
  | Electronic free energy per atom                       :       -7873.88941555 eV

  Self-consistency convergence accuracy:
  | Change of charge density      :  0.1194E-01
  | Change of sum of eigenvalues  : -0.3557E+01 eV
  | Change of total energy        :  0.3892E-02 eV

  End self-consistency iteration #     8       :  max(cpu_time)    wall_clock(cpu1)
  | Time for this iteration                    :        2.971 s           2.972 s
  | Charge density update                      :        1.317 s           1.317 s
  | Density mixing & preconditioning           :        0.058 s           0.058 s
  | Hartree multipole update                   :        0.002 s           0.002 s
  | Hartree multipole summation                :        0.586 s           0.586 s
  | Integration                                :        0.846 s           0.846 s
  | Solution of K.-S. eqns.                    :        0.161 s           0.161 s
  | Total energy evaluation                    :        0.000 s           0.001 s

  Partial memory accounting:
  | Current value for overall tracked memory usage on task 0  :           3.881 MB
  | Peak value for overall tracked memory usage on task 0     :           7.609 MB after allocating wave
  | Largest tracked array allocation on task 0 so far         :           2.995 MB  when allocating +KS_eigenvector_complex
  Note:  These values currently only include a subset of arrays which are explicitly tracked.
  The "true" memory usage will be greater.
------------------------------------------------------------

------------------------------------------------------------
          Begin self-consistency iteration #    9

  Date     :  20190513, Time     :  133954.274
------------------------------------------------------------
  Evaluating new KS density using the density matrix
  Evaluating density matrix
  Time summed over all CPUs for getting density from density matrix: real work        1.352 s, elapsed        1.352 s
  Integration grid: deviation in total charge (<rho> - N_e) =  -1.278977E-13
  Pulay mixing of updated and previous charge densities.

  Evaluating partitioned Hartree potential by multipole expansion.
  | Analytical far-field extrapolation by fixed multipoles:
  | Hartree multipole sum: apparent total charge =   0.667664E-02
  Summing up the Hartree potential.
  Time summed over all CPUs for potential: real work        0.457 s, elapsed        0.457 s
  | RMS charge density error from multipole expansion :   0.149446E-01
  | Average real-space part of the electrostatic potential :      0.43538327 eV

  Integrating Hamiltonian matrix: batch-based integration.
  Time summed over all CPUs for integration: real work        0.785 s, elapsed        0.785 s

  Updating Kohn-Sham eigenvalues, eigenvectors, occupation numbers, and Fermi level.
  Solving generalized eigenproblem

  Obtaining occupation numbers and chemical potential using ELSI.
  | Chemical potential (Fermi level):    -6.06440002eV
  What follows are estimated values for band gap, HOMO, LUMO, etc.
  | They are estimated on a discrete k-point grid and not necessarily exact.
  | For converged numbers, create a DOS and/or band structure plot on a denser k-grid.

  Highest occupied state (VBM) at     -6.16546012 eV (relative to internal zero)
  | Occupation number:      1.99574232
  | K-point:       1 at    0.000000    0.000000    0.000000 (in units of recip. lattice)

  Lowest unoccupied state (CBM) at    -5.95457031 eV (relative to internal zero)
  | Occupation number:      0.00189346
  | K-point:      30 at    0.000000    0.625000    0.625000 (in units of recip. lattice)

  ESTIMATED overall HOMO-LUMO gap:      0.21088981 eV between HOMO at k-point 1 and LUMO at k-point 30
  | This appears to be an indirect band gap.
  | Smallest direct gap :      2.62899568 eV for k_point 1 at    0.000000    0.625000    0.625000 (in units of recip. lattice)
  The gap value is above 0.2 eV. Unless you are using a very sparse k-point grid,
  this system is most likely an insulator or a semiconductor.

  Total energy components:
  | Sum of eigenvalues            :        -327.86695405 Ha       -8921.71375160 eV
  | XC energy correction          :         -39.85115078 Ha       -1084.40498673 eV
  | XC potential correction       :          52.64889433 Ha        1432.64930720 eV
  | Free-atom electrostatic energy:        -262.71365604 Ha       -7148.80230797 eV
  | Hartree energy correction     :          -0.93736412 Ha         -25.50697548 eV
[...]
  | Total energy evaluation                    :        0.000 s           0.000 s

  Partial memory accounting:
  | Current value for overall tracked memory usage on task 0  :           3.882 MB
  | Peak value for overall tracked memory usage on task 0     :           7.609 MB after allocating wave
  | Largest tracked array allocation on task 0 so far         :           2.995 MB  when allocating +KS_eigenvector_complex
  Note:  These values currently only include a subset of arrays which are explicitly tracked.
  The "true" memory usage will be greater.
------------------------------------------------------------

------------------------------------------------------------
          Begin self-consistency iteration #   13

  Date     :  20190513, Time     :  134005.355
------------------------------------------------------------
  Evaluating new KS density using the density matrix
  Evaluating density matrix
  Time summed over all CPUs for getting density from density matrix: real work        1.284 s, elapsed        1.284 s
  Integration grid: deviation in total charge (<rho> - N_e) =  -1.776357E-14
  Pulay mixing of updated and previous charge densities.

  Evaluating partitioned Hartree potential by multipole expansion.
  | Analytical far-field extrapolation by fixed multipoles:
  | Hartree multipole sum: apparent total charge =   0.692001E-02
  Summing up the Hartree potential.
  Time summed over all CPUs for potential: real work        0.444 s, elapsed        0.444 s
  | RMS charge density error from multipole expansion :   0.148707E-01
  | Average real-space part of the electrostatic potential :      0.42480407 eV

  Integrating Hamiltonian matrix: batch-based integration.
  Time summed over all CPUs for integration: real work        0.763 s, elapsed        0.763 s

  Updating Kohn-Sham eigenvalues, eigenvectors, occupation numbers, and Fermi level.
  Solving generalized eigenproblem

  Obtaining occupation numbers and chemical potential using ELSI.
  | Chemical potential (Fermi level):    -6.07115827eV
  What follows are estimated values for band gap, HOMO, LUMO, etc.
  | They are estimated on a discrete k-point grid and not necessarily exact.
  | For converged numbers, create a DOS and/or band structure plot on a denser k-grid.

  Highest occupied state (VBM) at     -6.17630198 eV (relative to internal zero)
  | Occupation number:      1.99705972
  | K-point:       1 at    0.000000    0.000000    0.000000 (in units of recip. lattice)

  Lowest unoccupied state (CBM) at    -5.95765997 eV (relative to internal zero)
  | Occupation number:      0.00132635
  | K-point:      30 at    0.000000    0.625000    0.625000 (in units of recip. lattice)

  ESTIMATED overall HOMO-LUMO gap:      0.21864201 eV between HOMO at k-point 1 and LUMO at k-point 30
  | This appears to be an indirect band gap.
  | Smallest direct gap :      2.63405856 eV for k_point 1 at    0.000000    0.625000    0.625000 (in units of recip. lattice)
  The gap value is above 0.2 eV. Unless you are using a very sparse k-point grid,
  this system is most likely an insulator or a semiconductor.

  Total energy components:
  | Sum of eigenvalues            :        -327.91940493 Ha       -8923.14101247 eV
  | XC energy correction          :         -39.84563905 Ha       -1084.25500480 eV
  | XC potential correction       :          52.64159271 Ha        1432.45061998 eV
  | Free-atom electrostatic energy:        -262.71365604 Ha       -7148.80230797 eV
  | Hartree energy correction     :          -0.88310020 Ha         -24.03037921 eV
  | Entropy correction            :          -0.00000008 Ha          -0.00000207 eV
  | ---------------------------
  | Total energy                  :        -578.72020751 Ha      -15747.77808447 eV
  | Total energy, T -> 0          :        -578.72020759 Ha      -15747.77808653 eV  <-- do not rely on this value for anything but (periodic) metals
  | Electronic free energy        :        -578.72020766 Ha      -15747.77808860 eV

  Derived energy quantities:
  | Kinetic energy                :         580.21986824 Ha       15788.58592935 eV
  | Electrostatic energy          :       -1119.09443671 Ha      -30452.10900902 eV
  | Energy correction for multipole
  | error in Hartree potential    :           0.02021759 Ha           0.55014868 eV
  | Sum of eigenvalues per atom                           :       -4461.57050623 eV
  | Total energy (T->0) per atom                          :       -7873.88904327 eV  <-- do not rely on this value for anything but (periodic) metals
  | Electronic free energy per atom                       :       -7873.88904430 eV

  Self-consistency convergence accuracy:
  | Change of charge density      :  0.1130E-05
  | Change of sum of eigenvalues  :  0.4901E-05 eV
  | Change of total energy        : -0.1254E-07 eV

  End self-consistency iteration #    13       :  max(cpu_time)    wall_clock(cpu1)
  | Time for this iteration                    :        2.728 s           2.728 s
  | Charge density update                      :        1.307 s           1.306 s
  | Density mixing & preconditioning           :        0.046 s           0.047 s
  | Hartree multipole update                   :        0.001 s           0.000 s
  | Hartree multipole summation                :        0.447 s           0.447 s
  | Integration                                :        0.763 s           0.763 s
  | Solution of K.-S. eqns.                    :        0.163 s           0.163 s
  | Total energy evaluation                    :        0.000 s           0.000 s

  Partial memory accounting:
  | Current value for overall tracked memory usage on task 0  :           3.882 MB
  | Peak value for overall tracked memory usage on task 0     :           7.609 MB after allocating wave
  | Largest tracked array allocation on task 0 so far         :           2.995 MB  when allocating +KS_eigenvector_complex
  Note:  These values currently only include a subset of arrays which are explicitly tracked.
  The "true" memory usage will be greater.
------------------------------------------------------------

------------------------------------------------------------
          Begin self-consistency iteration #   14

  Date     :  20190513, Time     :  134008.083
------------------------------------------------------------
  Evaluating new KS density using the density matrix
  Evaluating density matrix
  Time summed over all CPUs for getting density from density matrix: real work        1.283 s, elapsed        1.283 s
  Integration grid: deviation in total charge (<rho> - N_e) =  -6.394885E-14
  Pulay mixing of updated and previous charge densities.

  Evaluating partitioned Hartree potential by multipole expansion.
  | Analytical far-field extrapolation by fixed multipoles:
  | Hartree multipole sum: apparent total charge =   0.692036E-02
  Summing up the Hartree potential.
  Time summed over all CPUs for potential: real work        0.446 s, elapsed        0.446 s
  | RMS charge density error from multipole expansion :   0.148709E-01
  | Average real-space part of the electrostatic potential :      0.42480958 eV

  Integrating Hamiltonian matrix: batch-based integration.
  Time summed over all CPUs for integration: real work        0.763 s, elapsed        0.763 s

  Updating Kohn-Sham eigenvalues, eigenvectors, occupation numbers, and Fermi level.
  Solving generalized eigenproblem

  Obtaining occupation numbers and chemical potential using ELSI.
  | Chemical potential (Fermi level):    -6.07115352eV
  What follows are estimated values for band gap, HOMO, LUMO, etc.
  | They are estimated on a discrete k-point grid and not necessarily exact.
  | For converged numbers, create a DOS and/or band structure plot on a denser k-grid.

  Highest occupied state (VBM) at     -6.17629476 eV (relative to internal zero)
  | Occupation number:      1.99705905
  | K-point:       1 at    0.000000    0.000000    0.000000 (in units of recip. lattice)

  Lowest unoccupied state (CBM) at    -5.95765745 eV (relative to internal zero)
  | Occupation number:      0.00132664
  | K-point:      30 at    0.000000    0.625000    0.625000 (in units of recip. lattice)

  ESTIMATED overall HOMO-LUMO gap:      0.21863731 eV between HOMO at k-point 1 and LUMO at k-point 30
  | This appears to be an indirect band gap.
  | Smallest direct gap :      2.63405484 eV for k_point 1 at    0.000000    0.625000    0.625000 (in units of recip. lattice)
  The gap value is above 0.2 eV. Unless you are using a very sparse k-point grid,
  this system is most likely an insulator or a semiconductor.

  Total energy components:
  | Sum of eigenvalues            :        -327.91939392 Ha       -8923.14071300 eV
  | XC energy correction          :         -39.84563964 Ha       -1084.25502086 eV
  | XC potential correction       :          52.64159349 Ha        1432.45064114 eV
  | Free-atom electrostatic energy:        -262.71365604 Ha       -7148.80230797 eV
  | Hartree energy correction     :          -0.88311140 Ha         -24.03068376 eV
  | Entropy correction            :          -0.00000008 Ha          -0.00000207 eV
  | ---------------------------
  | Total energy                  :        -578.72020751 Ha      -15747.77808446 eV
  | Total energy, T -> 0          :        -578.72020759 Ha      -15747.77808652 eV  <-- do not rely on this value for anything but (periodic) metals
  | Electronic free energy        :        -578.72020766 Ha      -15747.77808859 eV

  Derived energy quantities:
  | Kinetic energy                :         580.21986843 Ha       15788.58593436 eV
  | Electrostatic energy          :       -1119.09443630 Ha      -30452.10899795 eV
  | Energy correction for multipole
  | error in Hartree potential    :           0.02021785 Ha           0.55015567 eV
  | Sum of eigenvalues per atom                           :       -4461.57035650 eV
  | Total energy (T->0) per atom                          :       -7873.88904326 eV  <-- do not rely on this value for anything but (periodic) metals
  | Electronic free energy per atom                       :       -7873.88904430 eV

  Self-consistency convergence accuracy:
  | Change of charge density      :  0.9499E-06
  | Change of sum of eigenvalues  :  0.2995E-03 eV
  | Change of total energy        :  0.1002E-07 eV

  Preliminary charge convergence reached. Turning off preconditioner.

  Writing Kohn-Sham eigenvalues.
  K-point:       1 at    0.000000    0.000000    0.000000 (in units of recip. lattice)

  State    Occupation    Eigenvalue [Ha]    Eigenvalue [eV]
      1       2.00000         -65.480300        -1781.80962
      2       2.00000         -65.480300        -1781.80962
      3       2.00000          -5.098097         -138.72627
      4       2.00000          -5.097362         -138.70628
      5       2.00000          -3.510987          -95.53882
      6       2.00000          -3.510987          -95.53882
      7       2.00000          -3.510987          -95.53882
      8       2.00000          -3.509657          -95.50262
      9       2.00000          -3.509657          -95.50262
     10       2.00000          -3.509657          -95.50262
     11       2.00000          -0.718179          -19.54266
     12       1.99706          -0.226975           -6.17629
     13       1.99706          -0.226975           -6.17629
     14       1.99706          -0.226975           -6.17629
     15       0.00000          -0.130175           -3.54224
     16       0.00000          -0.130175           -3.54224
     17       0.00000          -0.130175           -3.54224
     18       0.00000          -0.014579           -0.39671
     19       0.00000           0.063273            1.72175
     20       0.00000           0.063273            1.72175

  What follows are estimated values for band gap, HOMO, LUMO, etc.
  | They are estimated on a discrete k-point grid and not necessarily exact.
  | For converged numbers, create a DOS and/or band structure plot on a denser k-grid.

  Highest occupied state (VBM) at     -6.17629476 eV (relative to internal zero)
  | Occupation number:      1.99705905
  | K-point:       1 at    0.000000    0.000000    0.000000 (in units of recip. lattice)

  Lowest unoccupied state (CBM) at    -5.95765745 eV (relative to internal zero)
  | Occupation number:      0.00132664
  | K-point:      30 at    0.000000    0.625000    0.625000 (in units of recip. lattice)

  ESTIMATED overall HOMO-LUMO gap:      0.21863731 eV between HOMO at k-point 1 and LUMO at k-point 30
  | This appears to be an indirect band gap.
  | Smallest direct gap :      2.63405484 eV for k_point 1 at    0.000000    0.625000    0.625000 (in units of recip. lattice)
  The gap value is above 0.2 eV. Unless you are using a very sparse k-point grid,
  this system is most likely an insulator or a semiconductor.

  Self-consistency cycle converged.

  End self-consistency iteration #    14       :  max(cpu_time)    wall_clock(cpu1)
  | Time for this iteration                    :        2.729 s           2.729 s
  | Charge density update                      :        1.305 s           1.305 s
  | Density mixing                             :        0.047 s           0.047 s
  | Hartree multipole update                   :        0.001 s           0.000 s
  | Hartree multipole summation                :        0.449 s           0.450 s
  | Integration                                :        0.764 s           0.763 s
  | Solution of K.-S. eqns.                    :        0.163 s           0.163 s
  | Total energy evaluation                    :        0.000 s           0.001 s

  Partial memory accounting:
  | Current value for overall tracked memory usage on task 0  :           3.882 MB
  | Peak value for overall tracked memory usage on task 0     :           7.609 MB after allocating wave
  | Largest tracked array allocation on task 0 so far         :           2.995 MB  when allocating +KS_eigenvector_complex
  Note:  These values currently only include a subset of arrays which are explicitly tracked.
  The "true" memory usage will be greater.
------------------------------------------------------------

  Energy and forces in a compact form:
  | Total energy uncorrected      :         -0.157477780844551E+05 eV
  | Total energy corrected        :         -0.157477780865242E+05 eV  <-- do not rely on this value for anything but (periodic) metals
  | Electronic free energy        :         -0.157477780885934E+05 eV

  ------------------------------------ 
  Start decomposition of the XC Energy 
  ------------------------------------ 
  X and C from original XC functional choice 
  Hartree-Fock Energy :          0.000000000 Ha              0.000000000 eV
  X Energy            :        -37.691137346 Ha          -1025.628030569 eV
  C Energy            :         -2.154502293 Ha            -58.626990291 eV
  Total XC Energy     :        -39.845639639 Ha          -1084.255020860 eV
  ------------------------------------ 
  LDA X and C from self-consistent density 
  X Energy LDA        :        -37.691137346 Ha          -1025.628030569 eV
  C Energy LDA        :         -2.154502293 Ha            -58.626990291 eV
  ------------------------------------ 
  End decomposition of the XC Energy 
  ------------------------------------ 

------------------------------------------------------------

------------------------------------------------------------------------------
  Final output of selected total energy values:

  The following output summarizes some interesting total energy values
  at the end of a run (AFTER all relaxation, molecular dynamics, etc.).

  | Total energy of the DFT / Hartree-Fock s.c.f. calculation      :         -15747.778084455 eV
  | Final zero-broadening corrected energy (caution - metals only) :         -15747.778086524 eV
  | For reference only, the value of 1 Hartree used in FHI-aims is :             27.211384500 eV

  Before relying on these values, please be sure to understand exactly which
  total energy value is referred to by a given number. Different objects may
  all carry the same name 'total energy'. Definitions:

  Total energy of the DFT / Hartree-Fock s.c.f. calculation:
  | Note that this energy does not include ANY quantities calculated after the
  | s.c.f. cycle, in particular not ANY RPA, MP2, etc. many-body perturbation terms.

  Final zero-broadening corrected energy:
  | For metallic systems only, a broadening of the occupation numbers at the Fermi
  | level can be extrapolated back to zero broadening by an electron-gas inspired
  | formula. For all systems that are not real metals, this value can be
  | meaningless and should be avoided.

------------------------------------------------------------------------------
  Methods described in the following list of references were used in this FHI-aims run.
  If you publish the results, please make sure to cite these reference if they apply.
  FHI-aims is an academic code, and for our developers (often, Ph.D. students
  and postdocs), scientific credit in the community is essential.
  Thank you for helping us!

  For any use of FHI-aims, please cite:

    Volker Blum, Ralf Gehrke, Felix Hanke, Paula Havu, Ville Havu,
    Xinguo Ren, Karsten Reuter, and Matthias Scheffler
    'Ab initio molecular simulations with numeric atom-centered orbitals'
    Computer Physics Communications 180, 2175-2196 (2009)
    http://dx.doi.org/10.1016/j.cpc.2009.06.022


  For the real-space grid partitioning and parallelization used in this calculation, please cite:

    Ville Havu, Volker Blum, Paula Havu, and Matthias Scheffler,
    'Efficient O(N) integration for all-electron electronic structure calculation'
    'using numerically tabulated basis functions'
    Journal of Computational Physics 228, 8367-8379 (2009).
    http://dx.doi.org/10.1016/j.jcp.2009.08.008

  Of course, there are many other important community references, e.g., those cited in the
  above references. Our list is limited to references that describe implementations in the
  FHI-aims code. The reason is purely practical (length of this list) - please credit others as well.

------------------------------------------------------------
          Leaving FHI-aims.
          Date     :  20190513, Time     :  134010.824

          Computational steps:
          | Number of self-consistency cycles          :           14
          | Number of SCF (re)initializations          :            1

          Detailed time accounting                     :  max(cpu_time)    wall_clock(cpu1)
          | Total time                                 :       41.167 s          41.210 s
          | Preparation time                           :        0.095 s           0.100 s
          | Boundary condition initalization           :        0.035 s           0.036 s
          | Grid partitioning                          :        0.032 s           0.034 s
          | Preloading free-atom quantities on grid    :        0.001 s           0.000 s
          | Free-atom superposition energy             :        0.036 s           0.036 s
          | Total time for integrations                :       12.330 s          12.329 s
          | Total time for solution of K.-S. equations :        2.610 s           2.617 s
          | Total time for density update              :       18.743 s          18.744 s
          | Total time for mixing & preconditioning    :        0.680 s           0.682 s
          | Total time for Hartree multipole update    :        0.012 s           0.011 s
          | Total time for Hartree multipole sum       :        6.375 s           6.374 s
          | Total time for total energy evaluation     :        0.002 s           0.004 s
          | Total time for scaled ZORA corrections     :        0.000 s           0.000 s

 This is a stub MPI_ALLREDUCE call.
 You should not be here. Check your
 setting on the use_mpi variable, or
 link against true MPI-libraries.
