------------------------------------------------------------
          Invoking FHI-aims ...
          Version 171221_1
          Compiled on 2019/05/06 at 14:26:40 on host ffph0xx.

          When using FHI-aims, please cite the following reference:

          Volker Blum, Ralf Gehrke, Felix Hanke, Paula Havu,
          Ville Havu, Xinguo Ren, Karsten Reuter, and Matthias Scheffler,
          'Ab Initio Molecular Simulations with Numeric Atom-Centered Orbitals',
          Computer Physics Communications 180, 2175-2196 (2009)

          For any questions about FHI-aims, please visit the aimsclub website
          with its forums and wiki. Contributions to both the forums and the
          wiki are warmly encouraged - they are for you, and everyone is welcome there.

------------------------------------------------------------



  Date     :  20190509, Time     :  114722.856
  Time zero on CPU 1             :   0.654000000000000E-03  s.
  Internal wall clock time zero  :           326634442.856  s.

  FHI-aims created a unique identifier for this run for later identification
  aims_uuid : 5A2F9B36-BA42-4A17-A208-51B7AAE47F7C


  Performing system and environment tests:
  *** Environment variable OMP_NUM_THREADS is not set
  *** For performance reasons you might want to set it to 1
  | Stacksize not measured: no C compiler

  Obtaining array dimensions for all initial allocations:
  
  -----------------------------------------------------------------------
  Parsing control.in (first pass over file, find array dimensions only).
  The contents of control.in will be repeated verbatim below
  unless switched off by setting 'verbatim_writeout .false.' .
  in the first line of control.in .
  -----------------------------------------------------------------------
  
  # Sample input file for the relaxation
  # of the H3O+ molecule
  #######################################
    xc  pw-lda
    charge 1.0
    spin none
  
  #######Iteration limit####################
    sc_iter_limit 100
  
  #######Relaxation######################
    ########################relax_geometry trm 1E-3
  
  #######Species#########################
  ################################################################################
  #
  #  FHI-aims code project
  #  VB, Fritz-Haber Institut, 2009
  #
  #  Suggested "light" defaults for H atom (to be pasted into control.in file)
  #  Be sure to double-check any results obtained with these settings for post-processing,
  #  e.g., with the "tight" defaults and larger basis sets.
  #
  ################################################################################
    species        H
  #     global species definitions
      nucleus             1
      mass                1.00794
  #
      l_hartree           4
  #
      cut_pot             3.5  1.5  1.0
      basis_dep_cutoff    1e-4
  #
      radial_base         24 5.0
      radial_multiplier   1
      angular_grids       specified
        division   0.2421   50
        division   0.3822  110
        division   0.4799  194
        division   0.5341  302
  #      division   0.5626  434
  #      division   0.5922  590
  #      division   0.6542  770
  #      division   0.6868 1202
  #      outer_grid  770
        outer_grid  302
  ################################################################################
  #
  #  Definition of "minimal" basis
  #
  ################################################################################
  #     valence basis states
      valence      1  s   1.
  #     ion occupancy
      ion_occ      1  s   0.5
  ################################################################################
  #
  #  Suggested additional basis functions. For production calculations,
  #  uncomment them one after another (the most important basis functions are
  #  listed first).
  #
  #  Basis constructed for dimers: 0.5 A, 0.7 A, 1.0 A, 1.5 A, 2.5 A
  #
  ################################################################################
  #  "First tier" - improvements: -1014.90 meV to -62.69 meV
       hydro 2 s 2.1
       hydro 2 p 3.5
  #  "Second tier" - improvements: -12.89 meV to -1.83 meV
  #     hydro 1 s 0.85
  #     hydro 2 p 3.7
  #     hydro 2 s 1.2
  #     hydro 3 d 7
  #  "Third tier" - improvements: -0.25 meV to -0.12 meV
  #     hydro 4 f 11.2
  #     hydro 3 p 4.8
  #     hydro 4 d 9
  #     hydro 3 s 3.2
  ################################################################################
  #
  #  FHI-aims code project
  #  VB, Fritz-Haber Institut, 2009
  #
  #  Suggested "light" defaults for O atom (to be pasted into control.in file)
  #  Be sure to double-check any results obtained with these settings for post-processing,
  #  e.g., with the "tight" defaults and larger basis sets.
  #
  ################################################################################
    species        O
  #     global species definitions
      nucleus             8
      mass                15.9994
  #
      l_hartree           4
  #
      cut_pot             3.5  1.5  1.0
      basis_dep_cutoff    1e-4
  #
      radial_base         36 5.0
      radial_multiplier   1
       angular_grids specified
        division   0.2659   50
        division   0.4451  110
        division   0.6052  194
        division   0.7543  302
  #      division   0.8014  434
  #      division   0.8507  590
  #      division   0.8762  770
  #      division   0.9023  974
  #      division   1.2339 1202
  #      outer_grid 974
        outer_grid 302
  ################################################################################
  #
  #  Definition of "minimal" basis
  #
  ################################################################################
  #     valence basis states
      valence      2  s   2.
      valence      2  p   4.
  #     ion occupancy
      ion_occ      2  s   1.
      ion_occ      2  p   3.
  ################################################################################
  #
  #  Suggested additional basis functions. For production calculations,
  #  uncomment them one after another (the most important basis functions are
  #  listed first).
  #
  #  Constructed for dimers: 1.0 A, 1.208 A, 1.5 A, 2.0 A, 3.0 A
  #
  ################################################################################
  #  "First tier" - improvements: -699.05 meV to -159.38 meV
       hydro 2 p 1.8
       hydro 3 d 7.6
       hydro 3 s 6.4
  #  "Second tier" - improvements: -49.91 meV to -5.39 meV
  #     hydro 4 f 11.6
  #     hydro 3 p 6.2
  #     hydro 3 d 5.6
  #     hydro 5 g 17.6
  #     hydro 1 s 0.75
  #  "Third tier" - improvements: -2.83 meV to -0.50 meV
  #     ionic 2 p auto
  #     hydro 4 f 10.8
  #     hydro 4 d 4.7
  #     hydro 2 s 6.8
  #  "Fourth tier" - improvements: -0.40 meV to -0.12 meV
  #     hydro 3 p 5
  #     hydro 3 s 3.3
  #     hydro 5 g 15.6
  #     hydro 4 f 17.6
  #     hydro 4 d 14
  # Further basis functions - -0.08 meV and below
  #     hydro 3 s 2.1
  #     hydro 4 d 11.6
  #     hydro 3 p 16
  #     hydro 2 s 17.2
  /afs/ictp.it/public/shared/smr2475/fhi-aims/species_defaults/light/01_H_default
  compute_forces .true.
  final_forces_cleaned .true.
  output dipole
  
  -----------------------------------------------------------------------
  Completed first pass over input file control.in .
  -----------------------------------------------------------------------
  
  
  -----------------------------------------------------------------------
  Parsing geometry.in (first pass over file, find array dimensions only).
  The contents of geometry.in will be repeated verbatim below
  unless switched off by setting 'verbatim_writeout .false.' .
  in the first line of geometry.in .
  -----------------------------------------------------------------------
  
  #
  # temporary structure-file for finite-difference calculation of forces
  # displacement   0.0020 of \# atom     3 direction     2
  #
  atom    0.00000000    0.00001836    0.19077151   O
  atom    0.82425584   -0.47587261    0.47423563   H
  atom   -0.82425584   -0.47587261    0.47423563   H
  atom   -0.00000000    0.95172688    0.47646636   H
  
  -----------------------------------------------------------------------
  Completed first pass over input file geometry.in .
  -----------------------------------------------------------------------
  

  Basic array size parameters:
  | Number of species                 :        2
  | Number of atoms                   :        4
  | Max. basis fn. angular momentum   :        2
  | Max. atomic/ionic basis occupied n:        2
  | Max. number of basis fn. types    :        2
  | Max. radial fns per species/type  :        3
  | Max. logarithmic grid size        :     1301
  | Max. radial integration grid size :       36
  | Max. angular integration grid size:      302
  | Max. angular grid division number :        8
  | Radial grid for Hartree potential :     1301
  | Number of spin channels           :        1

------------------------------------------------------------
          Reading file control.in.
------------------------------------------------------------
  XC: Using Perdew-Wang parametrisation of Ceperley-Alder LDA.
  Charged system requested: Charge =   0.100000E+01.
  Spin treatment: No spin polarisation.
  Maximum number of s.-c. iterations  :   100

  Reading configuration options for species H                   .
  | Found nuclear charge :   1.0000
  | Found atomic mass :    1.0079400000000001      amu
  | Found l_max for Hartree potential  :   4
  | Found cutoff potl. onset [A], width [A], scale factor :    3.50000    1.50000    1.00000
  | Threshold for basis-dependent cutoff potential is   0.100000E-03
  | Found data for basic radial integration grid :    24 points, outermost radius =    5.000 A
  | Found multiplier for basic radial grid :   1
  | Found angular grid specification: user-specified.
  | Specified grid contains     5 separate shells.
  | Check grid settings after all constraints further below.
  | Found free-atom valence shell :  1 s   1.000
  | No ionic wave fns used. Skipping ion_occ.
  | Found hydrogenic basis function :  2 s   2.100
  | Found hydrogenic basis function :  2 p   3.500
  Species H                   : Missing cutoff potential type.
  Defaulting to exp(1/x)/(1-x)^2 type cutoff potential.
  Species H : No 'logarithmic' tag. Using default grid for free atom:
  | Default logarithmic grid data [bohr] : 0.1000E-03 0.1000E+03 0.1012E+01
  Species H : On-site basis accuracy parameter (for Gram-Schmidt orthonormalisation) not specified.
  Using default value basis_acc =  0.1000000E-03.
  Species H                   : Using default innermost maximum threshold i_radial=  2 for radial functions.
  Species H                   : Default cutoff onset for free atom density etc. : 0.35000000E+01 AA.
  Species H                   : Basic radial grid will be enhanced according to radial_multiplier =   1, to contain    24 grid points.

  Reading configuration options for species O                   .
  | Found nuclear charge :   8.0000
  | Found atomic mass :    15.999400000000000      amu
  | Found l_max for Hartree potential  :   4
  | Found cutoff potl. onset [A], width [A], scale factor :    3.50000    1.50000    1.00000
  | Threshold for basis-dependent cutoff potential is   0.100000E-03
  | Found data for basic radial integration grid :    36 points, outermost radius =    5.000 A
  | Found multiplier for basic radial grid :   1
  | Found angular grid specification: user-specified.
  | Specified grid contains     5 separate shells.
  | Check grid settings after all constraints further below.
  | Found free-atom valence shell :  2 s   2.000
  | Found free-atom valence shell :  2 p   4.000
  | No ionic wave fns used. Skipping ion_occ.
  | No ionic wave fns used. Skipping ion_occ.
  | Found hydrogenic basis function :  2 p   1.800
  | Found hydrogenic basis function :  3 d   7.600
  | Found hydrogenic basis function :  3 s   6.400
  Species O                   : Missing cutoff potential type.
  Defaulting to exp(1/x)/(1-x)^2 type cutoff potential.
  Species O : No 'logarithmic' tag. Using default grid for free atom:
  | Default logarithmic grid data [bohr] : 0.1000E-03 0.1000E+03 0.1012E+01
  Species O : On-site basis accuracy parameter (for Gram-Schmidt orthonormalisation) not specified.
  Using default value basis_acc =  0.1000000E-03.
  Species O                   : Using default innermost maximum threshold i_radial=  2 for radial functions.
  Species O                   : Default cutoff onset for free atom density etc. : 0.35000000E+01 AA.
  Species O                   : Basic radial grid will be enhanced according to radial_multiplier =   1, to contain    36 grid points.
  Forces will be computed.
  Cleaning forces before final output.
  Dipole moment will be written out.

  Finished reading input file 'control.in'. Consistency checks are next.

  MPI_IN_PLACE appears to work with this MPI implementation.
  | Keeping use_mpi_in_place .true. (see manual).
  Target number of points in a grid batch is not set. Defaulting to  100
  Method for grid partitioning is not set. Defaulting to 'maxmin' partitioning.
  Batch size limit is not set. Defaulting to    200
  By default, will store active basis functions for each batch.
  If in need of memory, prune_basis_once .false. can be used to disable this option.
  communication_type for Hartree potential was not specified.
  Defaulting to calc_hartree .
 * Attention: 
 * You may want to set distributed_spline_storage to .true. in order to save memory.
 * This doesn't harm performance and is perfectly ok unless:
 * - you get error messages in postprocessing (about missing atoms in get_rho_multipole_spl)
 * - you need full spline storage in hirshfeld_analysis
  Defaulting to Pulay charge density mixer.
  Pulay mixer: Number of relevant iterations not set.
  Defaulting to    8 iterations.
  Pulay mixer: Number of initial linear mixing iterations not set.
  Defaulting to    0 iterations.
  Work space size for distributed Hartree potential not set.
  Defaulting to   0.200000E+03 MB.
  Mixing parameter for charge density mixing has not been set.
  Using default: charge_mix_param =     0.0500.
  The mixing parameter will be adjusted in iteration number     2 of the first full s.c.f. cycle only.
  Algorithm-dependent basis array size parameters:
  | n_max_pulay                         :        8
 * Notice: The s.c.f. convergence criterion sc_accuracy_rho was not provided.
 * We used to stop in this case, and ask the user to provide reasonable
 * scf convergence criteria. However, this led some users to employ criteria
 * that led to extremely long run times, e.g., for simple relaxation.
 * We now preset a default value for sc_accuracy_rho if it is not set.
 * You may still wish to check if this setting is too tight or too loose for your needs.
 * Based on n_atoms, FHI-aims chose sc_accuracy_rho =  0.100000E-05 .
  Presetting      1001 iterations before the initial mixing cycle
  is restarted anyway using the sc_init_iter criterion / keyword.
  Presetting a factor      1.000 between actual scf density residual
  and density convergence criterion sc_accuracy_rho below which sc_init_iter
  takes no effect.
 * No s.c.f. convergence criteria (sc_accuracy_*) were provided in control.in.
 * The run will proceed with a reasonable default guess, but please check whether.
 * the s.c.f. cycles seem to take too much or too little time.
  Geometry relaxation not requested: no relaxation will be performed.
  Force calculation: scf convergence accuracy of forces not set.
  Defaulting to 'sc_accuracy_forces not_checked'.
  Handling of forces: Unphysical translation and rotation will be removed from forces.
  No accuracy limit for integral partition fn. given. Defaulting to  0.1000E-14.
  No threshold value for u(r) in integrations given. Defaulting to  0.1000E-05.
  No occupation type (smearing scheme) given. Defaulting to Gaussian broadening, width =  0.1000E-01 eV.
  The width will be adjusted in iteration number     2 of the first full s.c.f. cycle only.
  S.C.F. convergence parameters will be adjusted in iteration number     2 of the first full s.c.f. cycle only.
  No accuracy for occupation numbers given. Defaulting to  0.1000E-12.
  No threshold value for occupation numbers given. Defaulting to  0.0000E+00.
  No accuracy for fermi level given. Defaulting to  0.1000E-19.
  Maximum # of iterations to find E_F not set. Defaulting to  200.
  Preferred method for the eigenvalue solver ('KS_method') not specified in 'control.in'.
  Defaulting to serial version, 'lapack_fast'.
  Will not use alltoall communication since running on < 1024 CPUs.
  Threshold for basis singularities not set.
  Default threshold for basis singularities:  0.1000E-04
  partition_type (choice of integration weights) for integrals was not specified.
  | Using a version of the partition function of Stratmann and coworkers ('stratmann_smoother').
  | At each grid point, the set of atoms used to build the partition table is smoothly restricted to
  | only those atoms whose free-atom density would be non-zero at that grid point.
  Partitioning for Hartree potential was not defined. Using partition_type for integrals.
  | Adjusted default value of keyword multip_moments_threshold to:       0.10000000E-11
  | This value may affect high angular momentum components of the Hartree potential in periodic systems.
  No q(lm)/r^(l+1) cutoff set for long-range Hartree potential.
  | Using default value of  0.100000E-09 .
  | Verify using the multipole_threshold keyword.
  Defaulting to new monopole extrapolation.
  Density update method: automatic selection selected.
------------------------------------------------------------


------------------------------------------------------------
          Reading geometry description geometry.in.
------------------------------------------------------------
 * Warning: Initial charge and total charge of the system are inconsistent.
 * Selected charge in control.in:     1.0000* Sum of initial charges in geometry.in:     0.0000
 * Warning! You did not set the 'relativistic' flag in input file 'control.in'.
 * Since you are not attempting to treat any elements beyond Ca(Z=20), FHI-aims
 * will default to 'relativistic none'.
 * You must ensure that this is really what you want!!
 * For example, DO NOT compute total-energy differences between results from
 * different settings of the 'relativistic' flag.
  Input structure read successfully.
  The structure contains        4 atoms,  and a total of         10.000 electrons.

  Input geometry:
  | No unit cell requested.
  | Atomic structure:
  |       Atom                x [A]            y [A]            z [A]
  |    1: Species O             0.00000000        0.00001836        0.19077151
  |    2: Species H             0.82425584       -0.47587261        0.47423563
  |    3: Species H            -0.82425584       -0.47587261        0.47423563
  |    4: Species H            -0.00000000        0.95172688        0.47646636
  |

  | The smallest distance between any two atoms is         0.99308701 AA.
  |
  | The first atom of this pair is atom number                      1 .
  | The second atom of this pair is atom number                     2 .

  Number of empty states per atom not set in control.in - providing a guess from actual geometry.
  | Total number of empty states used during s.c.f. cycle:        8
  If you use a very high smearing, use empty_states (per atom!) in control.in to increase this value.

  Structure-dependent array size parameters: 
  | Maximum number of distinct radial functions  :        9
  | Maximum number of basis functions            :       29
  | Number of Kohn-Sham states (occupied + empty):       13
------------------------------------------------------------

------------------------------------------------------------
          Preparing all fixed parts of the calculation.
------------------------------------------------------------
  Determining machine precision:
     2.2250738585072014E-308
  Setting up grids for atomic and cluster calculations.

  Creating wave function, potential, and density for free atoms.

  Species: H

  List of occupied orbitals and eigenvalues:
    n    l              occ      energy [Ha]    energy [eV]
    1    0           1.0000        -0.232375        -6.3233


  Species: O

  List of occupied orbitals and eigenvalues:
    n    l              occ      energy [Ha]    energy [eV]
    1    0           2.0000       -18.757744      -510.4242
    2    0           2.0000        -0.870917       -23.6989
    2    1           4.0000        -0.337950        -9.1961

  Creating fixed part of basis set: Ionic, confined, hydrogenic.

  H                    hydrogenic:

  List of hydrogenic basis orbitals: 
    n    l      effective z      eigenvalue [eV]  inner max. [A]     outer max. [A]     outer radius [A]   
    2    0         2.100000       -14.9728           0.193243           1.317208           4.583499
    2    1         3.500000       -41.6669           0.602369           0.602369           3.723403


  O                    hydrogenic:

  List of hydrogenic basis orbitals: 
    n    l      effective z      eigenvalue [eV]  inner max. [A]     outer max. [A]     outer radius [A]   
    2    1         1.800000       -10.9749           1.164242           1.164242           4.578029
    3    2         7.600000       -87.3180           0.624125           0.624125           3.251020
    3    0         6.400000       -61.9207           0.061167           1.081902           4.001998


  Adding cutoff potential to free-atom effective potential.
  Creating atomic-like basis functions for current effective potential.

  Species H                   :

  List of atomic basis orbitals and eigenvalues:
    n    l      energy [Ha]    energy [eV]    outer radius [A]
    1    0        -0.232375        -6.3233       4.527807


  Species O                   :

  List of atomic basis orbitals and eigenvalues:
    n    l      energy [Ha]    energy [eV]    outer radius [A]
    1    0       -18.757744      -510.4242       1.433179
    2    0        -0.870917       -23.6989       4.413171
    2    1        -0.337950        -9.1961       4.522403

  Assembling full basis from fixed parts.
  | Species H :   atomic orbital   1 s accepted.
  | Species H :    hydro orbital   2 s accepted.
  | Species H :    hydro orbital   2 p accepted.
  | Species O :   atomic orbital   1 s accepted.
  | Species O :    hydro orbital   3 s accepted.
  | Species O :   atomic orbital   2 s accepted.
  | Species O :   atomic orbital   2 p accepted.
  | Species O :    hydro orbital   2 p accepted.
  | Species O :    hydro orbital   3 d accepted.

  Basis size parameters after reduction:
  | Total number of radial functions:        9
  | Total number of basis functions :       29

  Per-task memory consumption for arrays in subroutine allocate_ext:
  |           2.249476MB.
  Testing on-site integration grid accuracy.
  |  Species  Function  <phi|h_atom|phi> (log., in eV)  <phi|h_atom|phi> (rad., in eV)
           1        1                 -6.3245358373                 -6.3232436907
           1        2                 14.1326137532                 14.1384481100
           1        3                 25.3627025200                 25.3628451197
           2        4               -510.4241781769               -510.4240769412
           2        5                 14.9072942218                 14.9072945276
           2        6                -21.2004736467                -21.2005650544
           2        7                 -9.1962086499                 -9.1963509828
           2        8                  8.1896755011                  8.1702200086
           2        9                 45.7920584945                 45.7920228528

  Preparing densities etc. for the partition functions (integrals / Hartree potential).

  Preparations completed.
  max(cpu_time)          :      0.053 s.
  Wall clock time (cpu1) :      0.053 s.
------------------------------------------------------------

------------------------------------------------------------
          Begin self-consistency loop: Initialization.

          Date     :  20190509, Time     :  114722.910
------------------------------------------------------------

  Initializing index lists of integration centers etc. from given atomic structure:
  | Number of centers in hartree potential         :         4
  | Number of centers in hartree multipole         :         4
  | Number of centers in electron density summation:         4
  | Number of centers in basis integrals           :         4
  | Number of centers in integrals                 :         4
  | Number of centers in hamiltonian               :         4
  Partitioning the integration grid into batches with maxmin method.
  | Maximal weight for a single point:     1.000
  | Minimal weight for a single point:     0.000
  | Number of batches:      256
  | Maximal batch size:      83
  | Minimal batch size:      78
  | Average batch size:      80.719
  | Standard deviation of batch sizes:       1.484
  Initializing partition tables, free-atom densities, potentials, etc. across the integration grid (initialize_grid_storage).
  | initialize_grid_storage: Actual outermost partition radius vs. multipole_radius_free
  | (-- VB: in principle, multipole_radius_free should be larger, hence this output)
  | Species        1: Confinement radius =              4.999999999999999 AA, multipole_radius_free =              5.054417573612229 AA.
  | Species        1: outer_partition_radius set to              5.054417573612229 AA .
  | Species        2: Confinement radius =              4.999999999999999 AA, multipole_radius_free =              5.048384829883283 AA.
  | Species        2: outer_partition_radius set to              5.048384829883283 AA .
  | Original list of interatomic distances with           4 x          4 entries is created.
  | Net number of integration points:    20664
  | of which are non-zero points    :    18385
  Renormalizing the initial density to the exact electron count on the 3D integration grid.
  | Initial density: Formal number of electrons (from input files) :      11.0000000000
  | Integrated number of electrons on 3D grid     :      10.9999417314
  | Charge integration error                      :      -0.0000582686
  | Normalization factor for density and gradient :       1.0000052972
  Obtaining max. number of non-zero basis functions in each batch (get_n_compute_maxes).
  | Maximal number of non-zero basis functions:       29 in task     0
  Selecting the method for density update.
  Loop over occupied states selected for charge density update.
  Allocating        0.003 MB for KS_eigenvector
  Integrating Hamiltonian matrix: batch-based integration.
  Time summed over all CPUs for integration: real work        0.031 s, elapsed        0.031 s
  Integrating overlap matrix.
  Time summed over all CPUs for integration: real work        0.015 s, elapsed        0.015 s

  Updating Kohn-Sham eigenvalues, eigenvectors, occupation numbers, and Fermi level.
  Solving generalized eigenproblem
  Updating Kohn-Sham eigenvalues and eigenfunctions.
  Transforming overlap matrix and checking for singularities.
  Overlap matrix is nonsingular:
  | Lowest eigenvalue:  0.148388E-01
  Solving real generalised eigenvalue problem by standard LAPACK (fast)

  Obtaining occupation numbers and chemical potential using ELSI.
  | Chemical potential (Fermi level):    -6.76935765eV
  Writing Kohn-Sham eigenvalues.

  State    Occupation    Eigenvalue [Ha]    Eigenvalue [eV]
      1       2.00000         -18.911437         -514.60637
      2       2.00000          -1.150807          -31.31505
      3       2.00000          -0.670916          -18.25656
      4       2.00000          -0.670638          -18.24899
      5       2.00000          -0.507501          -13.80980
      6       0.00000          -0.090493           -2.46245
      7       0.00000           0.002291            0.06235
      8       0.00000           0.002473            0.06729
      9       0.00000           0.199716            5.43454
     10       0.00000           0.264798            7.20552
     11       0.00000           0.264824            7.20623
     12       0.00000           0.467014           12.70811
     13       0.00000           0.669067           18.20623

  Highest occupied state (VBM) at    -13.80979719 eV
  | Occupation number:      2.00000000

  Lowest unoccupied state (CBM) at    -2.46244955 eV
  | Occupation number:      0.00000000

  Overall HOMO-LUMO gap:     11.34734764 eV.
  Calculating total energy contributions from superposition of free atom densities.

  Total energy components:
  | Sum of eigenvalues            :         -43.82259745 Ha       -1192.47354912 eV
  | XC energy correction          :          -8.86335731 Ha        -241.18422379 eV
  | XC potential correction       :          11.67097881 Ha         317.58349180 eV
  | Free-atom electrostatic energy:         -35.29824237 Ha        -960.51404528 eV
  | Hartree energy correction     :          -0.00000000 Ha          -0.00000000 eV
  | Entropy correction            :          -0.00000000 Ha          -0.00000000 eV
  | ---------------------------
  | Total energy                  :         -76.31321833 Ha       -2076.58832640 eV
  | Total energy, T -> 0          :         -76.31321833 Ha       -2076.58832640 eV  <-- do not rely on this value for anything but (periodic) metals
  | Electronic free energy        :         -76.31321833 Ha       -2076.58832640 eV

  Derived energy quantities:
  | Kinetic energy                :          75.66364194 Ha        2058.91245355 eV
  | Electrostatic energy          :        -143.11350296 Ha       -3894.31655616 eV
  | Energy correction for multipole
  | error in Hartree potential    :           0.00000000 Ha           0.00000000 eV
  | Sum of eigenvalues per atom                           :        -298.11838728 eV
  | Total energy (T->0) per atom                          :        -519.14708160 eV  <-- do not rely on this value for anything but (periodic) metals
  | Electronic free energy per atom                       :        -519.14708160 eV
  Initialize hartree_potential_storage
  Max. number of atoms included in rho_multipole:            4

  End scf initialization - timings             :  max(cpu_time)    wall_clock(cpu1)
  | Time for scf. initialization               :        0.086 s           0.086 s
  | Boundary condition initialization          :        0.000 s           0.000 s
  | Integration                                :        0.046 s           0.046 s
  | Solution of K.-S. eqns.                    :        0.001 s           0.000 s
  | Grid partitioning                          :        0.014 s           0.014 s
  | Preloading free-atom quantities on grid    :        0.001 s           0.000 s
  | Free-atom superposition energy             :        0.012 s           0.013 s
  | Total energy evaluation                    :        0.000 s           0.000 s

  Partial memory accounting:
  | Current value for overall tracked memory usage on task 0  :           0.017 MB
  | Peak value for overall tracked memory usage on task 0     :           0.075 MB after allocating wave
  | Largest tracked array allocation on task 0 so far         :           0.019 MB  when allocating H_times_psi
  Note:  These values currently only include a subset of arrays which are explicitly tracked.
  The "true" memory usage will be greater.
------------------------------------------------------------

------------------------------------------------------------
          Begin self-consistency iteration #    1

  Date     :  20190509, Time     :  114722.996
------------------------------------------------------------
  Evaluating new KS density.
  Integration grid: deviation in total charge (<rho> - N_e) =  -1.953993E-14
  Pulay mixing of updated and previous charge densities.

  Evaluating partitioned Hartree potential by multipole expansion.
  | Analytical far-field extrapolation by fixed multipoles:
  | Hartree multipole sum: apparent total charge =   0.499218E-01
  Summing up the Hartree potential.
  Time summed over all CPUs for potential: real work        0.016 s, elapsed        0.016 s
  | RMS charge density error from multipole expansion :   0.485746E-03

  Integrating Hamiltonian matrix: batch-based integration.
  Time summed over all CPUs for integration: real work        0.028 s, elapsed        0.028 s

  Updating Kohn-Sham eigenvalues, eigenvectors, occupation numbers, and Fermi level.
  Solving generalized eigenproblem
  Updating Kohn-Sham eigenvalues and eigenfunctions.
  Solving real generalised eigenvalue problem by standard LAPACK (fast)

  Obtaining occupation numbers and chemical potential using ELSI.
  | Chemical potential (Fermi level):    -6.98717298eV
  Writing Kohn-Sham eigenvalues.

  State    Occupation    Eigenvalue [Ha]    Eigenvalue [eV]
      1       2.00000         -18.901898         -514.34682
      2       2.00000          -1.154958          -31.42801
      3       2.00000          -0.676356          -18.40458
      4       2.00000          -0.676080          -18.39706
      5       2.00000          -0.510146          -13.88179
      6       0.00000          -0.100798           -2.74285
      7       0.00000          -0.007347           -0.19992
      8       0.00000          -0.007161           -0.19487
      9       0.00000           0.192589            5.24062
     10       0.00000           0.254934            6.93710
     11       0.00000           0.254957            6.93773
     12       0.00000           0.456373           12.41853
     13       0.00000           0.660199           17.96494

  Highest occupied state (VBM) at    -13.88179038 eV
  | Occupation number:      2.00000000

  Lowest unoccupied state (CBM) at    -2.74285419 eV
  | Occupation number:      0.00000000

  Overall HOMO-LUMO gap:     11.13893620 eV.

  Total energy components:
  | Sum of eigenvalues            :         -43.83887605 Ha       -1192.91651216 eV
  | XC energy correction          :          -8.86649426 Ha        -241.26958456 eV
  | XC potential correction       :          11.67533266 Ha         317.70196608 eV
  | Free-atom electrostatic energy:         -35.29824237 Ha        -960.51404528 eV
  | Hartree energy correction     :           0.03285776 Ha           0.89410502 eV
  | Entropy correction            :          -0.00000000 Ha          -0.00000000 eV
  | ---------------------------
  | Total energy                  :         -76.29542227 Ha       -2076.10407089 eV
  | Total energy, T -> 0          :         -76.29542227 Ha       -2076.10407089 eV  <-- do not rely on this value for anything but (periodic) metals
  | Electronic free energy        :         -76.29542227 Ha       -2076.10407089 eV

  Derived energy quantities:
  | Kinetic energy                :          75.75266191 Ha        2061.33481016 eV
  | Electrostatic energy          :        -143.18158991 Ha       -3896.16929650 eV
  | Energy correction for multipole
  | error in Hartree potential    :           0.00050674 Ha           0.01378907 eV
  | Sum of eigenvalues per atom                           :        -298.22912804 eV
  | Total energy (T->0) per atom                          :        -519.02601772 eV  <-- do not rely on this value for anything but (periodic) metals
  | Electronic free energy per atom                       :        -519.02601772 eV

  Self-consistency convergence accuracy:
  | Change of charge density      :  0.2572E+00
  | Change of sum of eigenvalues  : -0.4430E+00 eV
  | Change of total energy        :  0.4843E+00 eV

  End self-consistency iteration #     1       :  max(cpu_time)    wall_clock(cpu1)
  | Time for this iteration                    :        0.061 s           0.061 s
  | Charge density update                      :        0.013 s           0.013 s
  | Density mixing                             :        0.000 s           0.000 s
  | Hartree multipole update                   :        0.002 s           0.002 s
  | Hartree multipole summation                :        0.017 s           0.017 s
  | Integration                                :        0.029 s           0.028 s
  | Solution of K.-S. eqns.                    :        0.000 s           0.001 s
  | Total energy evaluation                    :        0.000 s           0.000 s

  Partial memory accounting:
  | Current value for overall tracked memory usage on task 0  :           0.017 MB
  | Peak value for overall tracked memory usage on task 0     :           0.082 MB after allocating wave
  | Largest tracked array allocation on task 0 so far         :           0.019 MB  when allocating H_times_psi
  Note:  These values currently only include a subset of arrays which are explicitly tracked.
  The "true" memory usage will be greater.
------------------------------------------------------------

------------------------------------------------------------
          Begin self-consistency iteration #    2

  Date     :  20190509, Time     :  114723.057
------------------------------------------------------------
  Evaluating new KS density.
  Integration grid: deviation in total charge (<rho> - N_e) =   7.105427E-15
  Pulay mixing of updated and previous charge densities.

  Evaluating partitioned Hartree potential by multipole expansion.
  | Analytical far-field extrapolation by fixed multipoles:
  | Hartree multipole sum: apparent total charge =   0.436345E+00
  Summing up the Hartree potential.
  Time summed over all CPUs for potential: real work        0.016 s, elapsed        0.016 s
  | RMS charge density error from multipole expansion :   0.418612E-02

  Integrating Hamiltonian matrix: batch-based integration.
  Time summed over all CPUs for integration: real work        0.027 s, elapsed        0.027 s

  Updating Kohn-Sham eigenvalues, eigenvectors, occupation numbers, and Fermi level.
  Solving generalized eigenproblem
  Updating Kohn-Sham eigenvalues and eigenfunctions.
  Solving real generalised eigenvalue problem by standard LAPACK (fast)

  Obtaining occupation numbers and chemical potential using ELSI.
  | Chemical potential (Fermi level):    -8.70679334eV
  Highest occupied state (VBM) at    -14.67076052 eV
  | Occupation number:      2.00000000

  Lowest unoccupied state (CBM) at    -4.88089221 eV
  | Occupation number:      0.00000000

  Overall HOMO-LUMO gap:      9.78986831 eV.

  Checking to see if s.c.f. parameters should be adjusted.
  The system likely has a gap. Increased the default Pulay mixing parameter (charge_mix_param). Value:   0.200000 .
  Kept the default occupation width. Value:   0.010000 eV.

  Total energy components:
  | Sum of eigenvalues            :         -44.06379374 Ha       -1199.03683403 eV
  | XC energy correction          :          -8.88968733 Ha        -241.90070010 eV
  | XC potential correction       :          11.70752013 Ha         318.57783181 eV
  | Free-atom electrostatic energy:         -35.29824237 Ha        -960.51404528 eV
  | Hartree energy correction     :           0.33577818 Ha           9.13698927 eV
  | Entropy correction            :          -0.00000000 Ha          -0.00000000 eV
  | ---------------------------
  | Total energy                  :         -76.20842513 Ha       -2073.73675833 eV
  | Total energy, T -> 0          :         -76.20842513 Ha       -2073.73675833 eV  <-- do not rely on this value for anything but (periodic) metals
  | Electronic free energy        :         -76.20842513 Ha       -2073.73675833 eV

  Derived energy quantities:
  | Kinetic energy                :          76.28443169 Ha        2075.80500219 eV
  | Electrostatic energy          :        -143.60316949 Ha       -3907.64106041 eV
  | Energy correction for multipole
  | error in Hartree potential    :           0.00417945 Ha           0.11372875 eV
  | Sum of eigenvalues per atom                           :        -299.75920851 eV
  | Total energy (T->0) per atom                          :        -518.43418958 eV  <-- do not rely on this value for anything but (periodic) metals
  | Electronic free energy per atom                       :        -518.43418958 eV

  Self-consistency convergence accuracy:
  | Change of charge density      :  0.2323E+00
  | Change of sum of eigenvalues  : -0.6120E+01 eV
  | Change of total energy        :  0.2367E+01 eV

  End self-consistency iteration #     2       :  max(cpu_time)    wall_clock(cpu1)
  | Time for this iteration                    :        0.058 s           0.058 s
  | Charge density update                      :        0.011 s           0.011 s
  | Density mixing                             :        0.000 s           0.001 s
  | Hartree multipole update                   :        0.001 s           0.001 s
  | Hartree multipole summation                :        0.016 s           0.016 s
  | Integration                                :        0.028 s           0.028 s
  | Solution of K.-S. eqns.                    :        0.000 s           0.001 s
  | Total energy evaluation                    :        0.000 s           0.000 s

  Partial memory accounting:
  | Current value for overall tracked memory usage on task 0  :           0.018 MB
  | Peak value for overall tracked memory usage on task 0     :           0.083 MB after allocating wave
  | Largest tracked array allocation on task 0 so far         :           0.019 MB  when allocating H_times_psi
  Note:  These values currently only include a subset of arrays which are explicitly tracked.
  The "true" memory usage will be greater.
------------------------------------------------------------

------------------------------------------------------------
          Begin self-consistency iteration #    3

  Date     :  20190509, Time     :  114723.115
------------------------------------------------------------
  Evaluating new KS density.
  Integration grid: deviation in total charge (<rho> - N_e) =  -1.598721E-14
  Pulay mixing of updated and previous charge densities.

  Evaluating partitioned Hartree potential by multipole expansion.
  | Analytical far-field extrapolation by fixed multipoles:
  | Hartree multipole sum: apparent total charge =   0.853595E+00
  Summing up the Hartree potential.
  Time summed over all CPUs for potential: real work        0.018 s, elapsed        0.018 s
  | RMS charge density error from multipole expansion :   0.782358E-02

  Integrating Hamiltonian matrix: batch-based integration.
  Time summed over all CPUs for integration: real work        0.030 s, elapsed        0.030 s

  Updating Kohn-Sham eigenvalues, eigenvectors, occupation numbers, and Fermi level.
  Solving generalized eigenproblem
  Updating Kohn-Sham eigenvalues and eigenfunctions.
  Solving real generalised eigenvalue problem by standard LAPACK (fast)

  Obtaining occupation numbers and chemical potential using ELSI.
  | Chemical potential (Fermi level):   -11.61729628eV
  Highest occupied state (VBM) at    -18.15820921 eV
  | Occupation number:      2.00000000

  Lowest unoccupied state (CBM) at    -7.59650065 eV
  | Occupation number:      0.00000000

  Overall HOMO-LUMO gap:     10.56170856 eV.

  Total energy components:
  | Sum of eigenvalues            :         -45.45018499 Ha       -1236.76245943 eV
  | XC energy correction          :          -8.79513362 Ha        -239.32776271 eV
  | XC potential correction       :          11.58405142 Ha         315.21807737 eV
  | Free-atom electrostatic energy:         -35.29824237 Ha        -960.51404528 eV
  | Hartree energy correction     :           1.78329625 Ha          48.52596002 eV
  | Entropy correction            :          -0.00000000 Ha          -0.00000000 eV
  | ---------------------------
  | Total energy                  :         -76.17621331 Ha       -2072.86023003 eV
  | Total energy, T -> 0          :         -76.17621331 Ha       -2072.86023003 eV  <-- do not rely on this value for anything but (periodic) metals
  | Electronic free energy        :         -76.17621331 Ha       -2072.86023003 eV

  Derived energy quantities:
  | Kinetic energy                :          75.81836365 Ha        2063.12264548 eV
  | Electrostatic energy          :        -143.19944334 Ha       -3896.65511280 eV
  | Energy correction for multipole
  | error in Hartree potential    :           0.00574115 Ha           0.15622458 eV
  | Sum of eigenvalues per atom                           :        -309.19061486 eV
  | Total energy (T->0) per atom                          :        -518.21505751 eV  <-- do not rely on this value for anything but (periodic) metals
  | Electronic free energy per atom                       :        -518.21505751 eV

  Self-consistency convergence accuracy:
  | Change of charge density      :  0.1082E+00
  | Change of sum of eigenvalues  : -0.3773E+02 eV
  | Change of total energy        :  0.8765E+00 eV

  End self-consistency iteration #     3       :  max(cpu_time)    wall_clock(cpu1)
  | Time for this iteration                    :        0.062 s           0.062 s
  | Charge density update                      :        0.011 s           0.011 s
  | Density mixing                             :        0.000 s           0.000 s
  | Hartree multipole update                   :        0.002 s           0.002 s
  | Hartree multipole summation                :        0.018 s           0.018 s
  | Integration                                :        0.031 s           0.030 s
  | Solution of K.-S. eqns.                    :        0.000 s           0.001 s
  | Total energy evaluation                    :        0.000 s           0.000 s

  Partial memory accounting:
  | Current value for overall tracked memory usage on task 0  :           0.018 MB
  | Peak value for overall tracked memory usage on task 0     :           0.083 MB after allocating wave
  | Largest tracked array allocation on task 0 so far         :           0.019 MB  when allocating H_times_psi
  Note:  These values currently only include a subset of arrays which are explicitly tracked.
  The "true" memory usage will be greater.
------------------------------------------------------------

------------------------------------------------------------
          Begin self-consistency iteration #    4

  Date     :  20190509, Time     :  114723.177
------------------------------------------------------------
  Evaluating new KS density.
  Integration grid: deviation in total charge (<rho> - N_e) =   1.065814E-14
  Pulay mixing of updated and previous charge densities.

  Evaluating partitioned Hartree potential by multipole expansion.
  | Analytical far-field extrapolation by fixed multipoles:
  | Hartree multipole sum: apparent total charge =   0.100711E+01
  Summing up the Hartree potential.
  Time summed over all CPUs for potential: real work        0.017 s, elapsed        0.017 s
  | RMS charge density error from multipole expansion :   0.924754E-02

  Integrating Hamiltonian matrix: batch-based integration.
  Time summed over all CPUs for integration: real work        0.028 s, elapsed        0.028 s

  Updating Kohn-Sham eigenvalues, eigenvectors, occupation numbers, and Fermi level.
  Solving generalized eigenproblem
  Updating Kohn-Sham eigenvalues and eigenfunctions.
  Solving real generalised eigenvalue problem by standard LAPACK (fast)

  Obtaining occupation numbers and chemical potential using ELSI.
  | Chemical potential (Fermi level):   -12.33443744eV
  Highest occupied state (VBM) at    -18.92722628 eV
  | Occupation number:      2.00000000

  Lowest unoccupied state (CBM) at    -8.36035950 eV
  | Occupation number:      0.00000000

  Overall HOMO-LUMO gap:     10.56686678 eV.

  Total energy components:
  | Sum of eigenvalues            :         -45.73750655 Ha       -1244.58087674 eV
  | XC energy correction          :          -8.79124089 Ha        -239.22183617 eV
  | XC potential correction       :          11.57938073 Ha         315.09098131 eV
  | Free-atom electrostatic energy:         -35.29824237 Ha        -960.51404528 eV
  | Hartree energy correction     :           2.07372708 Ha          56.42898484 eV
  | Entropy correction            :          -0.00000000 Ha          -0.00000000 eV
  | ---------------------------
  | Total energy                  :         -76.17388200 Ha       -2072.79679204 eV
  | Total energy, T -> 0          :         -76.17388200 Ha       -2072.79679204 eV  <-- do not rely on this value for anything but (periodic) metals
  | Electronic free energy        :         -76.17388200 Ha       -2072.79679204 eV

  Derived energy quantities:
  | Kinetic energy                :          75.80012008 Ha        2062.62621259 eV
  | Electrostatic energy          :        -143.18276119 Ha       -3896.20116846 eV
  | Energy correction for multipole
  | error in Hartree potential    :           0.00665537 Ha           0.18110175 eV
  | Sum of eigenvalues per atom                           :        -311.14521919 eV
  | Total energy (T->0) per atom                          :        -518.19919801 eV  <-- do not rely on this value for anything but (periodic) metals
  | Electronic free energy per atom                       :        -518.19919801 eV

  Self-consistency convergence accuracy:
  | Change of charge density      :  0.4481E-01
  | Change of sum of eigenvalues  : -0.7818E+01 eV
  | Change of total energy        :  0.6344E-01 eV

  End self-consistency iteration #     4       :  max(cpu_time)    wall_clock(cpu1)
  | Time for this iteration                    :        0.059 s           0.059 s
  | Charge density update                      :        0.012 s           0.011 s
  | Density mixing                             :        0.000 s           0.001 s
  | Hartree multipole update                   :        0.002 s           0.001 s
  | Hartree multipole summation                :        0.017 s           0.017 s
  | Integration                                :        0.028 s           0.028 s
  | Solution of K.-S. eqns.                    :        0.000 s           0.001 s
  | Total energy evaluation                    :        0.000 s           0.000 s

  Partial memory accounting:
  | Current value for overall tracked memory usage on task 0  :           0.019 MB
  | Peak value for overall tracked memory usage on task 0     :           0.083 MB after allocating wave
  | Largest tracked array allocation on task 0 so far         :           0.019 MB  when allocating H_times_psi
  Note:  These values currently only include a subset of arrays which are explicitly tracked.
  The "true" memory usage will be greater.
------------------------------------------------------------

------------------------------------------------------------
          Begin self-consistency iteration #    5

  Date     :  20190509, Time     :  114723.236
------------------------------------------------------------
  Evaluating new KS density.
  Integration grid: deviation in total charge (<rho> - N_e) =   2.664535E-14
  Pulay mixing of updated and previous charge densities.

  Evaluating partitioned Hartree potential by multipole expansion.
  | Analytical far-field extrapolation by fixed multipoles:
  | Hartree multipole sum: apparent total charge =   0.101052E+01
  Summing up the Hartree potential.
  Time summed over all CPUs for potential: real work        0.017 s, elapsed        0.017 s
  | RMS charge density error from multipole expansion :   0.934654E-02

  Integrating Hamiltonian matrix: batch-based integration.
  Time summed over all CPUs for integration: real work        0.029 s, elapsed        0.029 s

  Updating Kohn-Sham eigenvalues, eigenvectors, occupation numbers, and Fermi level.
  Solving generalized eigenproblem
  Updating Kohn-Sham eigenvalues and eigenfunctions.
  Solving real generalised eigenvalue problem by standard LAPACK (fast)

  Obtaining occupation numbers and chemical potential using ELSI.
  | Chemical potential (Fermi level):   -12.17368333eV
  Highest occupied state (VBM) at    -18.70960028 eV
  | Occupation number:      2.00000000

  Lowest unoccupied state (CBM) at    -8.23948689 eV
  | Occupation number:      0.00000000

  Overall HOMO-LUMO gap:     10.47011339 eV.

  Total energy components:
  | Sum of eigenvalues            :         -45.64322828 Ha       -1242.01543454 eV
  | XC energy correction          :          -8.80481242 Ha        -239.59113627 eV
  | XC potential correction       :          11.59726068 Ha         315.57751959 eV
  | Free-atom electrostatic energy:         -35.29824237 Ha        -960.51404528 eV
  | Hartree energy correction     :           1.97524040 Ha          53.74902588 eV
  | Entropy correction            :          -0.00000000 Ha          -0.00000000 eV
  | ---------------------------
  | Total energy                  :         -76.17378199 Ha       -2072.79407063 eV
  | Total energy, T -> 0          :         -76.17378199 Ha       -2072.79407063 eV  <-- do not rely on this value for anything but (periodic) metals
  | Electronic free energy        :         -76.17378199 Ha       -2072.79407063 eV

  Derived energy quantities:
  | Kinetic energy                :          75.84779926 Ha        2063.92362917 eV
  | Electrostatic energy          :        -143.21676883 Ha       -3897.12656352 eV
  | Energy correction for multipole
  | error in Hartree potential    :           0.00645439 Ha           0.17563298 eV
  | Sum of eigenvalues per atom                           :        -310.50385863 eV
  | Total energy (T->0) per atom                          :        -518.19851766 eV  <-- do not rely on this value for anything but (periodic) metals
  | Electronic free energy per atom                       :        -518.19851766 eV

  Self-consistency convergence accuracy:
  | Change of charge density      :  0.1072E-01
  | Change of sum of eigenvalues  :  0.2565E+01 eV
  | Change of total energy        :  0.2721E-02 eV

  End self-consistency iteration #     5       :  max(cpu_time)    wall_clock(cpu1)
  | Time for this iteration                    :        0.059 s           0.059 s
  | Charge density update                      :        0.011 s           0.011 s
  | Density mixing                             :        0.001 s           0.001 s
  | Hartree multipole update                   :        0.001 s           0.001 s
  | Hartree multipole summation                :        0.017 s           0.017 s
  | Integration                                :        0.029 s           0.029 s
  | Solution of K.-S. eqns.                    :        0.000 s           0.000 s
  | Total energy evaluation                    :        0.000 s           0.000 s

  Partial memory accounting:
  | Current value for overall tracked memory usage on task 0  :           0.019 MB
  | Peak value for overall tracked memory usage on task 0     :           0.083 MB after allocating wave
  | Largest tracked array allocation on task 0 so far         :           0.019 MB  when allocating H_times_psi
  Note:  These values currently only include a subset of arrays which are explicitly tracked.
  The "true" memory usage will be greater.
------------------------------------------------------------

------------------------------------------------------------
          Begin self-consistency iteration #    6

  Date     :  20190509, Time     :  114723.295
------------------------------------------------------------
  Evaluating new KS density.
  Integration grid: deviation in total charge (<rho> - N_e) =  -1.776357E-15
  Pulay mixing of updated and previous charge densities.

  Evaluating partitioned Hartree potential by multipole expansion.
  | Analytical far-field extrapolation by fixed multipoles:
  | Hartree multipole sum: apparent total charge =   0.100145E+01
  Summing up the Hartree potential.
  Time summed over all CPUs for potential: real work        0.016 s, elapsed        0.016 s
  | RMS charge density error from multipole expansion :   0.925317E-02

  Integrating Hamiltonian matrix: batch-based integration.
  Time summed over all CPUs for integration: real work        0.029 s, elapsed        0.029 s

  Updating Kohn-Sham eigenvalues, eigenvectors, occupation numbers, and Fermi level.
  Solving generalized eigenproblem
  Updating Kohn-Sham eigenvalues and eigenfunctions.
  Solving real generalised eigenvalue problem by standard LAPACK (fast)

  Obtaining occupation numbers and chemical potential using ELSI.
  | Chemical potential (Fermi level):   -12.20318422eV
  Highest occupied state (VBM) at    -18.75970857 eV
  | Occupation number:      2.00000000

  Lowest unoccupied state (CBM) at    -8.23975647 eV
  | Occupation number:      0.00000000

  Overall HOMO-LUMO gap:     10.51995210 eV.

  Total energy components:
  | Sum of eigenvalues            :         -45.66867143 Ha       -1242.70777780 eV
  | XC energy correction          :          -8.79961644 Ha        -239.44974628 eV
  | XC potential correction       :          11.59037525 Ha         315.39015749 eV
  | Free-atom electrostatic energy:         -35.29824237 Ha        -960.51404528 eV
  | Hartree energy correction     :           2.00239637 Ha          54.48797768 eV
  | Entropy correction            :          -0.00000000 Ha          -0.00000000 eV
  | ---------------------------
  | Total energy                  :         -76.17375860 Ha       -2072.79343418 eV
  | Total energy, T -> 0          :         -76.17375860 Ha       -2072.79343418 eV  <-- do not rely on this value for anything but (periodic) metals
  | Electronic free energy        :         -76.17375860 Ha       -2072.79343418 eV

  Derived energy quantities:
  | Kinetic energy                :          75.81733924 Ha        2063.09476994 eV
  | Electrostatic energy          :        -143.19148141 Ha       -3896.43845785 eV
  | Energy correction for multipole
  | error in Hartree potential    :           0.00634857 Ha           0.17275342 eV
  | Sum of eigenvalues per atom                           :        -310.67694445 eV
  | Total energy (T->0) per atom                          :        -518.19835855 eV  <-- do not rely on this value for anything but (periodic) metals
  | Electronic free energy per atom                       :        -518.19835855 eV

  Self-consistency convergence accuracy:
  | Change of charge density      :  0.7281E-02
  | Change of sum of eigenvalues  : -0.6923E+00 eV
  | Change of total energy        :  0.6364E-03 eV

  End self-consistency iteration #     6       :  max(cpu_time)    wall_clock(cpu1)
  | Time for this iteration                    :        0.059 s           0.059 s
  | Charge density update                      :        0.011 s           0.011 s
  | Density mixing                             :        0.001 s           0.001 s
  | Hartree multipole update                   :        0.002 s           0.001 s
  | Hartree multipole summation                :        0.016 s           0.017 s
  | Integration                                :        0.029 s           0.029 s
  | Solution of K.-S. eqns.                    :        0.000 s           0.000 s
  | Total energy evaluation                    :        0.000 s           0.000 s

  Partial memory accounting:
  | Current value for overall tracked memory usage on task 0  :           0.019 MB
  | Peak value for overall tracked memory usage on task 0     :           0.084 MB after allocating wave
  | Largest tracked array allocation on task 0 so far         :           0.019 MB  when allocating H_times_psi
  Note:  These values currently only include a subset of arrays which are explicitly tracked.
  The "true" memory usage will be greater.
------------------------------------------------------------

------------------------------------------------------------
          Begin self-consistency iteration #    7

  Date     :  20190509, Time     :  114723.354
------------------------------------------------------------
  Evaluating new KS density.
  Integration grid: deviation in total charge (<rho> - N_e) =   0.000000E+00
  Pulay mixing of updated and previous charge densities.

  Evaluating partitioned Hartree potential by multipole expansion.
  | Analytical far-field extrapolation by fixed multipoles:
  | Hartree multipole sum: apparent total charge =   0.999109E+00
  Summing up the Hartree potential.
  Time summed over all CPUs for potential: real work        0.016 s, elapsed        0.016 s
  | RMS charge density error from multipole expansion :   0.924708E-02

  Integrating Hamiltonian matrix: batch-based integration.
  Time summed over all CPUs for integration: real work        0.029 s, elapsed        0.029 s

  Updating Kohn-Sham eigenvalues, eigenvectors, occupation numbers, and Fermi level.
  Solving generalized eigenproblem
  Updating Kohn-Sham eigenvalues and eigenfunctions.
  Solving real generalised eigenvalue problem by standard LAPACK (fast)

  Obtaining occupation numbers and chemical potential using ELSI.
  | Chemical potential (Fermi level):   -12.15088895eV
  Highest occupied state (VBM) at    -18.68041384 eV
  | Occupation number:      2.00000000

  Lowest unoccupied state (CBM) at    -8.19570448 eV
  | Occupation number:      0.00000000

  Overall HOMO-LUMO gap:     10.48470936 eV.

  Total energy components:
  | Sum of eigenvalues            :         -45.63822364 Ha       -1241.87925141 eV
  | XC energy correction          :          -8.80315787 Ha        -239.54611352 eV
  | XC potential correction       :          11.59502855 Ha         315.51678005 eV
  | Free-atom electrostatic energy:         -35.29824237 Ha        -960.51404528 eV
  | Hartree energy correction     :           1.97085136 Ha          53.62959415 eV
  | Entropy correction            :          -0.00000000 Ha          -0.00000000 eV
  | ---------------------------
  | Total energy                  :         -76.17374397 Ha       -2072.79303600 eV
  | Total energy, T -> 0          :         -76.17374397 Ha       -2072.79303600 eV  <-- do not rely on this value for anything but (periodic) metals
  | Electronic free energy        :         -76.17374397 Ha       -2072.79303600 eV

  Derived energy quantities:
  | Kinetic energy                :          75.82706287 Ha        2063.35936317 eV
  | Electrostatic energy          :        -143.19764897 Ha       -3896.60628565 eV
  | Energy correction for multipole
  | error in Hartree potential    :           0.00623882 Ha           0.16976704 eV
  | Sum of eigenvalues per atom                           :        -310.46981285 eV
  | Total energy (T->0) per atom                          :        -518.19825900 eV  <-- do not rely on this value for anything but (periodic) metals
  | Electronic free energy per atom                       :        -518.19825900 eV

  Self-consistency convergence accuracy:
  | Change of charge density      :  0.3744E-02
  | Change of sum of eigenvalues  :  0.8285E+00 eV
  | Change of total energy        :  0.3982E-03 eV

  End self-consistency iteration #     7       :  max(cpu_time)    wall_clock(cpu1)
  | Time for this iteration                    :        0.059 s           0.059 s
  | Charge density update                      :        0.011 s           0.011 s
  | Density mixing                             :        0.001 s           0.001 s
  | Hartree multipole update                   :        0.002 s           0.002 s
  | Hartree multipole summation                :        0.017 s           0.016 s
  | Integration                                :        0.028 s           0.029 s
  | Solution of K.-S. eqns.                    :        0.000 s           0.000 s
  | Total energy evaluation                    :        0.000 s           0.000 s

  Partial memory accounting:
  | Current value for overall tracked memory usage on task 0  :           0.019 MB
  | Peak value for overall tracked memory usage on task 0     :           0.084 MB after allocating wave
  | Largest tracked array allocation on task 0 so far         :           0.019 MB  when allocating H_times_psi
  Note:  These values currently only include a subset of arrays which are explicitly tracked.
  The "true" memory usage will be greater.
------------------------------------------------------------

------------------------------------------------------------
          Begin self-consistency iteration #    8

  Date     :  20190509, Time     :  114723.413
------------------------------------------------------------
  Evaluating new KS density.
  Integration grid: deviation in total charge (<rho> - N_e) =  -1.776357E-15
  Pulay mixing of updated and previous charge densities.

  Evaluating partitioned Hartree potential by multipole expansion.
  | Analytical far-field extrapolation by fixed multipoles:
  | Hartree multipole sum: apparent total charge =   0.999326E+00
  Summing up the Hartree potential.
  Time summed over all CPUs for potential: real work        0.016 s, elapsed        0.016 s
  | RMS charge density error from multipole expansion :   0.925024E-02

  Integrating Hamiltonian matrix: batch-based integration.
  Time summed over all CPUs for integration: real work        0.029 s, elapsed        0.029 s

  Updating Kohn-Sham eigenvalues, eigenvectors, occupation numbers, and Fermi level.
  Solving generalized eigenproblem
  Updating Kohn-Sham eigenvalues and eigenfunctions.
  Solving real generalised eigenvalue problem by standard LAPACK (fast)

  Obtaining occupation numbers and chemical potential using ELSI.
  | Chemical potential (Fermi level):   -12.14686079eV
  Highest occupied state (VBM) at    -18.67472031 eV
  | Occupation number:      2.00000000

  Lowest unoccupied state (CBM) at    -8.19273935 eV
  | Occupation number:      0.00000000

  Overall HOMO-LUMO gap:     10.48198096 eV.

  Total energy components:
  | Sum of eigenvalues            :         -45.63611842 Ha       -1241.82196529 eV
  | XC energy correction          :          -8.80349389 Ha        -239.55525707 eV
  | XC potential correction       :          11.59547079 Ha         315.52881418 eV
  | Free-atom electrostatic energy:         -35.29824237 Ha        -960.51404528 eV
  | Hartree energy correction     :           1.96864009 Ha          53.56942246 eV
  | Entropy correction            :          -0.00000000 Ha          -0.00000000 eV
  | ---------------------------
  | Total energy                  :         -76.17374379 Ha       -2072.79303100 eV
  | Total energy, T -> 0          :         -76.17374379 Ha       -2072.79303100 eV  <-- do not rely on this value for anything but (periodic) metals
  | Electronic free energy        :         -76.17374379 Ha       -2072.79303100 eV

  Derived energy quantities:
  | Kinetic energy                :          75.82752077 Ha        2063.37182329 eV
  | Electrostatic energy          :        -143.19777067 Ha       -3896.60959723 eV
  | Energy correction for multipole
  | error in Hartree potential    :           0.00622444 Ha           0.16937576 eV
  | Sum of eigenvalues per atom                           :        -310.45549132 eV
  | Total energy (T->0) per atom                          :        -518.19825775 eV  <-- do not rely on this value for anything but (periodic) metals
  | Electronic free energy per atom                       :        -518.19825775 eV

  Self-consistency convergence accuracy:
  | Change of charge density      :  0.5244E-03
  | Change of sum of eigenvalues  :  0.5729E-01 eV
  | Change of total energy        :  0.5004E-05 eV

  End self-consistency iteration #     8       :  max(cpu_time)    wall_clock(cpu1)
  | Time for this iteration                    :        0.059 s           0.059 s
  | Charge density update                      :        0.011 s           0.011 s
  | Density mixing                             :        0.001 s           0.001 s
  | Hartree multipole update                   :        0.002 s           0.002 s
  | Hartree multipole summation                :        0.017 s           0.016 s
  | Integration                                :        0.028 s           0.029 s
  | Solution of K.-S. eqns.                    :        0.000 s           0.000 s
  | Total energy evaluation                    :        0.000 s           0.000 s

  Partial memory accounting:
  | Current value for overall tracked memory usage on task 0  :           0.020 MB
  | Peak value for overall tracked memory usage on task 0     :           0.084 MB after allocating wave
  | Largest tracked array allocation on task 0 so far         :           0.019 MB  when allocating H_times_psi
  Note:  These values currently only include a subset of arrays which are explicitly tracked.
  The "true" memory usage will be greater.
------------------------------------------------------------

------------------------------------------------------------
          Begin self-consistency iteration #    9

  Date     :  20190509, Time     :  114723.472
------------------------------------------------------------
  Evaluating new KS density.
  Integration grid: deviation in total charge (<rho> - N_e) =  -3.552714E-15
  Pulay mixing of updated and previous charge densities.

  Evaluating partitioned Hartree potential by multipole expansion.
  | Analytical far-field extrapolation by fixed multipoles:
  | Hartree multipole sum: apparent total charge =   0.999550E+00
  Summing up the Hartree potential.
  Time summed over all CPUs for potential: real work        0.018 s, elapsed        0.018 s
  | RMS charge density error from multipole expansion :   0.925051E-02

  Integrating Hamiltonian matrix: batch-based integration.
  Time summed over all CPUs for integration: real work        0.030 s, elapsed        0.030 s

  Updating Kohn-Sham eigenvalues, eigenvectors, occupation numbers, and Fermi level.
  Solving generalized eigenproblem
  Updating Kohn-Sham eigenvalues and eigenfunctions.
  Solving real generalised eigenvalue problem by standard LAPACK (fast)

  Obtaining occupation numbers and chemical potential using ELSI.
  | Chemical potential (Fermi level):   -12.14596868eV
  Highest occupied state (VBM) at    -18.67366847 eV
  | Occupation number:      2.00000000

  Lowest unoccupied state (CBM) at    -8.19213759 eV
  | Occupation number:      0.00000000

  Overall HOMO-LUMO gap:     10.48153088 eV.

  Total energy components:
  | Sum of eigenvalues            :         -45.63604815 Ha       -1241.82005327 eV
  | XC energy correction          :          -8.80354260 Ha        -239.55658256 eV
  | XC potential correction       :          11.59553448 Ha         315.53054710 eV
  | Free-atom electrostatic energy:         -35.29824237 Ha        -960.51404528 eV
  | Hartree energy correction     :           1.96855517 Ha          53.56711167 eV
  | Entropy correction            :          -0.00000000 Ha          -0.00000000 eV
  | ---------------------------
  | Total energy                  :         -76.17374347 Ha       -2072.79302235 eV
  | Total energy, T -> 0          :         -76.17374347 Ha       -2072.79302235 eV  <-- do not rely on this value for anything but (periodic) metals
  | Electronic free energy        :         -76.17374347 Ha       -2072.79302235 eV

  Derived energy quantities:
  | Kinetic energy                :          75.82670358 Ha        2063.34958640 eV
  | Electrostatic energy          :        -143.19690445 Ha       -3896.58602619 eV
  | Energy correction for multipole
  | error in Hartree potential    :           0.00620789 Ha           0.16892530 eV
  | Sum of eigenvalues per atom                           :        -310.45501332 eV
  | Total energy (T->0) per atom                          :        -518.19825559 eV  <-- do not rely on this value for anything but (periodic) metals
  | Electronic free energy per atom                       :        -518.19825559 eV

  Self-consistency convergence accuracy:
  | Change of charge density      :  0.2095E-03
  | Change of sum of eigenvalues  :  0.1912E-02 eV
  | Change of total energy        :  0.8650E-05 eV

  End self-consistency iteration #     9       :  max(cpu_time)    wall_clock(cpu1)
  | Time for this iteration                    :        0.062 s           0.062 s
  | Charge density update                      :        0.011 s           0.011 s
  | Density mixing                             :        0.001 s           0.001 s
  | Hartree multipole update                   :        0.001 s           0.002 s
  | Hartree multipole summation                :        0.018 s           0.018 s
  | Integration                                :        0.030 s           0.030 s
  | Solution of K.-S. eqns.                    :        0.000 s           0.000 s
  | Total energy evaluation                    :        0.000 s           0.000 s

  Partial memory accounting:
  | Current value for overall tracked memory usage on task 0  :           0.020 MB
  | Peak value for overall tracked memory usage on task 0     :           0.085 MB after allocating wave
  | Largest tracked array allocation on task 0 so far         :           0.019 MB  when allocating H_times_psi
  Note:  These values currently only include a subset of arrays which are explicitly tracked.
  The "true" memory usage will be greater.
------------------------------------------------------------

------------------------------------------------------------
          Begin self-consistency iteration #   10

  Date     :  20190509, Time     :  114723.534
------------------------------------------------------------
  Evaluating new KS density.
  Integration grid: deviation in total charge (<rho> - N_e) =  -1.421085E-14
  Pulay mixing of updated and previous charge densities.

  Evaluating partitioned Hartree potential by multipole expansion.
  | Analytical far-field extrapolation by fixed multipoles:
  | Hartree multipole sum: apparent total charge =   0.999556E+00
  Summing up the Hartree potential.
  Time summed over all CPUs for potential: real work        0.017 s, elapsed        0.017 s
  | RMS charge density error from multipole expansion :   0.925062E-02

  Integrating Hamiltonian matrix: batch-based integration.
  Time summed over all CPUs for integration: real work        0.030 s, elapsed        0.030 s

  Updating Kohn-Sham eigenvalues, eigenvectors, occupation numbers, and Fermi level.
  Solving generalized eigenproblem
  Updating Kohn-Sham eigenvalues and eigenfunctions.
  Solving real generalised eigenvalue problem by standard LAPACK (fast)

  Obtaining occupation numbers and chemical potential using ELSI.
  | Chemical potential (Fermi level):   -12.14604816eV
  Highest occupied state (VBM) at    -18.67387425 eV
  | Occupation number:      2.00000000

  Lowest unoccupied state (CBM) at    -8.19219577 eV
  | Occupation number:      0.00000000

  Overall HOMO-LUMO gap:     10.48167848 eV.

  Total energy components:
  | Sum of eigenvalues            :         -45.63614189 Ha       -1241.82260403 eV
  | XC energy correction          :          -8.80353313 Ha        -239.55632491 eV
  | XC potential correction       :          11.59552197 Ha         315.53020690 eV
  | Free-atom electrostatic energy:         -35.29824237 Ha        -960.51404528 eV
  | Hartree energy correction     :           1.96865195 Ha          53.56974516 eV
  | Entropy correction            :          -0.00000000 Ha          -0.00000000 eV
  | ---------------------------
  | Total energy                  :         -76.17374346 Ha       -2072.79302216 eV
  | Total energy, T -> 0          :         -76.17374346 Ha       -2072.79302216 eV  <-- do not rely on this value for anything but (periodic) metals
  | Electronic free energy        :         -76.17374346 Ha       -2072.79302216 eV

  Derived energy quantities:
  | Kinetic energy                :          75.82664602 Ha        2063.34802011 eV
  | Electrostatic energy          :        -143.19685635 Ha       -3896.58471735 eV
  | Energy correction for multipole
  | error in Hartree potential    :           0.00620761 Ha           0.16891779 eV
  | Sum of eigenvalues per atom                           :        -310.45565101 eV
  | Total energy (T->0) per atom                          :        -518.19825554 eV  <-- do not rely on this value for anything but (periodic) metals
  | Electronic free energy per atom                       :        -518.19825554 eV

  Self-consistency convergence accuracy:
  | Change of charge density      :  0.2327E-04
  | Change of sum of eigenvalues  : -0.2551E-02 eV
  | Change of total energy        :  0.1891E-06 eV

  End self-consistency iteration #    10       :  max(cpu_time)    wall_clock(cpu1)
  | Time for this iteration                    :        0.063 s           0.063 s
  | Charge density update                      :        0.013 s           0.013 s
  | Density mixing                             :        0.001 s           0.001 s
  | Hartree multipole update                   :        0.002 s           0.002 s
  | Hartree multipole summation                :        0.017 s           0.017 s
  | Integration                                :        0.029 s           0.030 s
  | Solution of K.-S. eqns.                    :        0.000 s           0.000 s
  | Total energy evaluation                    :        0.000 s           0.000 s

  Partial memory accounting:
  | Current value for overall tracked memory usage on task 0  :           0.020 MB
  | Peak value for overall tracked memory usage on task 0     :           0.085 MB after allocating wave
  | Largest tracked array allocation on task 0 so far         :           0.019 MB  when allocating H_times_psi
  Note:  These values currently only include a subset of arrays which are explicitly tracked.
  The "true" memory usage will be greater.
------------------------------------------------------------

------------------------------------------------------------
          Begin self-consistency iteration #   11

  Date     :  20190509, Time     :  114723.597
------------------------------------------------------------
  Evaluating new KS density.
  Integration grid: deviation in total charge (<rho> - N_e) =  -1.776357E-15
  Pulay mixing of updated and previous charge densities.

  Evaluating partitioned Hartree potential by multipole expansion.
  | Analytical far-field extrapolation by fixed multipoles:
  | Hartree multipole sum: apparent total charge =   0.999566E+00
  Summing up the Hartree potential.
  Time summed over all CPUs for potential: real work        0.016 s, elapsed        0.016 s
  | RMS charge density error from multipole expansion :   0.925065E-02

  Integrating Hamiltonian matrix: batch-based integration.
  Time summed over all CPUs for integration: real work        0.029 s, elapsed        0.029 s

  Updating Kohn-Sham eigenvalues, eigenvectors, occupation numbers, and Fermi level.
  Solving generalized eigenproblem
  Updating Kohn-Sham eigenvalues and eigenfunctions.
  Solving real generalised eigenvalue problem by standard LAPACK (fast)

  Obtaining occupation numbers and chemical potential using ELSI.
  | Chemical potential (Fermi level):   -12.14605966eV
  Highest occupied state (VBM) at    -18.67391027 eV
  | Occupation number:      2.00000000

  Lowest unoccupied state (CBM) at    -8.19221067 eV
  | Occupation number:      0.00000000

  Overall HOMO-LUMO gap:     10.48169960 eV.

  Total energy components:
  | Sum of eigenvalues            :         -45.63616623 Ha       -1241.82326642 eV
  | XC energy correction          :          -8.80353186 Ha        -239.55629051 eV
  | XC potential correction       :          11.59552030 Ha         315.53016142 eV
  | Free-atom electrostatic energy:         -35.29824237 Ha        -960.51404528 eV
  | Hartree energy correction     :           1.96867671 Ha          53.57041890 eV
  | Entropy correction            :          -0.00000000 Ha          -0.00000000 eV
  | ---------------------------
[...]
  | Largest tracked array allocation on task 0 so far         :           0.019 MB  when allocating H_times_psi
  Note:  These values currently only include a subset of arrays which are explicitly tracked.
  The "true" memory usage will be greater.
------------------------------------------------------------

------------------------------------------------------------
          Begin self-consistency iteration #   12

  Date     :  20190509, Time     :  114723.657
------------------------------------------------------------
  Evaluating new KS density.
  Integration grid: deviation in total charge (<rho> - N_e) =  -2.486900E-14
  Pulay mixing of updated and previous charge densities.

  Evaluating partitioned Hartree potential by multipole expansion.
  | Analytical far-field extrapolation by fixed multipoles:
  | Hartree multipole sum: apparent total charge =   0.999567E+00
  Summing up the Hartree potential.
  Time summed over all CPUs for potential: real work        0.018 s, elapsed        0.018 s
  | RMS charge density error from multipole expansion :   0.925066E-02

  Integrating Hamiltonian matrix: batch-based integration.
  Time summed over all CPUs for integration: real work        0.028 s, elapsed        0.028 s

  Updating Kohn-Sham eigenvalues, eigenvectors, occupation numbers, and Fermi level.
  Solving generalized eigenproblem
  Updating Kohn-Sham eigenvalues and eigenfunctions.
  Solving real generalised eigenvalue problem by standard LAPACK (fast)

  Obtaining occupation numbers and chemical potential using ELSI.
  | Chemical potential (Fermi level):   -12.14605473eV
  Highest occupied state (VBM) at    -18.67390463 eV
  | Occupation number:      2.00000000

  Lowest unoccupied state (CBM) at    -8.19220793 eV
  | Occupation number:      0.00000000

  Overall HOMO-LUMO gap:     10.48169670 eV.

  Total energy components:
  | Sum of eigenvalues            :         -45.63616335 Ha       -1241.82318814 eV
  | XC energy correction          :          -8.80353236 Ha        -239.55630407 eV
  | XC potential correction       :          11.59552096 Ha         315.53017932 eV
  | Free-atom electrostatic energy:         -35.29824237 Ha        -960.51404528 eV
  | Hartree energy correction     :           1.96867367 Ha          53.57033626 eV
  | Entropy correction            :          -0.00000000 Ha          -0.00000000 eV
  | ---------------------------
  | Total energy                  :         -76.17374345 Ha       -2072.79302191 eV
  | Total energy, T -> 0          :         -76.17374345 Ha       -2072.79302191 eV  <-- do not rely on this value for anything but (periodic) metals
  | Electronic free energy        :         -76.17374345 Ha       -2072.79302191 eV

  Derived energy quantities:
  | Kinetic energy                :          75.82661487 Ha        2063.34717266 eV
  | Electrostatic energy          :        -143.19682596 Ha       -3896.58389050 eV
  | Energy correction for multipole
  | error in Hartree potential    :           0.00620716 Ha           0.16890552 eV
  | Sum of eigenvalues per atom                           :        -310.45579704 eV
  | Total energy (T->0) per atom                          :        -518.19825548 eV  <-- do not rely on this value for anything but (periodic) metals
  | Electronic free energy per atom                       :        -518.19825548 eV

  Self-consistency convergence accuracy:
  | Change of charge density      :  0.6947E-06
  | Change of sum of eigenvalues  :  0.7828E-04 eV
  | Change of total energy        : -0.2383E-07 eV

  Electronic self-consistency reached - switching on the force computation.

  End self-consistency iteration #    12       :  max(cpu_time)    wall_clock(cpu1)
  | Time for this iteration                    :        0.060 s           0.060 s
  | Charge density & force component update    :        0.011 s           0.011 s
  | Density mixing                             :        0.001 s           0.001 s
  | Hartree multipole update                   :        0.001 s           0.001 s
  | Hartree multipole summation                :        0.017 s           0.018 s
  | Integration                                :        0.029 s           0.028 s
  | Solution of K.-S. eqns.                    :        0.000 s           0.001 s
  | Total energy evaluation                    :        0.000 s           0.000 s

  Partial memory accounting:
  | Current value for overall tracked memory usage on task 0  :           0.020 MB
  | Peak value for overall tracked memory usage on task 0     :           0.085 MB after allocating wave
  | Largest tracked array allocation on task 0 so far         :           0.019 MB  when allocating H_times_psi
  Note:  These values currently only include a subset of arrays which are explicitly tracked.
  The "true" memory usage will be greater.
------------------------------------------------------------

------------------------------------------------------------
          Begin self-consistency iteration #   13

  Date     :  20190509, Time     :  114723.717
------------------------------------------------------------
  Evaluating new KS density and force components.
  Integration grid: deviation in total charge (<rho> - N_e) =  -3.552714E-15
  Pulay mixing of updated and previous charge densities.

  Evaluating partitioned Hartree potential by multipole expansion.
  | Analytical far-field extrapolation by fixed multipoles:
  | Hartree multipole sum: apparent total charge =   0.999567E+00
  Summing up the Hartree potential.
  Time summed over all CPUs for potential: real work        0.055 s, elapsed        0.055 s
  | RMS charge density error from multipole expansion :   0.925066E-02

  Integrating Hamiltonian matrix: batch-based integration.
  Time summed over all CPUs for integration: real work        0.028 s, elapsed        0.028 s

  Updating Kohn-Sham eigenvalues, eigenvectors, occupation numbers, and Fermi level.
  Solving generalized eigenproblem
  Updating Kohn-Sham eigenvalues and eigenfunctions.
  Solving real generalised eigenvalue problem by standard LAPACK (fast)

  Obtaining occupation numbers and chemical potential using ELSI.
  | Chemical potential (Fermi level):   -12.14605437eV
  Highest occupied state (VBM) at    -18.67390406 eV
  | Occupation number:      2.00000000

  Lowest unoccupied state (CBM) at    -8.19220765 eV
  | Occupation number:      0.00000000

  Overall HOMO-LUMO gap:     10.48169641 eV.

  Total energy components:
  | Sum of eigenvalues            :         -45.63616309 Ha       -1241.82318090 eV
  | XC energy correction          :          -8.80353240 Ha        -239.55630496 eV
  | XC potential correction       :          11.59552100 Ha         315.53018049 eV
  | Free-atom electrostatic energy:         -35.29824237 Ha        -960.51404528 eV
  | Hartree energy correction     :           1.96867340 Ha          53.57032873 eV
  | Entropy correction            :          -0.00000000 Ha          -0.00000000 eV
  | ---------------------------
  | Total energy                  :         -76.17374345 Ha       -2072.79302191 eV
  | Total energy, T -> 0          :         -76.17374345 Ha       -2072.79302191 eV  <-- do not rely on this value for anything but (periodic) metals
  | Electronic free energy        :         -76.17374345 Ha       -2072.79302191 eV

  Derived energy quantities:
  | Kinetic energy                :          75.82661506 Ha        2063.34717774 eV
  | Electrostatic energy          :        -143.19682612 Ha       -3896.58389469 eV
  | Energy correction for multipole
  | error in Hartree potential    :           0.00620716 Ha           0.16890554 eV
  | Sum of eigenvalues per atom                           :        -310.45579523 eV
  | Total energy (T->0) per atom                          :        -518.19825548 eV  <-- do not rely on this value for anything but (periodic) metals
  | Electronic free energy per atom                       :        -518.19825548 eV

  atomic forces [eV/Ang]:
  -----------------------
  atom #    1
   Hellmann-Feynman              : -0.165322E-12  0.403545E-01 -0.884448E+01
   Ionic forces                  :  0.000000E+00  0.000000E+00  0.000000E+00
   Multipole                     : -0.290993E-14 -0.180013E-03 -0.326285E+00
   Pulay                         :  0.575069E-12 -0.116973E-01  0.918002E+01
   ----------------------------------------------------------------
   Total forces(   1)            :  0.406837E-12  0.284773E-01  0.926091E-02
  atom #    2
   Hellmann-Feynman              :  0.207027E+00 -0.122635E+00  0.134142E+00
   Ionic forces                  :  0.000000E+00  0.000000E+00  0.000000E+00
   Multipole                     :  0.498000E-01 -0.288321E-01  0.628499E-01
   Pulay                         : -0.257274E+00  0.148584E+00 -0.196611E+00
   ----------------------------------------------------------------
   Total forces(   2)            : -0.446644E-03 -0.288314E-02  0.380810E-03
  atom #    3
   Hellmann-Feynman              : -0.207027E+00 -0.122635E+00  0.134142E+00
   Ionic forces                  :  0.000000E+00  0.000000E+00  0.000000E+00
   Multipole                     : -0.498000E-01 -0.288321E-01  0.628499E-01
   Pulay                         :  0.257274E+00  0.148584E+00 -0.196611E+00
   ----------------------------------------------------------------
   Total forces(   3)            :  0.446644E-03 -0.288314E-02  0.380810E-03
  atom #    4
   Hellmann-Feynman              :  0.538485E-14  0.216076E+00  0.126094E+00
   Ionic forces                  :  0.000000E+00  0.000000E+00  0.000000E+00
   Multipole                     : -0.394805E-15  0.572752E-01  0.627498E-01
   Pulay                         : -0.105593E-12 -0.295891E+00 -0.196953E+00
   ----------------------------------------------------------------
   Total forces(   4)            : -0.100603E-12 -0.225395E-01 -0.810869E-02


  Self-consistency convergence accuracy:
  | Change of charge density      :  0.3543E-07
  | Change of sum of eigenvalues  :  0.7244E-05 eV
  | Change of total energy        : -0.1281E-08 eV
  | Change of forces              :  0.4595E+01 eV/A

  Writing Kohn-Sham eigenvalues.

  State    Occupation    Eigenvalue [Ha]    Eigenvalue [eV]
      1       2.00000         -19.024246         -517.67606
      2       2.00000          -1.348489          -36.69426
      3       2.00000          -0.879668          -23.93698
      4       2.00000          -0.879425          -23.93038
      5       2.00000          -0.686253          -18.67390
      6       0.00000          -0.301058           -8.19221
      7       0.00000          -0.207267           -5.64002
      8       0.00000          -0.207007           -5.63295
      9       0.00000           0.016546            0.45024
     10       0.00000           0.052501            1.42863
     11       0.00000           0.052508            1.42882
     12       0.00000           0.240687            6.54943
     13       0.00000           0.467307           12.71608

  Highest occupied state (VBM) at    -18.67390406 eV
  | Occupation number:      2.00000000

  Lowest unoccupied state (CBM) at    -8.19220765 eV
  | Occupation number:      0.00000000

  Overall HOMO-LUMO gap:     10.48169641 eV.

  Self-consistency cycle converged.

  End self-consistency iteration #    13       :  max(cpu_time)    wall_clock(cpu1)
  | Time for this iteration                    :        0.126 s           0.126 s
  | Charge density & force component update    :        0.041 s           0.041 s
  | Density mixing                             :        0.001 s           0.001 s
  | Hartree multipole update                   :        0.002 s           0.001 s
  | Hartree multipole summation                :        0.055 s           0.055 s
  | Integration                                :        0.028 s           0.028 s
  | Solution of K.-S. eqns.                    :        0.000 s           0.000 s
  | Total energy evaluation                    :        0.000 s           0.000 s

  Partial memory accounting:
  | Current value for overall tracked memory usage on task 0  :           0.020 MB
  | Peak value for overall tracked memory usage on task 0     :           0.116 MB after allocating h_times_wave
  | Largest tracked array allocation on task 0 so far         :           0.058 MB  when allocating gradient_basis_wave
  Note:  These values currently only include a subset of arrays which are explicitly tracked.
  The "true" memory usage will be greater.
------------------------------------------------------------
  ------------------------------------------------------------
   Computing monopole / dipole moments for complete molecule:
  | Total electronic charge [e]         :          0.100000000090961E+02
  | Total ionic charge [e]              :          0.110000000000000E+02
  | Total charge [e]                    :          0.999999990903856E+00
 * Warning: The system has a total charge of      0.99999999 .
 * The dipole moment depends on the choice of the origin.
  | Total dipole moment [eAng]          :         -0.134195290336719E-14         0.201769108482794E-04         0.588529507396758E+00
  | Absolute dipole moment              :          0.588529507742627E+00 eAng              /                   0.282638714112818E+01 Debye  .
  Removing unitary transformations (pure translations, rotations) from forces on atoms.
  Atomic forces before filtering:
  | Net force on center of mass :   0.296789E-12  0.171436E-03  0.191384E-02 eV/A
  | Net torque on center of mass:   0.309850E-04 -0.738641E-13  0.828264E-13 eV
  Atomic forces after filtering:
  | Net force on center of mass :  -0.346372E-19  0.278760E-17  0.000000E+00 eV/A
  | Net torque on center of mass:  -0.184392E-17 -0.529915E-19 -0.417232E-19 eV

  Energy and forces in a compact form:
  | Total energy uncorrected      :         -0.207279302191446E+04 eV
  | Total energy corrected        :         -0.207279302191446E+04 eV  <-- do not rely on this value for anything but (periodic) metals
  | Electronic free energy        :         -0.207279302191446E+04 eV
  Total atomic forces (unitary forces cleaned) [eV/Ang]:
  |   1          0.321557067318723E-12          0.284297516357032E-01          0.878245178899458E-02
  |   2         -0.446643955968687E-03         -0.292446600841508E-02         -0.872611523740791E-04
  |   3          0.446643955789190E-03         -0.292446600835469E-02         -0.872611522631102E-04
  |   4         -0.142059656804276E-12         -0.225808196189334E-01         -0.860792948435739E-02

  ------------------------------------ 
  Start decomposition of the XC Energy 
  ------------------------------------ 
  X and C from original XC functional choice 
  Hartree-Fock Energy :          0.000000000 Ha              0.000000000 eV
  X Energy            :         -8.139914066 Ha           -221.498331450 eV
  C Energy            :         -0.663618329 Ha            -18.057973512 eV
  Total XC Energy     :         -8.803532395 Ha           -239.556304962 eV
  ------------------------------------ 
  LDA X and C from self-consistent density 
  X Energy LDA        :         -8.139914066 Ha           -221.498331450 eV
  C Energy LDA        :         -0.663618329 Ha            -18.057973512 eV
  ------------------------------------ 
  End decomposition of the XC Energy 
  ------------------------------------ 

------------------------------------------------------------

------------------------------------------------------------------------------
  Final output of selected total energy values:

  The following output summarizes some interesting total energy values
  at the end of a run (AFTER all relaxation, molecular dynamics, etc.).

  | Total energy of the DFT / Hartree-Fock s.c.f. calculation      :          -2072.793021914 eV
  | Final zero-broadening corrected energy (caution - metals only) :          -2072.793021914 eV
  | For reference only, the value of 1 Hartree used in FHI-aims is :             27.211384500 eV

  Before relying on these values, please be sure to understand exactly which
  total energy value is referred to by a given number. Different objects may
  all carry the same name 'total energy'. Definitions:

  Total energy of the DFT / Hartree-Fock s.c.f. calculation:
  | Note that this energy does not include ANY quantities calculated after the
  | s.c.f. cycle, in particular not ANY RPA, MP2, etc. many-body perturbation terms.

  Final zero-broadening corrected energy:
  | For metallic systems only, a broadening of the occupation numbers at the Fermi
  | level can be extrapolated back to zero broadening by an electron-gas inspired
  | formula. For all systems that are not real metals, this value can be
  | meaningless and should be avoided.

------------------------------------------------------------------------------
  Methods described in the following list of references were used in this FHI-aims run.
  If you publish the results, please make sure to cite these reference if they apply.
  FHI-aims is an academic code, and for our developers (often, Ph.D. students
  and postdocs), scientific credit in the community is essential.
  Thank you for helping us!

  For any use of FHI-aims, please cite:

    Volker Blum, Ralf Gehrke, Felix Hanke, Paula Havu, Ville Havu,
    Xinguo Ren, Karsten Reuter, and Matthias Scheffler
    'Ab initio molecular simulations with numeric atom-centered orbitals'
    Computer Physics Communications 180, 2175-2196 (2009)
    http://dx.doi.org/10.1016/j.cpc.2009.06.022


  For the real-space grid partitioning and parallelization used in this calculation, please cite:

    Ville Havu, Volker Blum, Paula Havu, and Matthias Scheffler,
    'Efficient O(N) integration for all-electron electronic structure calculation'
    'using numerically tabulated basis functions'
    Journal of Computational Physics 228, 8367-8379 (2009).
    http://dx.doi.org/10.1016/j.jcp.2009.08.008

  Of course, there are many other important community references, e.g., those cited in the
  above references. Our list is limited to references that describe implementations in the
  FHI-aims code. The reason is purely practical (length of this list) - please credit others as well.

------------------------------------------------------------
          Leaving FHI-aims.
          Date     :  20190509, Time     :  114723.857

          Computational steps:
          | Number of self-consistency cycles          :           13
          | Number of SCF (re)initializations          :            1

          Detailed time accounting                     :  max(cpu_time)    wall_clock(cpu1)
          | Total time                                 :        1.001 s           1.001 s
          | Preparation time                           :        0.053 s           0.053 s
          | Boundary condition initalization           :        0.000 s           0.000 s
          | Grid partitioning                          :        0.014 s           0.014 s
          | Preloading free-atom quantities on grid    :        0.001 s           0.000 s
          | Free-atom superposition energy             :        0.012 s           0.013 s
          | Total time for integrations                :        0.421 s           0.421 s
          | Total time for solution of K.-S. equations :        0.003 s           0.005 s
          | Total time for density & force components  :        0.180 s           0.177 s
          | Total time for mixing                      :        0.009 s           0.011 s
          | Total time for Hartree multipole update    :        0.020 s           0.020 s
          | Total time for Hartree multipole sum       :        0.258 s           0.258 s
          | Total time for total energy evaluation     :        0.001 s           0.000 s

 This is a stub MPI_ALLREDUCE call.
 You should not be here. Check your
 setting on the use_mpi variable, or
 link against true MPI-libraries.
