------------------------------------------------------------
          Invoking FHI-aims ...
          Version 171221_1
          Compiled on 2019/05/06 at 14:26:40 on host ffph0xx.

          When using FHI-aims, please cite the following reference:

          Volker Blum, Ralf Gehrke, Felix Hanke, Paula Havu,
          Ville Havu, Xinguo Ren, Karsten Reuter, and Matthias Scheffler,
          'Ab Initio Molecular Simulations with Numeric Atom-Centered Orbitals',
          Computer Physics Communications 180, 2175-2196 (2009)

          For any questions about FHI-aims, please visit the aimsclub website
          with its forums and wiki. Contributions to both the forums and the
          wiki are warmly encouraged - they are for you, and everyone is welcome there.

------------------------------------------------------------



  Date     :  20190509, Time     :  175202.530
  Time zero on CPU 1             :   0.697000000000000E-03  s.
  Internal wall clock time zero  :           326656322.530  s.

  FHI-aims created a unique identifier for this run for later identification
  aims_uuid : 38D2C33C-21A1-4BB5-A845-E58719D8527F


  Performing system and environment tests:
  *** Environment variable OMP_NUM_THREADS is not set
  *** For performance reasons you might want to set it to 1
  | Stacksize not measured: no C compiler

  Obtaining array dimensions for all initial allocations:
  
  -----------------------------------------------------------------------
  Parsing control.in (first pass over file, find array dimensions only).
  The contents of control.in will be repeated verbatim below
  unless switched off by setting 'verbatim_writeout .false.' .
  in the first line of control.in .
  -----------------------------------------------------------------------
  
  #--- method ---
  xc pw-lda
  spin none
  relativistic atomic_zora scalar
  #---
  
  #--- k-grid settings ---
  k_grid 3 3 3
  #---
  
  
  
  
  
  
  
  
  
  
  
  #-------------------------------------------------------------------------------
  #--- Species defaults for Si
  #-------------------------------------------------------------------------------
  
  ################################################################################
  #
  #  FHI-aims code project
  #  VB, Fritz-Haber Institut, 2009
  #
  #  Suggested "light" defaults for Si atom (to be pasted into control.in file)
  #  Be sure to double-check any results obtained with these settings for post-processing,
  #  e.g., with the "tight" defaults and larger basis sets.
  #
  ################################################################################
    species        Si
  #     global species definitions
      nucleus             14
      mass                28.0855
  #
      l_hartree           4
  #
      cut_pot             3.5          1.5  1.0
      basis_dep_cutoff    1e-4
  #
      radial_base         42 5.0
      radial_multiplier   1
      angular_grids       specified
        division   0.5866   50
        division   0.9616  110
        division   1.2249  194
        division   1.3795  302
  #      division   1.4810  434
  #      division   1.5529  590
  #      division   1.6284  770
  #      division   1.7077  974
  #      division   2.4068 1202
  #      outer_grid   974
        outer_grid 302
  ################################################################################
  #
  #  Definition of "minimal" basis
  #
  ################################################################################
  #     valence basis states
      valence      3  s   2.
      valence      3  p   2.
  #     ion occupancy
      ion_occ      3  s   1.
      ion_occ      3  p   1.
  ################################################################################
  #
  #  Suggested additional basis functions. For production calculations,
  #  uncomment them one after another (the most important basis functions are
  #  listed first).
  #
  #  Constructed for dimers: 1.75 A, 2.0 A, 2.25 A, 2.75 A, 3.75 A
  #
  ################################################################################
  #  "First tier" - improvements: -571.96 meV to -37.03 meV
       hydro 3 d 4.2
       hydro 2 p 1.4
  #     hydro 4 f 6.2
       ionic 3 s auto
  #  "Second tier" - improvements: -16.76 meV to -3.03 meV
  #     hydro 3 d 9
  #     hydro 5 g 9.4
  #     hydro 4 p 4
  #     hydro 1 s 0.65
  #  "Third tier" - improvements: -3.89 meV to -0.60 meV
  #     ionic 3 d auto
  #     hydro 3 s 2.6
  #     hydro 4 f 8.4
  #     hydro 3 d 3.4
  #     hydro 3 p 7.8
  #  "Fourth tier" - improvements: -0.33 meV to -0.11 meV
  #     hydro 2 p 1.6
  #     hydro 5 g 10.8
  #     hydro 5 f 11.2
  #     hydro 3 d 1
  #     hydro 4 s 4.5
  #  Further basis functions that fell out of the optimization - noise
  #  level... < -0.08 meV
  #     hydro 4 d 6.6
  #     hydro 5 g 16.4
  #     hydro 4 d 9
  
  -----------------------------------------------------------------------
  Completed first pass over input file control.in .
  -----------------------------------------------------------------------
  
  
  -----------------------------------------------------------------------
  Parsing geometry.in (first pass over file, find array dimensions only).
  The contents of geometry.in will be repeated verbatim below
  unless switched off by setting 'verbatim_writeout .false.' .
  in the first line of geometry.in .
  -----------------------------------------------------------------------
  
  lattice_vector   0.000000   2.850000   2.850000
  lattice_vector   2.850000   0.000000   2.850000
  lattice_vector   2.850000   2.850000   0.000000
  atom_frac   0.000000   0.000000   0.000000 Si
  atom_frac   0.250000   0.250000   0.250000 Si
  
  -----------------------------------------------------------------------
  Completed first pass over input file geometry.in .
  -----------------------------------------------------------------------
  

  Basic array size parameters:
  | Number of species                 :        1
  | Number of atoms                   :        2
  | Number of lattice vectors         :        3
  | Max. basis fn. angular momentum   :        2
  | Max. atomic/ionic basis occupied n:        3
  | Max. number of basis fn. types    :        3
  | Max. radial fns per species/type  :        5
  | Max. logarithmic grid size        :     1346
  | Max. radial integration grid size :       42
  | Max. angular integration grid size:      302
  | Max. angular grid division number :        8
  | Radial grid for Hartree potential :     1346
  | Number of spin channels           :        1

------------------------------------------------------------
          Reading file control.in.
------------------------------------------------------------
  XC: Using Perdew-Wang parametrisation of Ceperley-Alder LDA.
  Spin treatment: No spin polarisation.
  Scalar relativistic treatment of kinetic energy: on-site free-atom approximation to ZORA.
  Found k-point grid:         3         3         3

  Reading configuration options for species Si                  .
  | Found nuclear charge :  14.0000
  | Found atomic mass :    28.085500000000000      amu
  | Found l_max for Hartree potential  :   4
  | Found cutoff potl. onset [A], width [A], scale factor :    3.50000    1.50000    1.00000
  | Threshold for basis-dependent cutoff potential is   0.100000E-03
  | Found data for basic radial integration grid :    42 points, outermost radius =    5.000 A
  | Found multiplier for basic radial grid :   1
  | Found angular grid specification: user-specified.
  | Specified grid contains     5 separate shells.
  | Check grid settings after all constraints further below.
  | Found free-atom valence shell :  3 s   2.000
  | Found free-atom valence shell :  3 p   2.000
  | Found free-ion valence shell :  3 s   1.000
  | Found free-ion valence shell :  3 p   1.000
  | Found hydrogenic basis function :  3 d   4.200
  | Found hydrogenic basis function :  2 p   1.400
  | Found ionic basis function :  3 s , default cutoff radius.
  Species Si                  : Missing cutoff potential type.
  Defaulting to exp(1/x)/(1-x)^2 type cutoff potential.
  Species Si: No 'logarithmic' tag. Using default grid for free atom:
  | Default logarithmic grid data [bohr] : 0.1000E-03 0.1000E+03 0.1012E+01
  | Will include ionic basis functions of  2.0-fold positive Si                   ion.
  Species Si: On-site basis accuracy parameter (for Gram-Schmidt orthonormalisation) not specified.
  Using default value basis_acc =  0.1000000E-03.
  Species Si                  : Using default innermost maximum threshold i_radial=  2 for radial functions.
  Species Si                  : Default cutoff onset for free atom density etc. : 0.35000000E+01 AA.
  Species Si                  : Basic radial grid will be enhanced according to radial_multiplier =   1, to contain    42 grid points.

  Finished reading input file 'control.in'. Consistency checks are next.

  MPI_IN_PLACE appears to work with this MPI implementation.
  | Keeping use_mpi_in_place .true. (see manual).
  Target number of points in a grid batch is not set. Defaulting to  100
  Method for grid partitioning is not set. Defaulting to 'maxmin' partitioning.
  Batch size limit is not set. Defaulting to    200
  By default, will store active basis functions for each batch.
  If in need of memory, prune_basis_once .false. can be used to disable this option.
  communication_type for Hartree potential was not specified.
  Defaulting to calc_hartree .
 * Attention: 
 * You may want to set distributed_spline_storage to .true. in order to save memory.
 * This doesn't harm performance and is perfectly ok unless:
 * - you get error messages in postprocessing (about missing atoms in get_rho_multipole_spl)
 * - you need full spline storage in hirshfeld_analysis
  Defaulting to Pulay charge density mixer.
  Pulay mixer: Number of relevant iterations not set.
  Defaulting to    8 iterations.
  Pulay mixer: Number of initial linear mixing iterations not set.
  Defaulting to    0 iterations.
  Work space size for distributed Hartree potential not set.
  Defaulting to   0.200000E+03 MB.
  Mixing parameter for charge density mixing has not been set.
  Using default: charge_mix_param =     0.0500.
  The mixing parameter will be adjusted in iteration number     2 of the first full s.c.f. cycle only.
  Algorithm-dependent basis array size parameters:
  | n_max_pulay                         :        8
 * Notice: The s.c.f. convergence criterion sc_accuracy_rho was not provided.
 * We used to stop in this case, and ask the user to provide reasonable
 * scf convergence criteria. However, this led some users to employ criteria
 * that led to extremely long run times, e.g., for simple relaxation.
 * We now preset a default value for sc_accuracy_rho if it is not set.
 * You may still wish to check if this setting is too tight or too loose for your needs.
 * Based on n_atoms, FHI-aims chose sc_accuracy_rho =  0.100000E-05 .
  Maximum number of self-consistency iterations not provided.
  Presetting  1000 iterations.
  Presetting      1001 iterations before the initial mixing cycle
  is restarted anyway using the sc_init_iter criterion / keyword.
  Presetting a factor      1.000 between actual scf density residual
  and density convergence criterion sc_accuracy_rho below which sc_init_iter
  takes no effect.
 * No s.c.f. convergence criteria (sc_accuracy_*) were provided in control.in.
 * The run will proceed with a reasonable default guess, but please check whether.
 * the s.c.f. cycles seem to take too much or too little time.
  Calculation of forces was not defined in control.in. No forces will be calculated.
  Geometry relaxation not requested: no relaxation will be performed.
  No accuracy limit for integral partition fn. given. Defaulting to  0.1000E-14.
  No threshold value for u(r) in integrations given. Defaulting to  0.1000E-05.
  No occupation type (smearing scheme) given. Defaulting to Gaussian broadening, width =  0.1000E-01 eV.
  The width will be adjusted in iteration number     2 of the first full s.c.f. cycle only.
  S.C.F. convergence parameters will be adjusted in iteration number     2 of the first full s.c.f. cycle only.
  No accuracy for occupation numbers given. Defaulting to  0.1000E-12.
  No threshold value for occupation numbers given. Defaulting to  0.0000E+00.
  No accuracy for fermi level given. Defaulting to  0.1000E-19.
  Maximum # of iterations to find E_F not set. Defaulting to  200.
  Preferred method for the eigenvalue solver ('KS_method') not specified in 'control.in'.
  Defaulting to serial version, 'lapack_fast'.
  Will not use alltoall communication since running on < 1024 CPUs.
  Threshold for basis singularities not set.
  Default threshold for basis singularities:  0.1000E-04
  partition_type (choice of integration weights) for integrals was not specified.
  | Using a version of the partition function of Stratmann and coworkers ('stratmann_smoother').
  | At each grid point, the set of atoms used to build the partition table is smoothly restricted to
  | only those atoms whose free-atom density would be non-zero at that grid point.
  Partitioning for Hartree potential was not defined. Using partition_type for integrals.
  | Adjusted default value of keyword multip_moments_threshold to:       0.10000000E-11
  | This value may affect high angular momentum components of the Hartree potential in periodic systems.
  Angular momentum expansion for Kerker preconditioner not set explicitly.
  | Using default value of   0
  No explicit requirement for turning off preconditioner.
  | By default, it will be turned off when the charge convergence reaches
  | sc_accuracy_rho  =   0.100000E-05
  No special mixing parameter while Kerker preconditioner is on.
  Using default: charge_mix_param =     0.0500.
  No q(lm)/r^(l+1) cutoff set for long-range Hartree potential.
  | Using default value of  0.100000E-09 .
  | Verify using the multipole_threshold keyword.
  Defaulting to new monopole extrapolation.
  Density update method: automatic selection selected.
  Using density matrix based charge density update.
  Using density matrix based charge density update.
  Using packed matrix style: index .
  Defaulting to use time-reversal symmetry for k-point grid.
------------------------------------------------------------


------------------------------------------------------------
          Reading geometry description geometry.in.
------------------------------------------------------------
  Input structure read successfully.
  The structure contains        2 atoms,  and a total of         28.000 electrons.

  Input geometry:
  | Unit cell:
  |        0.00000000        2.85000000        2.85000000
  |        2.85000000        0.00000000        2.85000000
  |        2.85000000        2.85000000        0.00000000
  | Atomic structure:
  |       Atom                x [A]            y [A]            z [A]
  |    1: Species Si            0.00000000        0.00000000        0.00000000
  |    2: Species Si            1.42500000        1.42500000        1.42500000

  Lattice parameters for 3D lattice (in Angstroms) :     4.030509    4.030509    4.030509
  Angle(s) between unit vectors (in degrees)      :    60.000000   60.000000   60.000000

  |

  | The smallest distance between any two atoms is         2.46817240 AA.
  |
  | The first atom of this pair is atom number                      1 .
  | The second atom of this pair is atom number                     2 .
  | Wigner-Seitz cell of the first atom image           0     0     0 .
  | (The Wigner-Seitz cell of the second atom is 0 0 0  by definition.)

  Quantities derived from the lattice vectors:
  | Reciprocal lattice vector 1: -1.102313  1.102313  1.102313
  | Reciprocal lattice vector 2:  1.102313 -1.102313  1.102313
  | Reciprocal lattice vector 3:  1.102313  1.102313 -1.102313
  | Unit cell volume                               :   0.462982E+02  A^3

  Range separation radius for Ewald summation (hartree_convergence_parameter):      4.10030792 bohr.

  Fractional coordinates:
                         L1                L2                L3
       atom_frac         0.00000000        0.00000000        0.00000000  Si
       atom_frac         0.25000000        0.25000000        0.25000000  Si

  Number of empty states per atom not set in control.in - providing a guess from actual geometry.
  | Total number of empty states used during s.c.f. cycle:        6
  If you use a very high smearing, use empty_states (per atom!) in control.in to increase this value.

  Structure-dependent array size parameters: 
  | Maximum number of distinct radial functions  :        8
  | Maximum number of basis functions            :       36
  | Number of Kohn-Sham states (occupied + empty):       20
------------------------------------------------------------

------------------------------------------------------------
          Preparing all fixed parts of the calculation.
------------------------------------------------------------
  Determining machine precision:
     2.2250738585072014E-308
  Setting up grids for atomic and cluster calculations.

  Creating wave function, potential, and density for free atoms.

  Species: Si

  List of occupied orbitals and eigenvalues:
    n    l              occ      energy [Ha]    energy [eV]
    1    0           2.0000       -65.491668     -1782.1190
    2    0           2.0000        -5.087967      -138.4506
    3    0           2.0000        -0.391471       -10.6525
    2    1           6.0000        -3.502246       -95.3010
    3    1           2.0000        -0.143943        -3.9169

  Creating fixed part of basis set: Ionic, confined, hydrogenic.

  Si                   ion:

  List of free ionic orbitals and eigenvalues:
    n    l      energy [Ha]    energy [eV]
    1    0       -66.364436     -1805.8682
    2    0        -5.935799      -161.5213
    3    0        -1.078166       -29.3384
    2    1        -4.351123      -118.4001
    3    1        -0.781733       -21.2720


  List of ionic basis orbitals and eigenvalues:
    n    l      energy [Ha]    energy [eV]    outer radius [A]
    3    0        -1.078146       -29.3378       4.214062


  Si                   hydrogenic:

  List of hydrogenic basis orbitals: 
    n    l      effective z      eigenvalue [eV]  inner max. [A]     outer max. [A]     outer radius [A]   
    3    2         4.200000       -26.6624           1.139231           1.139231           4.534782
    2    1         1.400000        -6.4613           1.472672           1.472672           4.590560


  Adding cutoff potential to free-atom effective potential.
  Creating atomic-like basis functions for current effective potential.

  Species Si                  :

  List of atomic basis orbitals and eigenvalues:
    n    l      energy [Ha]    energy [eV]    outer radius [A]
    1    0       -65.491668     -1782.1190       0.789468
    2    0        -5.087967      -138.4506       2.815114
    3    0        -0.391471       -10.6525       4.534782
    2    1        -3.502246       -95.3010       3.259919
    3    1        -0.143943        -3.9169       4.590560

  Assembling full basis from fixed parts.
  | Species Si :   atomic orbital   1 s accepted.
  | Species Si :   atomic orbital   2 s accepted.
  | Species Si :    ionic orbital   3 s accepted.
  | Species Si :   atomic orbital   3 s accepted.
  | Species Si :   atomic orbital   2 p accepted.
  | Species Si :   atomic orbital   3 p accepted.
  | Species Si :    hydro orbital   2 p accepted.
  | Species Si :    hydro orbital   3 d accepted.

  Basis size parameters after reduction:
  | Total number of radial functions:        8
  | Total number of basis functions :       36

  Per-task memory consumption for arrays in subroutine allocate_ext:
  |           2.757868MB.
  Testing on-site integration grid accuracy.
  |  Species  Function  <phi|h_atom|phi> (log., in eV)  <phi|h_atom|phi> (rad., in eV)
           1        1              -1782.1189727076              -1782.1182429251
           1        2               -138.4506350693               -138.4506310079
           1        3                -10.3030408815                -10.3029120678
           1        4                  5.0238999146                  4.9457540310 ***
           1        5                -95.3009689499                -95.3009689315
           1        6                 -3.9266496564                 -3.9420918374
           1        7                  6.3453628447                  6.1632372158 ***
           1        8                  6.2883050744                  6.2861881409
 * Note: Onsite integrals marked "***" above are less accurate than
 * onsite_accuracy_threshold =    0.03000 eV. Usually, this is harmless.
 * When in doubt, tighten the "radial" and/or "radial_multiplier" flags to check.

  Preparing densities etc. for the partition functions (integrals / Hartree potential).

  Preparations completed.
  max(cpu_time)          :      0.096 s.
  Wall clock time (cpu1) :      0.096 s.
------------------------------------------------------------

------------------------------------------------------------
          Begin self-consistency loop: Initialization.

          Date     :  20190509, Time     :  175202.627
------------------------------------------------------------

  Initializing index lists of integration centers etc. from given atomic structure:
  Mapping all atomic coordinates to central unit cell.

  Initializing the k-points
          Using symmetry for reducing the k-points
  | k-points reduced from:       27 to       14
  | Number of k-points                             :        14
  The eigenvectors in the calculations are COMPLEX.
  | K-points in task   0:        14
  | Number of basis functions in the Hamiltonian integrals :      1142
  | Number of basis functions in a single unit cell        :        36
  | Number of centers in hartree potential         :       708
  | Number of centers in hartree multipole         :       288
  | Number of centers in electron density summation:       190
  | Number of centers in basis integrals           :       191
  | Number of centers in integrals                 :       101
  | Number of centers in hamiltonian               :       190
  | Consuming         24 KiB for k_phase.
  | Number of super-cells (origin) [n_cells]                     :        2197
  | Number of super-cells (after PM_index) [n_cells]             :         112
  | Number of super-cells in hamiltonian [n_cells_in_hamiltonian]:         112
  | Size of matrix packed + index [n_hamiltonian_matrix_size] :       39507
  Partitioning the integration grid into batches with maxmin method.
  | Maximal weight for a single point:     1.000
  | Minimal weight for a single point:     0.661
  | Number of batches:      128
  | Maximal batch size:      92
  | Minimal batch size:      85
  | Average batch size:      87.562
  | Standard deviation of batch sizes:       1.555
  Initializing partition tables, free-atom densities, potentials, etc. across the integration grid (initialize_grid_storage).
  | initialize_grid_storage: Actual outermost partition radius vs. multipole_radius_free
  | (-- VB: in principle, multipole_radius_free should be larger, hence this output)
  | Species        1: Confinement radius =              4.999999999999999 AA, multipole_radius_free =              5.000694715736543 AA.
  | Species        1: outer_partition_radius set to              5.000694715736543 AA .
  | Original list of interatomic distances with         191 x        191 entries is created.
  | Net number of integration points:    11208
  | of which are non-zero points    :     9924
  | Numerical average free-atom electrostatic potential    :    -11.36539962 eV
  Renormalizing the initial density to the exact electron count on the 3D integration grid.
  | Initial density: Formal number of electrons (from input files) :      28.0000000000
  | Integrated number of electrons on 3D grid     :      28.0034295986
  | Charge integration error                      :       0.0034295986
  | Normalization factor for density and gradient :       0.9998775293
  Obtaining max. number of non-zero basis functions in each batch (get_n_compute_maxes).
  | Maximal number of non-zero basis functions:      421 in task     0
  Allocating        0.161 MB for KS_eigenvector_complex
  Integrating Hamiltonian matrix: batch-based integration.
  Time summed over all CPUs for integration: real work        0.460 s, elapsed        0.460 s
  Integrating overlap matrix.
  Time summed over all CPUs for integration: real work        0.330 s, elapsed        0.330 s
  Decreasing sparse matrix size:
   Tolerance:   9.9999998245167004E-014
   Hamiltonian matrix
  | Array has    32579 nonzero elements out of    39507 elements
  | Sparsity factor is 0.175
   Overlap matrix
  | Array has    30800 nonzero elements out of    39507 elements
  | Sparsity factor is 0.220
  New size of hamiltonian matrix:       32835

  Updating Kohn-Sham eigenvalues, eigenvectors, occupation numbers, and Fermi level.
  Solving generalized eigenproblem
  Transforming overlap matrix and checking for singularities.
  Overlap matrix is nonsingular at first k-point:
  | Lowest eigenvalue:  0.741564E-02

  Obtaining occupation numbers and chemical potential using ELSI.
  | Chemical potential (Fermi level):    -5.33827353eV
  Writing Kohn-Sham eigenvalues.
  K-point:       1 at    0.000000    0.000000    0.000000 (in units of recip. lattice)

  State    Occupation    Eigenvalue [Ha]    Eigenvalue [eV]
      1       2.00000         -65.506010        -1782.50921
      2       2.00000         -65.506010        -1782.50921
      3       2.00000          -5.105857         -138.93744
      4       2.00000          -5.105711         -138.93347
      5       2.00000          -3.520122          -95.78740
      6       2.00000          -3.520122          -95.78740
      7       2.00000          -3.520122          -95.78740
      8       2.00000          -3.519772          -95.77786
      9       2.00000          -3.519772          -95.77786
     10       2.00000          -3.519772          -95.77786
     11       2.00000          -0.624171          -16.98456
     12       2.00000          -0.222575           -6.05656
     13       2.00000          -0.222575           -6.05656
     14       2.00000          -0.222575           -6.05656
     15       0.00000          -0.159737           -4.34668
     16       0.00000          -0.124244           -3.38086
     17       0.00000          -0.124244           -3.38086
     18       0.00000          -0.124244           -3.38086
     19       0.00000           0.073714            2.00586
     20       0.00000           0.073714            2.00586

  What follows are estimated values for band gap, HOMO, LUMO, etc.
  | They are estimated on a discrete k-point grid and not necessarily exact.
  | For converged numbers, create a DOS and/or band structure plot on a denser k-grid.

  Highest occupied state (VBM) at     -6.05656042 eV (relative to internal zero)
  | Occupation number:      2.00000000
  | K-point:       1 at    0.000000    0.000000    0.000000 (in units of recip. lattice)

  Lowest unoccupied state (CBM) at    -4.96730861 eV (relative to internal zero)
  | Occupation number:      0.00000000
  | K-point:       9 at    0.333333    0.333333    0.000000 (in units of recip. lattice)

  ESTIMATED overall HOMO-LUMO gap:      1.08925182 eV between HOMO at k-point 1 and LUMO at k-point 9
  | This appears to be an indirect band gap.
  | Smallest direct gap :      1.70988216 eV for k_point 1 at    0.333333    0.333333    0.000000 (in units of recip. lattice)
  The gap value is above 0.2 eV. Unless you are using a very sparse k-point grid,
  this system is most likely an insulator or a semiconductor.
  Calculating total energy contributions from superposition of free atom densities.

  Total energy components:
  | Sum of eigenvalues            :        -327.80162298 Ha       -8919.93600272 eV
  | XC energy correction          :         -39.58779206 Ha       -1077.23863125 eV
  | XC potential correction       :          52.30247403 Ha        1423.22273106 eV
  | Free-atom electrostatic energy:        -263.62553453 Ha       -7173.61578416 eV
  | Hartree energy correction     :          -0.00000000 Ha          -0.00000000 eV
  | Entropy correction            :          -0.00000000 Ha          -0.00000000 eV
  | ---------------------------
  | Total energy                  :        -578.71247555 Ha      -15747.56768708 eV
  | Total energy, T -> 0          :        -578.71247555 Ha      -15747.56768708 eV  <-- do not rely on this value for anything but (periodic) metals
  | Electronic free energy        :        -578.71247555 Ha      -15747.56768708 eV

  Derived energy quantities:
  | Kinetic energy                :         579.54388792 Ha       15770.19156873 eV
  | Electrostatic energy          :       -1118.66857140 Ha      -30440.52062455 eV
  | Energy correction for multipole
  | error in Hartree potential    :           0.00000000 Ha           0.00000000 eV
  | Sum of eigenvalues per atom                           :       -4459.96800136 eV
  | Total energy (T->0) per atom                          :       -7873.78384354 eV  <-- do not rely on this value for anything but (periodic) metals
  | Electronic free energy per atom                       :       -7873.78384354 eV
  Initialize hartree_potential_storage
  Max. number of atoms included in rho_multipole:            2

  End scf initialization - timings             :  max(cpu_time)    wall_clock(cpu1)
  | Time for scf. initialization               :        1.027 s           1.027 s
  | Boundary condition initialization          :        0.037 s           0.038 s
  | Integration                                :        0.790 s           0.790 s
  | Solution of K.-S. eqns.                    :        0.017 s           0.017 s
  | Grid partitioning                          :        0.027 s           0.027 s
  | Preloading free-atom quantities on grid    :        0.001 s           0.002 s
  | Free-atom superposition energy             :        0.029 s           0.028 s
  | Total energy evaluation                    :        0.000 s           0.000 s

  Partial memory accounting:
  | Current value for overall tracked memory usage on task 0  :           0.818 MB
  | Peak value for overall tracked memory usage on task 0     :           3.299 MB after allocating wave
  | Largest tracked array allocation on task 0 so far         :           1.418 MB  when allocating hamiltonian_shell
  Note:  These values currently only include a subset of arrays which are explicitly tracked.
  The "true" memory usage will be greater.
------------------------------------------------------------

------------------------------------------------------------
          Begin self-consistency iteration #    1

  Date     :  20190509, Time     :  175203.655
------------------------------------------------------------
  Evaluating new KS density using the density matrix
  Evaluating density matrix
  Time summed over all CPUs for getting density from density matrix: real work        0.827 s, elapsed        0.827 s
  Integration grid: deviation in total charge (<rho> - N_e) =   0.000000E+00
  Pulay mixing of updated and previous charge densities.

  Evaluating partitioned Hartree potential by multipole expansion.
  | Analytical far-field extrapolation by fixed multipoles:
  | Hartree multipole sum: apparent total charge =   0.366820E-02
  Summing up the Hartree potential.
  | Estimated reciprocal-space cutoff momentum G_max:         2.27091506 bohr^-1 .
  | Reciprocal lattice points for long-range Hartree potential:      58
  Time summed over all CPUs for potential: real work        0.360 s, elapsed        0.360 s
  | RMS charge density error from multipole expansion :   0.466340E-03
  | Average real-space part of the electrostatic potential :      0.00073794 eV

  Integrating Hamiltonian matrix: batch-based integration.
  Time summed over all CPUs for integration: real work        0.509 s, elapsed        0.509 s

  Updating Kohn-Sham eigenvalues, eigenvectors, occupation numbers, and Fermi level.
  Solving generalized eigenproblem

  Obtaining occupation numbers and chemical potential using ELSI.
  | Chemical potential (Fermi level):    -5.32396994eV
  Writing Kohn-Sham eigenvalues.
  K-point:       1 at    0.000000    0.000000    0.000000 (in units of recip. lattice)

  State    Occupation    Eigenvalue [Ha]    Eigenvalue [eV]
      1       2.00000         -65.508149        -1782.56742
      2       2.00000         -65.508149        -1782.56742
      3       2.00000          -5.106095         -138.94392
      4       2.00000          -5.105949         -138.93995
      5       2.00000          -3.520423          -95.79559
      6       2.00000          -3.520423          -95.79559
      7       2.00000          -3.520423          -95.79559
      8       2.00000          -3.520073          -95.78607
      9       2.00000          -3.520073          -95.78607
     10       2.00000          -3.520073          -95.78607
     11       2.00000          -0.623575          -16.96833
     12       2.00000          -0.221770           -6.03467
     13       2.00000          -0.221770           -6.03467
     14       2.00000          -0.221770           -6.03467
     15       0.00000          -0.158999           -4.32657
     16       0.00000          -0.123814           -3.36914
     17       0.00000          -0.123814           -3.36914
     18       0.00000          -0.123814           -3.36914
     19       0.00000           0.074211            2.01938
     20       0.00000           0.074211            2.01938

  What follows are estimated values for band gap, HOMO, LUMO, etc.
  | They are estimated on a discrete k-point grid and not necessarily exact.
  | For converged numbers, create a DOS and/or band structure plot on a denser k-grid.

  Highest occupied state (VBM) at     -6.03467327 eV (relative to internal zero)
  | Occupation number:      2.00000000
  | K-point:       1 at    0.000000    0.000000    0.000000 (in units of recip. lattice)

  Lowest unoccupied state (CBM) at    -4.95945614 eV (relative to internal zero)
  | Occupation number:      0.00000000
  | K-point:       9 at    0.333333    0.333333    0.000000 (in units of recip. lattice)

  ESTIMATED overall HOMO-LUMO gap:      1.07521713 eV between HOMO at k-point 1 and LUMO at k-point 9
  | This appears to be an indirect band gap.
  | Smallest direct gap :      1.70810043 eV for k_point 1 at    0.333333    0.333333    0.000000 (in units of recip. lattice)
  The gap value is above 0.2 eV. Unless you are using a very sparse k-point grid,
  this system is most likely an insulator or a semiconductor.

  Total energy components:
  | Sum of eigenvalues            :        -327.80954262 Ha       -8920.15150691 eV
  | XC energy correction          :         -39.58989404 Ha       -1077.29582916 eV
  | XC potential correction       :          52.30523945 Ha        1423.29798207 eV
  | Free-atom electrostatic energy:        -263.62553453 Ha       -7173.61578416 eV
  | Hartree energy correction     :           0.00783689 Ha           0.21325274 eV
  | Entropy correction            :          -0.00000000 Ha          -0.00000000 eV
  | ---------------------------
  | Total energy                  :        -578.71189485 Ha      -15747.55188543 eV
  | Total energy, T -> 0          :        -578.71189485 Ha      -15747.55188543 eV  <-- do not rely on this value for anything but (periodic) metals
  | Electronic free energy        :        -578.71189485 Ha      -15747.55188543 eV

  Derived energy quantities:
  | Kinetic energy                :         579.43980277 Ha       15767.35926765 eV
  | Electrostatic energy          :       -1118.56180357 Ha      -30437.61532392 eV
  | Energy correction for multipole
  | error in Hartree potential    :           0.00058831 Ha           0.01600866 eV
  | Sum of eigenvalues per atom                           :       -4460.07575346 eV
  | Total energy (T->0) per atom                          :       -7873.77594271 eV  <-- do not rely on this value for anything but (periodic) metals
  | Electronic free energy per atom                       :       -7873.77594271 eV

  Self-consistency convergence accuracy:
  | Change of charge density      :  0.1045E+00
  | Change of sum of eigenvalues  : -0.2155E+00 eV
  | Change of total energy        :  0.1580E-01 eV

  End self-consistency iteration #     1       :  max(cpu_time)    wall_clock(cpu1)
  | Time for this iteration                    :        1.756 s           1.756 s
  | Charge density update                      :        0.828 s           0.828 s
  | Density mixing & preconditioning           :        0.047 s           0.047 s
  | Hartree multipole update                   :        0.001 s           0.000 s
  | Hartree multipole summation                :        0.364 s           0.364 s
  | Integration                                :        0.508 s           0.509 s
  | Solution of K.-S. eqns.                    :        0.008 s           0.007 s
  | Total energy evaluation                    :        0.000 s           0.001 s

  Partial memory accounting:
  | Current value for overall tracked memory usage on task 0  :           0.818 MB
  | Peak value for overall tracked memory usage on task 0     :           3.299 MB after allocating wave
  | Largest tracked array allocation on task 0 so far         :           1.418 MB  when allocating hamiltonian_shell
  Note:  These values currently only include a subset of arrays which are explicitly tracked.
  The "true" memory usage will be greater.
------------------------------------------------------------

------------------------------------------------------------
          Begin self-consistency iteration #    2

  Date     :  20190509, Time     :  175205.411
------------------------------------------------------------
  Evaluating new KS density using the density matrix
  Evaluating density matrix
  Time summed over all CPUs for getting density from density matrix: real work        0.832 s, elapsed        0.832 s
  Integration grid: deviation in total charge (<rho> - N_e) =  -3.907985E-14
  Pulay mixing of updated and previous charge densities.

  Evaluating partitioned Hartree potential by multipole expansion.
  | Analytical far-field extrapolation by fixed multipoles:
  | Hartree multipole sum: apparent total charge =   0.799830E-02
  Summing up the Hartree potential.
  Time summed over all CPUs for potential: real work        0.497 s, elapsed        0.497 s
  | RMS charge density error from multipole expansion :   0.920278E-02
  | Average real-space part of the electrostatic potential :      0.28821025 eV

  Integrating Hamiltonian matrix: batch-based integration.
  Time summed over all CPUs for integration: real work        0.470 s, elapsed        0.470 s

  Updating Kohn-Sham eigenvalues, eigenvectors, occupation numbers, and Fermi level.
  Solving generalized eigenproblem

  Obtaining occupation numbers and chemical potential using ELSI.
  | Chemical potential (Fermi level):    -4.99162622eV
  What follows are estimated values for band gap, HOMO, LUMO, etc.
  | They are estimated on a discrete k-point grid and not necessarily exact.
  | For converged numbers, create a DOS and/or band structure plot on a denser k-grid.

  Highest occupied state (VBM) at     -5.49683214 eV (relative to internal zero)
  | Occupation number:      2.00000000
  | K-point:       1 at    0.000000    0.000000    0.000000 (in units of recip. lattice)

  Lowest unoccupied state (CBM) at    -4.76290478 eV (relative to internal zero)
  | Occupation number:      0.00000000
  | K-point:       5 at    0.000000    0.666667    0.666667 (in units of recip. lattice)

  ESTIMATED overall HOMO-LUMO gap:      0.73392736 eV between HOMO at k-point 1 and LUMO at k-point 5
  | This appears to be an indirect band gap.
  | Smallest direct gap :      1.72571386 eV for k_point 1 at    0.000000    0.666667    0.666667 (in units of recip. lattice)
  The gap value is above 0.2 eV. Unless you are using a very sparse k-point grid,
  this system is most likely an insulator or a semiconductor.

  Checking to see if s.c.f. parameters should be adjusted.
  The system likely has a gap. Increased the default Pulay mixing parameter (charge_mix_param). Value:   0.200000 .
  Kept the default occupation width. Value:   0.010000 eV.

  Total energy components:
  | Sum of eigenvalues            :        -327.14103228 Ha       -8901.96041517 eV
  | XC energy correction          :         -39.64121368 Ha       -1078.69230748 eV
  | XC potential correction       :          52.37275896 Ha        1425.13528143 eV
  | Free-atom electrostatic energy:        -263.62553453 Ha       -7173.61578416 eV
  | Hartree energy correction     :          -0.67167061 Ha         -18.27708733 eV
  | Entropy correction            :          -0.00000000 Ha          -0.00000000 eV
  | ---------------------------
  | Total energy                  :        -578.70669215 Ha      -15747.41031270 eV
  | Total energy, T -> 0          :        -578.70669215 Ha      -15747.41031270 eV  <-- do not rely on this value for anything but (periodic) metals
  | Electronic free energy        :        -578.70669215 Ha      -15747.41031270 eV

  Derived energy quantities:
  | Kinetic energy                :         579.44204170 Ha       15767.42019205 eV
  | Electrostatic energy          :       -1118.50752016 Ha      -30436.13819727 eV
  | Energy correction for multipole
  | error in Hartree potential    :           0.01161144 Ha           0.31596327 eV
  | Sum of eigenvalues per atom                           :       -4450.98020758 eV
  | Total energy (T->0) per atom                          :       -7873.70515635 eV  <-- do not rely on this value for anything but (periodic) metals
  | Electronic free energy per atom                       :       -7873.70515635 eV

  Self-consistency convergence accuracy:
  | Change of charge density      :  0.9928E-01
  | Change of sum of eigenvalues  :  0.1819E+02 eV
  | Change of total energy        :  0.1416E+00 eV

  End self-consistency iteration #     2       :  max(cpu_time)    wall_clock(cpu1)
  | Time for this iteration                    :        1.860 s           1.860 s
  | Charge density update                      :        0.834 s           0.833 s
  | Density mixing & preconditioning           :        0.046 s           0.047 s
  | Hartree multipole update                   :        0.001 s           0.000 s
  | Hartree multipole summation                :        0.501 s           0.501 s
  | Integration                                :        0.470 s           0.470 s
  | Solution of K.-S. eqns.                    :        0.008 s           0.008 s
  | Total energy evaluation                    :        0.000 s           0.000 s

  Partial memory accounting:
  | Current value for overall tracked memory usage on task 0  :           0.819 MB
  | Peak value for overall tracked memory usage on task 0     :           3.299 MB after allocating wave
  | Largest tracked array allocation on task 0 so far         :           1.418 MB  when allocating hamiltonian_shell
  Note:  These values currently only include a subset of arrays which are explicitly tracked.
  The "true" memory usage will be greater.
------------------------------------------------------------

------------------------------------------------------------
          Begin self-consistency iteration #    3

  Date     :  20190509, Time     :  175207.271
------------------------------------------------------------
  Evaluating new KS density using the density matrix
  Evaluating density matrix
  Time summed over all CPUs for getting density from density matrix: real work        0.855 s, elapsed        0.855 s
  Integration grid: deviation in total charge (<rho> - N_e) =  -2.842171E-14
  Pulay mixing of updated and previous charge densities.

  Evaluating partitioned Hartree potential by multipole expansion.
  | Analytical far-field extrapolation by fixed multipoles:
  | Hartree multipole sum: apparent total charge =   0.759361E-02
  Summing up the Hartree potential.
  Time summed over all CPUs for potential: real work        0.463 s, elapsed        0.463 s
  | RMS charge density error from multipole expansion :   0.926211E-02
  | Average real-space part of the electrostatic potential :      0.28405161 eV

  Integrating Hamiltonian matrix: batch-based integration.
  Time summed over all CPUs for integration: real work        0.484 s, elapsed        0.484 s

  Updating Kohn-Sham eigenvalues, eigenvectors, occupation numbers, and Fermi level.
  Solving generalized eigenproblem

  Obtaining occupation numbers and chemical potential using ELSI.
  | Chemical potential (Fermi level):    -4.99815672eV
  What follows are estimated values for band gap, HOMO, LUMO, etc.
  | They are estimated on a discrete k-point grid and not necessarily exact.
  | For converged numbers, create a DOS and/or band structure plot on a denser k-grid.

  Highest occupied state (VBM) at     -5.50654727 eV (relative to internal zero)
  | Occupation number:      2.00000000
  | K-point:       1 at    0.000000    0.000000    0.000000 (in units of recip. lattice)

  Lowest unoccupied state (CBM) at    -4.76567816 eV (relative to internal zero)
  | Occupation number:      0.00000000
  | K-point:       5 at    0.000000    0.666667    0.666667 (in units of recip. lattice)

  ESTIMATED overall HOMO-LUMO gap:      0.74086911 eV between HOMO at k-point 1 and LUMO at k-point 5
  | This appears to be an indirect band gap.
  | Smallest direct gap :      1.72313501 eV for k_point 1 at    0.000000    0.666667    0.666667 (in units of recip. lattice)
  The gap value is above 0.2 eV. Unless you are using a very sparse k-point grid,
  this system is most likely an insulator or a semiconductor.

  Total energy components:
  | Sum of eigenvalues            :        -327.16444058 Ha       -8902.59738732 eV
  | XC energy correction          :         -39.64018036 Ha       -1078.66418930 eV
  | XC potential correction       :          52.37139767 Ha        1425.09823877 eV
  | Free-atom electrostatic energy:        -263.62553453 Ha       -7173.61578416 eV
  | Hartree energy correction     :          -0.64786706 Ha         -17.62935973 eV
  | Entropy correction            :          -0.00000000 Ha          -0.00000000 eV
  | ---------------------------
  | Total energy                  :        -578.70662486 Ha      -15747.40848174 eV
  | Total energy, T -> 0          :        -578.70662486 Ha      -15747.40848174 eV  <-- do not rely on this value for anything but (periodic) metals
  | Electronic free energy        :        -578.70662486 Ha      -15747.40848174 eV

  Derived energy quantities:
  | Kinetic energy                :         579.43610653 Ha       15767.25868809 eV
  | Electrostatic energy          :       -1118.50255104 Ha      -30436.00298052 eV
  | Energy correction for multipole
  | error in Hartree potential    :           0.01173073 Ha           0.31920951 eV
  | Sum of eigenvalues per atom                           :       -4451.29869366 eV
  | Total energy (T->0) per atom                          :       -7873.70424087 eV  <-- do not rely on this value for anything but (periodic) metals
  | Electronic free energy per atom                       :       -7873.70424087 eV

  Self-consistency convergence accuracy:
  | Change of charge density      :  0.1572E-01
  | Change of sum of eigenvalues  : -0.6370E+00 eV
  | Change of total energy        :  0.1831E-02 eV

  End self-consistency iteration #     3       :  max(cpu_time)    wall_clock(cpu1)
  | Time for this iteration                    :        1.865 s           1.865 s
  | Charge density update                      :        0.857 s           0.856 s
  | Density mixing & preconditioning           :        0.049 s           0.049 s
  | Hartree multipole update                   :        0.001 s           0.001 s
  | Hartree multipole summation                :        0.467 s           0.467 s
  | Integration                                :        0.484 s           0.484 s
  | Solution of K.-S. eqns.                    :        0.008 s           0.008 s
  | Total energy evaluation                    :        0.000 s           0.000 s

  Partial memory accounting:
  | Current value for overall tracked memory usage on task 0  :           0.820 MB
  | Peak value for overall tracked memory usage on task 0     :           3.299 MB after allocating wave
  | Largest tracked array allocation on task 0 so far         :           1.418 MB  when allocating hamiltonian_shell
  Note:  These values currently only include a subset of arrays which are explicitly tracked.
  The "true" memory usage will be greater.
------------------------------------------------------------

------------------------------------------------------------
          Begin self-consistency iteration #    4

  Date     :  20190509, Time     :  175209.136
------------------------------------------------------------
  Evaluating new KS density using the density matrix
  Evaluating density matrix
  Time summed over all CPUs for getting density from density matrix: real work        0.771 s, elapsed        0.771 s
  Integration grid: deviation in total charge (<rho> - N_e) =  -3.197442E-14
  Pulay mixing of updated and previous charge densities.

  Evaluating partitioned Hartree potential by multipole expansion.
  | Analytical far-field extrapolation by fixed multipoles:
  | Hartree multipole sum: apparent total charge =   0.503194E-02
  Summing up the Hartree potential.
  Time summed over all CPUs for potential: real work        0.458 s, elapsed        0.458 s
  | RMS charge density error from multipole expansion :   0.996824E-02
  | Average real-space part of the electrostatic potential :      0.27025609 eV

  Integrating Hamiltonian matrix: batch-based integration.
  Time summed over all CPUs for integration: real work        0.541 s, elapsed        0.541 s

  Updating Kohn-Sham eigenvalues, eigenvectors, occupation numbers, and Fermi level.
  Solving generalized eigenproblem

  Obtaining occupation numbers and chemical potential using ELSI.
  | Chemical potential (Fermi level):    -5.02444233eV
  What follows are estimated values for band gap, HOMO, LUMO, etc.
  | They are estimated on a discrete k-point grid and not necessarily exact.
  | For converged numbers, create a DOS and/or band structure plot on a denser k-grid.

  Highest occupied state (VBM) at     -5.54387036 eV (relative to internal zero)
  | Occupation number:      2.00000000
  | K-point:       1 at    0.000000    0.000000    0.000000 (in units of recip. lattice)

  Lowest unoccupied state (CBM) at    -4.77383572 eV (relative to internal zero)
  | Occupation number:      0.00000000
  | K-point:       5 at    0.000000    0.666667    0.666667 (in units of recip. lattice)

  ESTIMATED overall HOMO-LUMO gap:      0.77003464 eV between HOMO at k-point 1 and LUMO at k-point 5
  | This appears to be an indirect band gap.
  | Smallest direct gap :      1.70729676 eV for k_point 1 at    0.000000    0.666667    0.666667 (in units of recip. lattice)
  The gap value is above 0.2 eV. Unless you are using a very sparse k-point grid,
  this system is most likely an insulator or a semiconductor.

  Total energy components:
  | Sum of eigenvalues            :        -327.28395100 Ha       -8905.84943129 eV
  | XC energy correction          :         -39.63619303 Ha       -1078.55568875 eV
  | XC potential correction       :          52.36613702 Ha        1424.95508932 eV
  | Free-atom electrostatic energy:        -263.62553453 Ha       -7173.61578416 eV
  | Hartree energy correction     :          -0.52679693 Ha         -14.33487369 eV
  | Entropy correction            :          -0.00000000 Ha          -0.00000000 eV
  | ---------------------------
  | Total energy                  :        -578.70633847 Ha      -15747.40068857 eV
  | Total energy, T -> 0          :        -578.70633847 Ha      -15747.40068857 eV  <-- do not rely on this value for anything but (periodic) metals
  | Electronic free energy        :        -578.70633847 Ha      -15747.40068857 eV

  Derived energy quantities:
  | Kinetic energy                :         579.39776689 Ha       15766.21541321 eV
  | Electrostatic energy          :       -1118.46791232 Ha      -30435.06041303 eV
  | Energy correction for multipole
  | error in Hartree potential    :           0.01287447 Ha           0.35033208 eV
  | Sum of eigenvalues per atom                           :       -4452.92471565 eV
  | Total energy (T->0) per atom                          :       -7873.70034429 eV  <-- do not rely on this value for anything but (periodic) metals
  | Electronic free energy per atom                       :       -7873.70034429 eV

  Self-consistency convergence accuracy:
  | Change of charge density      :  0.1417E-01
  | Change of sum of eigenvalues  : -0.3252E+01 eV
  | Change of total energy        :  0.7793E-02 eV

  End self-consistency iteration #     4       :  max(cpu_time)    wall_clock(cpu1)
  | Time for this iteration                    :        1.827 s           1.827 s
  | Charge density update                      :        0.772 s           0.772 s
  | Density mixing & preconditioning           :        0.043 s           0.043 s
  | Hartree multipole update                   :        0.001 s           0.001 s
  | Hartree multipole summation                :        0.461 s           0.461 s
  | Integration                                :        0.541 s           0.541 s
  | Solution of K.-S. eqns.                    :        0.009 s           0.008 s
  | Total energy evaluation                    :        0.000 s           0.001 s

  Partial memory accounting:
  | Current value for overall tracked memory usage on task 0  :           0.820 MB
  | Peak value for overall tracked memory usage on task 0     :           3.299 MB after allocating wave
  | Largest tracked array allocation on task 0 so far         :           1.418 MB  when allocating hamiltonian_shell
  Note:  These values currently only include a subset of arrays which are explicitly tracked.
  The "true" memory usage will be greater.
------------------------------------------------------------

------------------------------------------------------------
          Begin self-consistency iteration #    5

  Date     :  20190509, Time     :  175210.963
------------------------------------------------------------
  Evaluating new KS density using the density matrix
  Evaluating density matrix
  Time summed over all CPUs for getting density from density matrix: real work        0.888 s, elapsed        0.888 s
  Integration grid: deviation in total charge (<rho> - N_e) =  -4.973799E-14
  Pulay mixing of updated and previous charge densities.

  Evaluating partitioned Hartree potential by multipole expansion.
  | Analytical far-field extrapolation by fixed multipoles:
  | Hartree multipole sum: apparent total charge =   0.357678E-02
  Summing up the Hartree potential.
  Time summed over all CPUs for potential: real work        0.444 s, elapsed        0.444 s
  | RMS charge density error from multipole expansion :   0.994443E-02
  | Average real-space part of the electrostatic potential :      0.26961281 eV

  Integrating Hamiltonian matrix: batch-based integration.
  Time summed over all CPUs for integration: real work        0.507 s, elapsed        0.507 s

  Updating Kohn-Sham eigenvalues, eigenvectors, occupation numbers, and Fermi level.
  Solving generalized eigenproblem

  Obtaining occupation numbers and chemical potential using ELSI.
  | Chemical potential (Fermi level):    -5.02862594eV
  What follows are estimated values for band gap, HOMO, LUMO, etc.
  | They are estimated on a discrete k-point grid and not necessarily exact.
  | For converged numbers, create a DOS and/or band structure plot on a denser k-grid.

  Highest occupied state (VBM) at     -5.55007567 eV (relative to internal zero)
  | Occupation number:      2.00000000
  | K-point:       1 at    0.000000    0.000000    0.000000 (in units of recip. lattice)

  Lowest unoccupied state (CBM) at    -4.77703590 eV (relative to internal zero)
  | Occupation number:      0.00000000
  | K-point:       5 at    0.000000    0.666667    0.666667 (in units of recip. lattice)

  ESTIMATED overall HOMO-LUMO gap:      0.77303976 eV between HOMO at k-point 1 and LUMO at k-point 5
  | This appears to be an indirect band gap.
  | Smallest direct gap :      1.70414372 eV for k_point 1 at    0.000000    0.666667    0.666667 (in units of recip. lattice)
  The gap value is above 0.2 eV. Unless you are using a very sparse k-point grid,
  this system is most likely an insulator or a semiconductor.

  Total energy components:
  | Sum of eigenvalues            :        -327.31173646 Ha       -8906.60551215 eV
  | XC energy correction          :         -39.63439325 Ha       -1078.50671425 eV
  | XC potential correction       :          52.36374896 Ha        1424.89010690 eV
  | Free-atom electrostatic energy:        -263.62553453 Ha       -7173.61578416 eV
  | Hartree energy correction     :          -0.49839770 Ha         -13.56209156 eV
  | Entropy correction            :          -0.00000000 Ha          -0.00000000 eV
  | ---------------------------
  | Total energy                  :        -578.70631299 Ha      -15747.39999522 eV
  | Total energy, T -> 0          :        -578.70631299 Ha      -15747.39999522 eV  <-- do not rely on this value for anything but (periodic) metals
  | Electronic free energy        :        -578.70631299 Ha      -15747.39999522 eV

  Derived energy quantities:
  | Kinetic energy                :         579.38499720 Ha       15765.86793221 eV
  | Electrostatic energy          :       -1118.45691693 Ha      -30434.76121318 eV
  | Energy correction for multipole
  | error in Hartree potential    :           0.01281368 Ha           0.34867802 eV
  | Sum of eigenvalues per atom                           :       -4453.30275608 eV
  | Total energy (T->0) per atom                          :       -7873.69999761 eV  <-- do not rely on this value for anything but (periodic) metals
  | Electronic free energy per atom                       :       -7873.69999761 eV

  Self-consistency convergence accuracy:
  | Change of charge density      :  0.8004E-02
  | Change of sum of eigenvalues  : -0.7561E+00 eV
  | Change of total energy        :  0.6934E-03 eV

  End self-consistency iteration #     5       :  max(cpu_time)    wall_clock(cpu1)
  | Time for this iteration                    :        1.900 s           1.900 s
  | Charge density update                      :        0.890 s           0.890 s
  | Density mixing & preconditioning           :        0.046 s           0.045 s
  | Hartree multipole update                   :        0.001 s           0.001 s
  | Hartree multipole summation                :        0.448 s           0.448 s
  | Integration                                :        0.508 s           0.507 s
  | Solution of K.-S. eqns.                    :        0.008 s           0.009 s
  | Total energy evaluation                    :        0.000 s           0.000 s

  Partial memory accounting:
  | Current value for overall tracked memory usage on task 0  :           0.820 MB
  | Peak value for overall tracked memory usage on task 0     :           3.299 MB after allocating wave
  | Largest tracked array allocation on task 0 so far         :           1.418 MB  when allocating hamiltonian_shell
  Note:  These values currently only include a subset of arrays which are explicitly tracked.
  The "true" memory usage will be greater.
------------------------------------------------------------

------------------------------------------------------------
          Begin self-consistency iteration #    6

  Date     :  20190509, Time     :  175212.863
------------------------------------------------------------
  Evaluating new KS density using the density matrix
  Evaluating density matrix
  Time summed over all CPUs for getting density from density matrix: real work        0.929 s, elapsed        0.929 s
  Integration grid: deviation in total charge (<rho> - N_e) =   1.421085E-14
  Pulay mixing of updated and previous charge densities.

  Evaluating partitioned Hartree potential by multipole expansion.
  | Analytical far-field extrapolation by fixed multipoles:
  | Hartree multipole sum: apparent total charge =   0.339844E-02
  Summing up the Hartree potential.
  Time summed over all CPUs for potential: real work        0.441 s, elapsed        0.441 s
  | RMS charge density error from multipole expansion :   0.995972E-02
  | Average real-space part of the electrostatic potential :      0.26923867 eV

  Integrating Hamiltonian matrix: batch-based integration.
  Time summed over all CPUs for integration: real work        0.472 s, elapsed        0.472 s

  Updating Kohn-Sham eigenvalues, eigenvectors, occupation numbers, and Fermi level.
  Solving generalized eigenproblem

  Obtaining occupation numbers and chemical potential using ELSI.
  | Chemical potential (Fermi level):    -5.02924448eV
  What follows are estimated values for band gap, HOMO, LUMO, etc.
  | They are estimated on a discrete k-point grid and not necessarily exact.
  | For converged numbers, create a DOS and/or band structure plot on a denser k-grid.

  Highest occupied state (VBM) at     -5.55098050 eV (relative to internal zero)
  | Occupation number:      2.00000000
  | K-point:       1 at    0.000000    0.000000    0.000000 (in units of recip. lattice)

  Lowest unoccupied state (CBM) at    -4.77744265 eV (relative to internal zero)
  | Occupation number:      0.00000000
  | K-point:       5 at    0.000000    0.666667    0.666667 (in units of recip. lattice)

  ESTIMATED overall HOMO-LUMO gap:      0.77353784 eV between HOMO at k-point 1 and LUMO at k-point 5
  | This appears to be an indirect band gap.
  | Smallest direct gap :      1.70332731 eV for k_point 1 at    0.000000    0.666667    0.666667 (in units of recip. lattice)
  The gap value is above 0.2 eV. Unless you are using a very sparse k-point grid,
  this system is most likely an insulator or a semiconductor.

  Total energy components:
  | Sum of eigenvalues            :        -327.31966913 Ha       -8906.82137109 eV
  | XC energy correction          :         -39.63368292 Ha       -1078.48738499 eV
  | XC potential correction       :          52.36280628 Ha        1424.86445509 eV
  | Free-atom electrostatic energy:        -263.62553453 Ha       -7173.61578416 eV
  | Hartree energy correction     :          -0.49022626 Ha         -13.33973520 eV
  | Entropy correction            :          -0.00000000 Ha          -0.00000000 eV
  | ---------------------------
  | Total energy                  :        -578.70630656 Ha      -15747.39982036 eV
  | Total energy, T -> 0          :        -578.70630656 Ha      -15747.39982036 eV  <-- do not rely on this value for anything but (periodic) metals
  | Electronic free energy        :        -578.70630656 Ha      -15747.39982036 eV

  Derived energy quantities:
  | Kinetic energy                :         579.37486142 Ha       15765.59212377 eV
  | Electrostatic energy          :       -1118.44748506 Ha      -30434.50455914 eV
  | Energy correction for multipole
  | error in Hartree potential    :           0.01282144 Ha           0.34888913 eV
  | Sum of eigenvalues per atom                           :       -4453.41068555 eV
  | Total energy (T->0) per atom                          :       -7873.69991018 eV  <-- do not rely on this value for anything but (periodic) metals
  | Electronic free energy per atom                       :       -7873.69991018 eV

  Self-consistency convergence accuracy:
  | Change of charge density      :  0.7066E-02
  | Change of sum of eigenvalues  : -0.2159E+00 eV
  | Change of total energy        :  0.1749E-03 eV

  End self-consistency iteration #     6       :  max(cpu_time)    wall_clock(cpu1)
  | Time for this iteration                    :        1.899 s           1.899 s
  | Charge density update                      :        0.930 s           0.930 s
  | Density mixing & preconditioning           :        0.043 s           0.042 s
  | Hartree multipole update                   :        0.001 s           0.001 s
  | Hartree multipole summation                :        0.445 s           0.446 s
  | Integration                                :        0.472 s           0.472 s
  | Solution of K.-S. eqns.                    :        0.008 s           0.008 s
  | Total energy evaluation                    :        0.000 s           0.000 s

  Partial memory accounting:
  | Current value for overall tracked memory usage on task 0  :           0.820 MB
  | Peak value for overall tracked memory usage on task 0     :           3.299 MB after allocating wave
  | Largest tracked array allocation on task 0 so far         :           1.418 MB  when allocating hamiltonian_shell
  Note:  These values currently only include a subset of arrays which are explicitly tracked.
  The "true" memory usage will be greater.
------------------------------------------------------------

------------------------------------------------------------
          Begin self-consistency iteration #    7

  Date     :  20190509, Time     :  175214.762
------------------------------------------------------------
  Evaluating new KS density using the density matrix
  Evaluating density matrix
  Time summed over all CPUs for getting density from density matrix: real work        0.758 s, elapsed        0.758 s
  Integration grid: deviation in total charge (<rho> - N_e) =   7.105427E-15
  Pulay mixing of updated and previous charge densities.

  Evaluating partitioned Hartree potential by multipole expansion.
  | Analytical far-field extrapolation by fixed multipoles:
  | Hartree multipole sum: apparent total charge =   0.336166E-02
  Summing up the Hartree potential.
  Time summed over all CPUs for potential: real work        0.436 s, elapsed        0.436 s
  | RMS charge density error from multipole expansion :   0.994630E-02
  | Average real-space part of the electrostatic potential :      0.26821598 eV

  Integrating Hamiltonian matrix: batch-based integration.
  Time summed over all CPUs for integration: real work        0.493 s, elapsed        0.493 s

  Updating Kohn-Sham eigenvalues, eigenvectors, occupation numbers, and Fermi level.
  Solving generalized eigenproblem

  Obtaining occupation numbers and chemical potential using ELSI.
  | Chemical potential (Fermi level):    -5.03029001eV
  What follows are estimated values for band gap, HOMO, LUMO, etc.
  | They are estimated on a discrete k-point grid and not necessarily exact.
  | For converged numbers, create a DOS and/or band structure plot on a denser k-grid.

  Highest occupied state (VBM) at     -5.55266046 eV (relative to internal zero)
  | Occupation number:      2.00000000
  | K-point:       1 at    0.000000    0.000000    0.000000 (in units of recip. lattice)

  Lowest unoccupied state (CBM) at    -4.77814065 eV (relative to internal zero)
  | Occupation number:      0.00000000
  | K-point:       5 at    0.000000    0.666667    0.666667 (in units of recip. lattice)

  ESTIMATED overall HOMO-LUMO gap:      0.77451981 eV between HOMO at k-point 1 and LUMO at k-point 5
  | This appears to be an indirect band gap.
  | Smallest direct gap :      1.70294748 eV for k_point 1 at    0.000000    0.666667    0.666667 (in units of recip. lattice)
  The gap value is above 0.2 eV. Unless you are using a very sparse k-point grid,
  this system is most likely an insulator or a semiconductor.

  Total energy components:
  | Sum of eigenvalues            :        -327.32516451 Ha       -8906.97090810 eV
  | XC energy correction          :         -39.63313392 Ha       -1078.47244609 eV
  | XC potential correction       :          52.36207964 Ha        1424.84468222 eV
  | Free-atom electrostatic energy:        -263.62553453 Ha       -7173.61578416 eV
  | Hartree energy correction     :          -0.48454902 Ha         -13.18524967 eV
  | Entropy correction            :          -0.00000000 Ha          -0.00000000 eV
  | ---------------------------
  | Total energy                  :        -578.70630235 Ha      -15747.39970580 eV
  | Total energy, T -> 0          :        -578.70630235 Ha      -15747.39970580 eV  <-- do not rely on this value for anything but (periodic) metals
  | Electronic free energy        :        -578.70630235 Ha      -15747.39970580 eV

  Derived energy quantities:
  | Kinetic energy                :         579.36890767 Ha       15765.43011393 eV
  | Electrostatic energy          :       -1118.44207610 Ha      -30434.35737364 eV
  | Energy correction for multipole
  | error in Hartree potential    :           0.01279729 Ha           0.34823185 eV
  | Sum of eigenvalues per atom                           :       -4453.48545405 eV
  | Total energy (T->0) per atom                          :       -7873.69985290 eV  <-- do not rely on this value for anything but (periodic) metals
  | Electronic free energy per atom                       :       -7873.69985290 eV

  Self-consistency convergence accuracy:
  | Change of charge density      :  0.6632E-02
  | Change of sum of eigenvalues  : -0.1495E+00 eV
  | Change of total energy        :  0.1146E-03 eV

  End self-consistency iteration #     7       :  max(cpu_time)    wall_clock(cpu1)
  | Time for this iteration                    :        1.744 s           1.743 s
  | Charge density update                      :        0.759 s           0.759 s
  | Density mixing & preconditioning           :        0.043 s           0.043 s
  | Hartree multipole update                   :        0.001 s           0.000 s
  | Hartree multipole summation                :        0.439 s           0.440 s
  | Integration                                :        0.493 s           0.493 s
  | Solution of K.-S. eqns.                    :        0.008 s           0.008 s
  | Total energy evaluation                    :        0.000 s           0.000 s

  Partial memory accounting:
  | Current value for overall tracked memory usage on task 0  :           0.821 MB
  | Peak value for overall tracked memory usage on task 0     :           3.299 MB after allocating wave
  | Largest tracked array allocation on task 0 so far         :           1.418 MB  when allocating hamiltonian_shell
  Note:  These values currently only include a subset of arrays which are explicitly tracked.
  The "true" memory usage will be greater.
------------------------------------------------------------

------------------------------------------------------------
          Begin self-consistency iteration #    8

  Date     :  20190509, Time     :  175216.506
------------------------------------------------------------
  Evaluating new KS density using the density matrix
  Evaluating density matrix
  Time summed over all CPUs for getting density from density matrix: real work        0.839 s, elapsed        0.839 s
  Integration grid: deviation in total charge (<rho> - N_e) =  -2.131628E-14
  Pulay mixing of updated and previous charge densities.

  Evaluating partitioned Hartree potential by multipole expansion.
  | Analytical far-field extrapolation by fixed multipoles:
  | Hartree multipole sum: apparent total charge =   0.348513E-02
  Summing up the Hartree potential.
  Time summed over all CPUs for potential: real work        0.548 s, elapsed        0.548 s
  | RMS charge density error from multipole expansion :   0.992451E-02
  | Average real-space part of the electrostatic potential :      0.26229149 eV

  Integrating Hamiltonian matrix: batch-based integration.
  Time summed over all CPUs for integration: real work        0.585 s, elapsed        0.585 s

  Updating Kohn-Sham eigenvalues, eigenvectors, occupation numbers, and Fermi level.
  Solving generalized eigenproblem

  Obtaining occupation numbers and chemical potential using ELSI.
  | Chemical potential (Fermi level):    -5.03463720eV
  What follows are estimated values for band gap, HOMO, LUMO, etc.
  | They are estimated on a discrete k-point grid and not necessarily exact.
  | For converged numbers, create a DOS and/or band structure plot on a denser k-grid.

  Highest occupied state (VBM) at     -5.55960631 eV (relative to internal zero)
  | Occupation number:      2.00000000
  | K-point:       1 at    0.000000    0.000000    0.000000 (in units of recip. lattice)

  Lowest unoccupied state (CBM) at    -4.78089283 eV (relative to internal zero)
  | Occupation number:      0.00000000
  | K-point:       5 at    0.000000    0.666667    0.666667 (in units of recip. lattice)

  ESTIMATED overall HOMO-LUMO gap:      0.77871348 eV between HOMO at k-point 1 and LUMO at k-point 5
  | This appears to be an indirect band gap.
  | Smallest direct gap :      1.70053585 eV for k_point 1 at    0.000000    0.666667    0.666667 (in units of recip. lattice)
  The gap value is above 0.2 eV. Unless you are using a very sparse k-point grid,
  this system is most likely an insulator or a semiconductor.

  Total energy components:
  | Sum of eigenvalues            :        -327.35540250 Ha       -8907.79372567 eV
  | XC energy correction          :         -39.63008325 Ha       -1078.38943314 eV
  | XC potential correction       :          52.35804108 Ha        1424.73478737 eV
  | Free-atom electrostatic energy:        -263.62553453 Ha       -7173.61578416 eV
  | Hartree energy correction     :          -0.45330262 Ha         -12.33499183 eV
  | Entropy correction            :          -0.00000000 Ha          -0.00000000 eV
  | ---------------------------
  | Total energy                  :        -578.70628183 Ha      -15747.39914743 eV
  | Total energy, T -> 0          :        -578.70628183 Ha      -15747.39914743 eV  <-- do not rely on this value for anything but (periodic) metals
  | Electronic free energy        :        -578.70628183 Ha      -15747.39914743 eV

  Derived energy quantities:
  | Kinetic energy                :         579.33294119 Ha       15764.45141636 eV
  | Electrostatic energy          :       -1118.40913977 Ha      -30433.46113066 eV
  | Energy correction for multipole
  | error in Hartree potential    :           0.01272950 Ha           0.34638724 eV
  | Sum of eigenvalues per atom                           :       -4453.89686284 eV
  | Total energy (T->0) per atom                          :       -7873.69957372 eV  <-- do not rely on this value for anything but (periodic) metals
  | Electronic free energy per atom                       :       -7873.69957372 eV

  Self-consistency convergence accuracy:
  | Change of charge density      :  0.6307E-02
  | Change of sum of eigenvalues  : -0.8228E+00 eV
  | Change of total energy        :  0.5584E-03 eV

  End self-consistency iteration #     8       :  max(cpu_time)    wall_clock(cpu1)
  | Time for this iteration                    :        2.033 s           2.033 s
  | Charge density update                      :        0.841 s           0.840 s
  | Density mixing & preconditioning           :        0.046 s           0.047 s
  | Hartree multipole update                   :        0.001 s           0.001 s
  | Hartree multipole summation                :        0.551 s           0.551 s
  | Integration                                :        0.585 s           0.585 s
  | Solution of K.-S. eqns.                    :        0.008 s           0.008 s
  | Total energy evaluation                    :        0.000 s           0.000 s

  Partial memory accounting:
  | Current value for overall tracked memory usage on task 0  :           0.821 MB
  | Peak value for overall tracked memory usage on task 0     :           3.299 MB after allocating wave
  | Largest tracked array allocation on task 0 so far         :           1.418 MB  when allocating hamiltonian_shell
  Note:  These values currently only include a subset of arrays which are explicitly tracked.
  The "true" memory usage will be greater.
------------------------------------------------------------

------------------------------------------------------------
          Begin self-consistency iteration #    9

  Date     :  20190509, Time     :  175218.539
------------------------------------------------------------
  Evaluating new KS density using the density matrix
  Evaluating density matrix
  Time summed over all CPUs for getting density from density matrix: real work        0.806 s, elapsed        0.806 s
  Integration grid: deviation in total charge (<rho> - N_e) =  -4.263256E-14
  Pulay mixing of updated and previous charge densities.

  Evaluating partitioned Hartree potential by multipole expansion.
  | Analytical far-field extrapolation by fixed multipoles:
  | Hartree multipole sum: apparent total charge =   0.349210E-02
  Summing up the Hartree potential.
  Time summed over all CPUs for potential: real work        0.498 s, elapsed        0.498 s
  | RMS charge density error from multipole expansion :   0.991208E-02
  | Average real-space part of the electrostatic potential :      0.25967909 eV

  Integrating Hamiltonian matrix: batch-based integration.
  Time summed over all CPUs for integration: real work        0.561 s, elapsed        0.561 s

  Updating Kohn-Sham eigenvalues, eigenvectors, occupation numbers, and Fermi level.
  Solving generalized eigenproblem

  Obtaining occupation numbers and chemical potential using ELSI.
  | Chemical potential (Fermi level):    -5.03672135eV
  What follows are estimated values for band gap, HOMO, LUMO, etc.
  | They are estimated on a discrete k-point grid and not necessarily exact.
  | For converged numbers, create a DOS and/or band structure plot on a denser k-grid.

  Highest occupied state (VBM) at     -5.56293223 eV (relative to internal zero)
  | Occupation number:      2.00000000
  | K-point:       1 at    0.000000    0.000000    0.000000 (in units of recip. lattice)

  Lowest unoccupied state (CBM) at    -4.78223071 eV (relative to internal zero)
  | Occupation number:      0.00000000
  | K-point:       5 at    0.000000    0.666667    0.666667 (in units of recip. lattice)

  ESTIMATED overall HOMO-LUMO gap:      0.78070153 eV between HOMO at k-point 1 and LUMO at k-point 5
  | This appears to be an indirect band gap.
  | Smallest direct gap :      1.69943725 eV for k_point 1 at    0.000000    0.666667    0.666667 (in units of recip. lattice)
  The gap value is above 0.2 eV. Unless you are using a very sparse k-point grid,
  this system is most likely an insulator or a semiconductor.

  Total energy components:
  | Sum of eigenvalues            :        -327.36942381 Ha       -8908.17526492 eV
  | XC energy correction          :         -39.62868063 Ha       -1078.35126584 eV
  | XC potential correction       :          52.35618403 Ha        1424.68425451 eV
  | Free-atom electrostatic energy:        -263.62553453 Ha       -7173.61578416 eV
  | Hartree energy correction     :          -0.43881879 Ha         -11.94086670 eV
  | Entropy correction            :          -0.00000000 Ha          -0.00000000 eV
  | ---------------------------
  | Total energy                  :        -578.70627373 Ha      -15747.39892712 eV
  | Total energy, T -> 0          :        -578.70627373 Ha      -15747.39892712 eV  <-- do not rely on this value for anything but (periodic) metals
  | Electronic free energy        :        -578.70627373 Ha      -15747.39892712 eV

  Derived energy quantities:
  | Kinetic energy                :         579.31635997 Ha       15764.00021819 eV
[...]
  | Total energy evaluation                    :        0.000 s           0.001 s

  Partial memory accounting:
  | Current value for overall tracked memory usage on task 0  :           0.821 MB
  | Peak value for overall tracked memory usage on task 0     :           3.299 MB after allocating wave
  | Largest tracked array allocation on task 0 so far         :           1.418 MB  when allocating hamiltonian_shell
  Note:  These values currently only include a subset of arrays which are explicitly tracked.
  The "true" memory usage will be greater.
------------------------------------------------------------

------------------------------------------------------------
          Begin self-consistency iteration #   11

  Date     :  20190509, Time     :  175222.444
------------------------------------------------------------
  Evaluating new KS density using the density matrix
  Evaluating density matrix
  Time summed over all CPUs for getting density from density matrix: real work        0.839 s, elapsed        0.839 s
  Integration grid: deviation in total charge (<rho> - N_e) =  -1.421085E-14
  Pulay mixing of updated and previous charge densities.

  Evaluating partitioned Hartree potential by multipole expansion.
  | Analytical far-field extrapolation by fixed multipoles:
  | Hartree multipole sum: apparent total charge =   0.343647E-02
  Summing up the Hartree potential.
  Time summed over all CPUs for potential: real work        0.457 s, elapsed        0.457 s
  | RMS charge density error from multipole expansion :   0.987178E-02
  | Average real-space part of the electrostatic potential :      0.24869416 eV

  Integrating Hamiltonian matrix: batch-based integration.
  Time summed over all CPUs for integration: real work        0.462 s, elapsed        0.462 s

  Updating Kohn-Sham eigenvalues, eigenvectors, occupation numbers, and Fermi level.
  Solving generalized eigenproblem

  Obtaining occupation numbers and chemical potential using ELSI.
  | Chemical potential (Fermi level):    -5.04555922eV
  What follows are estimated values for band gap, HOMO, LUMO, etc.
  | They are estimated on a discrete k-point grid and not necessarily exact.
  | For converged numbers, create a DOS and/or band structure plot on a denser k-grid.

  Highest occupied state (VBM) at     -5.57698508 eV (relative to internal zero)
  | Occupation number:      2.00000000
  | K-point:       1 at    0.000000    0.000000    0.000000 (in units of recip. lattice)

  Lowest unoccupied state (CBM) at    -4.78789193 eV (relative to internal zero)
  | Occupation number:      0.00000000
  | K-point:       5 at    0.000000    0.666667    0.666667 (in units of recip. lattice)

  ESTIMATED overall HOMO-LUMO gap:      0.78909314 eV between HOMO at k-point 1 and LUMO at k-point 5
  | This appears to be an indirect band gap.
  | Smallest direct gap :      1.69452160 eV for k_point 1 at    0.000000    0.666667    0.666667 (in units of recip. lattice)
  The gap value is above 0.2 eV. Unless you are using a very sparse k-point grid,
  this system is most likely an insulator or a semiconductor.

  Total energy components:
  | Sum of eigenvalues            :        -327.43101266 Ha       -8909.85118278 eV
  | XC energy correction          :         -39.62258018 Ha       -1078.18526403 eV
  | XC potential correction       :          52.34810590 Ha        1424.46443756 eV
  | Free-atom electrostatic energy:        -263.62553453 Ha       -7173.61578416 eV
  | Hartree energy correction     :          -0.37522681 Ha         -10.21044096 eV
  | Entropy correction            :          -0.00000000 Ha          -0.00000000 eV
  | ---------------------------
  | Total energy                  :        -578.70624828 Ha      -15747.39823437 eV
  | Total energy, T -> 0          :        -578.70624828 Ha      -15747.39823437 eV  <-- do not rely on this value for anything but (periodic) metals
  | Electronic free energy        :        -578.70624828 Ha      -15747.39823437 eV

  Derived energy quantities:
  | Kinetic energy                :         579.24299132 Ha       15762.00375579 eV
  | Electrostatic energy          :       -1118.32665942 Ha      -30431.21672614 eV
  | Energy correction for multipole
  | error in Hartree potential    :           0.01255989 Ha           0.34177212 eV
  | Sum of eigenvalues per atom                           :       -4454.92559139 eV
  | Total energy (T->0) per atom                          :       -7873.69911719 eV  <-- do not rely on this value for anything but (periodic) metals
  | Electronic free energy per atom                       :       -7873.69911719 eV

  Self-consistency convergence accuracy:
  | Change of charge density      :  0.2209E-05
  | Change of sum of eigenvalues  : -0.1147E-02 eV
  | Change of total energy        : -0.1864E-07 eV

  End self-consistency iteration #    11       :  max(cpu_time)    wall_clock(cpu1)
  | Time for this iteration                    :        1.818 s           1.817 s
  | Charge density update                      :        0.840 s           0.840 s
  | Density mixing & preconditioning           :        0.046 s           0.046 s
  | Hartree multipole update                   :        0.001 s           0.001 s
  | Hartree multipole summation                :        0.461 s           0.461 s
  | Integration                                :        0.462 s           0.462 s
  | Solution of K.-S. eqns.                    :        0.008 s           0.007 s
  | Total energy evaluation                    :        0.000 s           0.000 s

  Partial memory accounting:
  | Current value for overall tracked memory usage on task 0  :           0.821 MB
  | Peak value for overall tracked memory usage on task 0     :           3.299 MB after allocating wave
  | Largest tracked array allocation on task 0 so far         :           1.418 MB  when allocating hamiltonian_shell
  Note:  These values currently only include a subset of arrays which are explicitly tracked.
  The "true" memory usage will be greater.
------------------------------------------------------------

------------------------------------------------------------
          Begin self-consistency iteration #   12

  Date     :  20190509, Time     :  175224.262
------------------------------------------------------------
  Evaluating new KS density using the density matrix
  Evaluating density matrix
  Time summed over all CPUs for getting density from density matrix: real work        0.758 s, elapsed        0.758 s
  Integration grid: deviation in total charge (<rho> - N_e) =   4.263256E-14
  Pulay mixing of updated and previous charge densities.

  Evaluating partitioned Hartree potential by multipole expansion.
  | Analytical far-field extrapolation by fixed multipoles:
  | Hartree multipole sum: apparent total charge =   0.343627E-02
  Summing up the Hartree potential.
  Time summed over all CPUs for potential: real work        0.433 s, elapsed        0.433 s
  | RMS charge density error from multipole expansion :   0.987180E-02
  | Average real-space part of the electrostatic potential :      0.24869433 eV

  Integrating Hamiltonian matrix: batch-based integration.
  Time summed over all CPUs for integration: real work        0.457 s, elapsed        0.457 s

  Updating Kohn-Sham eigenvalues, eigenvectors, occupation numbers, and Fermi level.
  Solving generalized eigenproblem

  Obtaining occupation numbers and chemical potential using ELSI.
  | Chemical potential (Fermi level):    -5.04555940eV
  What follows are estimated values for band gap, HOMO, LUMO, etc.
  | They are estimated on a discrete k-point grid and not necessarily exact.
  | For converged numbers, create a DOS and/or band structure plot on a denser k-grid.

  Highest occupied state (VBM) at     -5.57698495 eV (relative to internal zero)
  | Occupation number:      2.00000000
  | K-point:       1 at    0.000000    0.000000    0.000000 (in units of recip. lattice)

  Lowest unoccupied state (CBM) at    -4.78789179 eV (relative to internal zero)
  | Occupation number:      0.00000000
  | K-point:       5 at    0.000000    0.666667    0.666667 (in units of recip. lattice)

  ESTIMATED overall HOMO-LUMO gap:      0.78909316 eV between HOMO at k-point 1 and LUMO at k-point 5
  | This appears to be an indirect band gap.
  | Smallest direct gap :      1.69452205 eV for k_point 1 at    0.000000    0.666667    0.666667 (in units of recip. lattice)
  The gap value is above 0.2 eV. Unless you are using a very sparse k-point grid,
  this system is most likely an insulator or a semiconductor.

  Total energy components:
  | Sum of eigenvalues            :        -327.43100426 Ha       -8909.85095404 eV
  | XC energy correction          :         -39.62258151 Ha       -1078.18530031 eV
  | XC potential correction       :          52.34810767 Ha        1424.46448567 eV
  | Free-atom electrostatic energy:        -263.62553453 Ha       -7173.61578416 eV
  | Hartree energy correction     :          -0.37523565 Ha         -10.21068148 eV
  | Entropy correction            :          -0.00000000 Ha          -0.00000000 eV
  | ---------------------------
  | Total energy                  :        -578.70624827 Ha      -15747.39823431 eV
  | Total energy, T -> 0          :        -578.70624827 Ha      -15747.39823431 eV  <-- do not rely on this value for anything but (periodic) metals
  | Electronic free energy        :        -578.70624827 Ha      -15747.39823431 eV

  Derived energy quantities:
  | Kinetic energy                :         579.24300798 Ha       15762.00420899 eV
  | Electrostatic energy          :       -1118.32667474 Ha      -30431.21714299 eV
  | Energy correction for multipole
  | error in Hartree potential    :           0.01255991 Ha           0.34177263 eV
  | Sum of eigenvalues per atom                           :       -4454.92547702 eV
  | Total energy (T->0) per atom                          :       -7873.69911716 eV  <-- do not rely on this value for anything but (periodic) metals
  | Electronic free energy per atom                       :       -7873.69911716 eV

  Self-consistency convergence accuracy:
  | Change of charge density      :  0.8813E-06
  | Change of sum of eigenvalues  :  0.2287E-03 eV
  | Change of total energy        :  0.5813E-07 eV

  Preliminary charge convergence reached. Turning off preconditioner.

  Writing Kohn-Sham eigenvalues.
  K-point:       1 at    0.000000    0.000000    0.000000 (in units of recip. lattice)

  State    Occupation    Eigenvalue [Ha]    Eigenvalue [eV]
      1       2.00000         -65.491897        -1782.12518
      2       2.00000         -65.491897        -1782.12518
      3       2.00000          -5.093742         -138.60778
      4       2.00000          -5.093598         -138.60386
      5       2.00000          -3.507436          -95.44218
      6       2.00000          -3.507436          -95.44218
      7       2.00000          -3.507436          -95.44218
      8       2.00000          -3.507091          -95.43281
      9       2.00000          -3.507091          -95.43281
     10       2.00000          -3.507091          -95.43281
     11       2.00000          -0.611160          -16.63051
     12       2.00000          -0.204950           -5.57698
     13       2.00000          -0.204950           -5.57698
     14       2.00000          -0.204950           -5.57698
     15       0.00000          -0.142678           -3.88246
     16       0.00000          -0.115011           -3.12961
     17       0.00000          -0.115011           -3.12961
     18       0.00000          -0.115011           -3.12961
     19       0.00000           0.083497            2.27206
     20       0.00000           0.083497            2.27206

  What follows are estimated values for band gap, HOMO, LUMO, etc.
  | They are estimated on a discrete k-point grid and not necessarily exact.
  | For converged numbers, create a DOS and/or band structure plot on a denser k-grid.

  Highest occupied state (VBM) at     -5.57698495 eV (relative to internal zero)
  | Occupation number:      2.00000000
  | K-point:       1 at    0.000000    0.000000    0.000000 (in units of recip. lattice)

  Lowest unoccupied state (CBM) at    -4.78789179 eV (relative to internal zero)
  | Occupation number:      0.00000000
  | K-point:       5 at    0.000000    0.666667    0.666667 (in units of recip. lattice)

  ESTIMATED overall HOMO-LUMO gap:      0.78909316 eV between HOMO at k-point 1 and LUMO at k-point 5
  | This appears to be an indirect band gap.
  | Smallest direct gap :      1.69452205 eV for k_point 1 at    0.000000    0.666667    0.666667 (in units of recip. lattice)
  The gap value is above 0.2 eV. Unless you are using a very sparse k-point grid,
  this system is most likely an insulator or a semiconductor.

  Self-consistency cycle converged.

  End self-consistency iteration #    12       :  max(cpu_time)    wall_clock(cpu1)
  | Time for this iteration                    :        1.704 s           1.704 s
  | Charge density update                      :        0.760 s           0.759 s
  | Density mixing                             :        0.042 s           0.043 s
  | Hartree multipole update                   :        0.001 s           0.000 s
  | Hartree multipole summation                :        0.437 s           0.437 s
  | Integration                                :        0.456 s           0.457 s
  | Solution of K.-S. eqns.                    :        0.008 s           0.008 s
  | Total energy evaluation                    :        0.000 s           0.000 s

  Partial memory accounting:
  | Current value for overall tracked memory usage on task 0  :           0.821 MB
  | Peak value for overall tracked memory usage on task 0     :           3.299 MB after allocating wave
  | Largest tracked array allocation on task 0 so far         :           1.418 MB  when allocating hamiltonian_shell
  Note:  These values currently only include a subset of arrays which are explicitly tracked.
  The "true" memory usage will be greater.
------------------------------------------------------------

  Energy and forces in a compact form:
  | Total energy uncorrected      :         -0.157473982343134E+05 eV
  | Total energy corrected        :         -0.157473982343134E+05 eV  <-- do not rely on this value for anything but (periodic) metals
  | Electronic free energy        :         -0.157473982343134E+05 eV

  ------------------------------------ 
  Start decomposition of the XC Energy 
  ------------------------------------ 
  X and C from original XC functional choice 
  Hartree-Fock Energy :          0.000000000 Ha              0.000000000 eV
  X Energy            :        -37.482966484 Ha          -1019.963413185 eV
  C Energy            :         -2.139615025 Ha            -58.221887123 eV
  Total XC Energy     :        -39.622581508 Ha          -1078.185300308 eV
  ------------------------------------ 
  LDA X and C from self-consistent density 
  X Energy LDA        :        -37.482966484 Ha          -1019.963413185 eV
  C Energy LDA        :         -2.139615025 Ha            -58.221887123 eV
  ------------------------------------ 
  End decomposition of the XC Energy 
  ------------------------------------ 

------------------------------------------------------------

------------------------------------------------------------------------------
  Final output of selected total energy values:

  The following output summarizes some interesting total energy values
  at the end of a run (AFTER all relaxation, molecular dynamics, etc.).

  | Total energy of the DFT / Hartree-Fock s.c.f. calculation      :         -15747.398234313 eV
  | Final zero-broadening corrected energy (caution - metals only) :         -15747.398234313 eV
  | For reference only, the value of 1 Hartree used in FHI-aims is :             27.211384500 eV

  Before relying on these values, please be sure to understand exactly which
  total energy value is referred to by a given number. Different objects may
  all carry the same name 'total energy'. Definitions:

  Total energy of the DFT / Hartree-Fock s.c.f. calculation:
  | Note that this energy does not include ANY quantities calculated after the
  | s.c.f. cycle, in particular not ANY RPA, MP2, etc. many-body perturbation terms.

  Final zero-broadening corrected energy:
  | For metallic systems only, a broadening of the occupation numbers at the Fermi
  | level can be extrapolated back to zero broadening by an electron-gas inspired
  | formula. For all systems that are not real metals, this value can be
  | meaningless and should be avoided.

------------------------------------------------------------------------------
  Methods described in the following list of references were used in this FHI-aims run.
  If you publish the results, please make sure to cite these reference if they apply.
  FHI-aims is an academic code, and for our developers (often, Ph.D. students
  and postdocs), scientific credit in the community is essential.
  Thank you for helping us!

  For any use of FHI-aims, please cite:

    Volker Blum, Ralf Gehrke, Felix Hanke, Paula Havu, Ville Havu,
    Xinguo Ren, Karsten Reuter, and Matthias Scheffler
    'Ab initio molecular simulations with numeric atom-centered orbitals'
    Computer Physics Communications 180, 2175-2196 (2009)
    http://dx.doi.org/10.1016/j.cpc.2009.06.022


  For the real-space grid partitioning and parallelization used in this calculation, please cite:

    Ville Havu, Volker Blum, Paula Havu, and Matthias Scheffler,
    'Efficient O(N) integration for all-electron electronic structure calculation'
    'using numerically tabulated basis functions'
    Journal of Computational Physics 228, 8367-8379 (2009).
    http://dx.doi.org/10.1016/j.jcp.2009.08.008

  Of course, there are many other important community references, e.g., those cited in the
  above references. Our list is limited to references that describe implementations in the
  FHI-aims code. The reason is purely practical (length of this list) - please credit others as well.

------------------------------------------------------------
          Leaving FHI-aims.
          Date     :  20190509, Time     :  175225.974

          Computational steps:
          | Number of self-consistency cycles          :           12
          | Number of SCF (re)initializations          :            1

          Detailed time accounting                     :  max(cpu_time)    wall_clock(cpu1)
          | Total time                                 :       23.444 s          23.444 s
          | Preparation time                           :        0.096 s           0.096 s
          | Boundary condition initalization           :        0.037 s           0.038 s
          | Grid partitioning                          :        0.027 s           0.027 s
          | Preloading free-atom quantities on grid    :        0.001 s           0.002 s
          | Free-atom superposition energy             :        0.029 s           0.028 s
          | Total time for integrations                :        6.837 s           6.837 s
          | Total time for solution of K.-S. equations :        0.114 s           0.111 s
          | Total time for density update              :        9.981 s           9.978 s
          | Total time for mixing & preconditioning    :        0.564 s           0.565 s
          | Total time for Hartree multipole update    :        0.011 s           0.009 s
          | Total time for Hartree multipole sum       :        5.609 s           5.611 s
          | Total time for total energy evaluation     :        0.001 s           0.003 s
          | Total time for scaled ZORA corrections     :        0.000 s           0.000 s

 This is a stub MPI_ALLREDUCE call.
 You should not be here. Check your
 setting on the use_mpi variable, or
 link against true MPI-libraries.
