------------------------------------------------------------
          Invoking FHI-aims ...
          Version 171221_1
          Compiled on 2019/05/06 at 14:26:40 on host ffph0xx.

          When using FHI-aims, please cite the following reference:

          Volker Blum, Ralf Gehrke, Felix Hanke, Paula Havu,
          Ville Havu, Xinguo Ren, Karsten Reuter, and Matthias Scheffler,
          'Ab Initio Molecular Simulations with Numeric Atom-Centered Orbitals',
          Computer Physics Communications 180, 2175-2196 (2009)

          For any questions about FHI-aims, please visit the aimsclub website
          with its forums and wiki. Contributions to both the forums and the
          wiki are warmly encouraged - they are for you, and everyone is welcome there.

------------------------------------------------------------



  Date     :  20190508, Time     :  170409.437
  Time zero on CPU 1             :   0.788000000000000E-03  s.
  Internal wall clock time zero  :           326567049.437  s.

  FHI-aims created a unique identifier for this run for later identification
  aims_uuid : A47057D9-5E9C-465A-A170-54CB87EC278E


  Performing system and environment tests:
  *** Environment variable OMP_NUM_THREADS is not set
  *** For performance reasons you might want to set it to 1
  | Stacksize not measured: no C compiler

  Obtaining array dimensions for all initial allocations:
  
  -----------------------------------------------------------------------
  Parsing control.in (first pass over file, find array dimensions only).
  The contents of control.in will be repeated verbatim below
  unless switched off by setting 'verbatim_writeout .false.' .
  in the first line of control.in .
  -----------------------------------------------------------------------
  
  # Relaxation of the H3O+ molecule
  #--- Method ---
    xc  pw-lda
    charge 1.0 # this gives the cation
    spin none
  
  #######Iteration limit####################
    sc_iter_limit 100
  
  #######Relaxation######################
    #####################relax_geometry trm 1E-3
  
  #######Species#########################
  ################################################################################
  #
  #  FHI-aims code project
  #  VB, Fritz-Haber Institut, 2009
  #
  #  Suggested "light" defaults for H atom (to be pasted into control.in file)
  #  Be sure to double-check any results obtained with these settings for post-processing,
  #  e.g., with the "tight" defaults and larger basis sets.
  #
  ################################################################################
    species        H
  #     global species definitions
      nucleus             1
      mass                1.00794
  #
      l_hartree           4
  #
      cut_pot             3.5  1.5  1.0
      basis_dep_cutoff    1e-4
  #
      radial_base         24 5.0
      radial_multiplier   1
      angular_grids       specified
        division   0.2421   50
        division   0.3822  110
        division   0.4799  194
        division   0.5341  302
  #      division   0.5626  434
  #      division   0.5922  590
  #      division   0.6542  770
  #      division   0.6868 1202
  #      outer_grid  770
        outer_grid  302
  ################################################################################
  #
  #  Definition of "minimal" basis
  #
  ################################################################################
  #     valence basis states
      valence      1  s   1.
  #     ion occupancy
      ion_occ      1  s   0.5
  ################################################################################
  #
  #  Suggested additional basis functions. For production calculations,
  #  uncomment them one after another (the most important basis functions are
  #  listed first).
  #
  #  Basis constructed for dimers: 0.5 A, 0.7 A, 1.0 A, 1.5 A, 2.5 A
  #
  ################################################################################
  #  "First tier" - improvements: -1014.90 meV to -62.69 meV
       hydro 2 s 2.1
       hydro 2 p 3.5
  #  "Second tier" - improvements: -12.89 meV to -1.83 meV
  #     hydro 1 s 0.85
  #     hydro 2 p 3.7
  #     hydro 2 s 1.2
  #     hydro 3 d 7
  #  "Third tier" - improvements: -0.25 meV to -0.12 meV
  #     hydro 4 f 11.2
  #     hydro 3 p 4.8
  #     hydro 4 d 9
  #     hydro 3 s 3.2
  ################################################################################
  #
  #  FHI-aims code project
  #  VB, Fritz-Haber Institut, 2009
  #
  #  Suggested "light" defaults for O atom (to be pasted into control.in file)
  #  Be sure to double-check any results obtained with these settings for post-processing,
  #  e.g., with the "tight" defaults and larger basis sets.
  #
  ################################################################################
    species        O
  #     global species definitions
      nucleus             8
      mass                15.9994
  #
      l_hartree           4
  #
      cut_pot             3.5  1.5  1.0
      basis_dep_cutoff    1e-4
  #
      radial_base         36 5.0
      radial_multiplier   1
       angular_grids specified
        division   0.2659   50
        division   0.4451  110
        division   0.6052  194
        division   0.7543  302
  #      division   0.8014  434
  #      division   0.8507  590
  #      division   0.8762  770
  #      division   0.9023  974
  #      division   1.2339 1202
  #      outer_grid 974
        outer_grid 302
  ################################################################################
  #
  #  Definition of "minimal" basis
  #
  ################################################################################
  #     valence basis states
      valence      2  s   2.
      valence      2  p   4.
  #     ion occupancy
      ion_occ      2  s   1.
      ion_occ      2  p   3.
  ################################################################################
  #
  #  Suggested additional basis functions. For production calculations,
  #  uncomment them one after another (the most important basis functions are
  #  listed first).
  #
  #  Constructed for dimers: 1.0 A, 1.208 A, 1.5 A, 2.0 A, 3.0 A
  #
  ################################################################################
  #  "First tier" - improvements: -699.05 meV to -159.38 meV
       hydro 2 p 1.8
       hydro 3 d 7.6
       hydro 3 s 6.4
  #  "Second tier" - improvements: -49.91 meV to -5.39 meV
  #     hydro 4 f 11.6
  #     hydro 3 p 6.2
  #     hydro 3 d 5.6
  #     hydro 5 g 17.6
  #     hydro 1 s 0.75
  #  "Third tier" - improvements: -2.83 meV to -0.50 meV
  #     ionic 2 p auto
  #     hydro 4 f 10.8
  #     hydro 4 d 4.7
  #     hydro 2 s 6.8
  #  "Fourth tier" - improvements: -0.40 meV to -0.12 meV
  #     hydro 3 p 5
  #     hydro 3 s 3.3
  #     hydro 5 g 15.6
  #     hydro 4 f 17.6
  #     hydro 4 d 14
  # Further basis functions - -0.08 meV and below
  #     hydro 3 s 2.1
  #     hydro 4 d 11.6
  #     hydro 3 p 16
  #     hydro 2 s 17.2
  /afs/ictp.it/public/shared/smr2475/fhi-aims/species_defaults/light/01_H_default
  compute_forces .true.
  final_forces_cleaned .true.
  output dipole
  
  -----------------------------------------------------------------------
  Completed first pass over input file control.in .
  -----------------------------------------------------------------------
  
  
  -----------------------------------------------------------------------
  Parsing geometry.in (first pass over file, find array dimensions only).
  The contents of geometry.in will be repeated verbatim below
  unless switched off by setting 'verbatim_writeout .false.' .
  in the first line of geometry.in .
  -----------------------------------------------------------------------
  
  #
  # temporary structure-file for finite-difference calculation of forces
  # displacement  -0.0020 of \# atom     3 direction     1
  #
  atom   -0.00000000   -0.00002910    0.00000000   O
  atom    0.85488761   -0.49352200   -0.00000000   H
  atom   -0.85488761   -0.49352200   -0.00000000   H
  atom   -0.00000000    0.98507310   -0.00000000   H
  
  -----------------------------------------------------------------------
  Completed first pass over input file geometry.in .
  -----------------------------------------------------------------------
  

  Basic array size parameters:
  | Number of species                 :        2
  | Number of atoms                   :        4
  | Max. basis fn. angular momentum   :        2
  | Max. atomic/ionic basis occupied n:        2
  | Max. number of basis fn. types    :        2
  | Max. radial fns per species/type  :        3
  | Max. logarithmic grid size        :     1301
  | Max. radial integration grid size :       36
  | Max. angular integration grid size:      302
  | Max. angular grid division number :        8
  | Radial grid for Hartree potential :     1301
  | Number of spin channels           :        1

------------------------------------------------------------
          Reading file control.in.
------------------------------------------------------------
  XC: Using Perdew-Wang parametrisation of Ceperley-Alder LDA.
  Charged system requested: Charge =   0.100000E+01.
  Spin treatment: No spin polarisation.
  Maximum number of s.-c. iterations  :   100

  Reading configuration options for species H                   .
  | Found nuclear charge :   1.0000
  | Found atomic mass :    1.0079400000000001      amu
  | Found l_max for Hartree potential  :   4
  | Found cutoff potl. onset [A], width [A], scale factor :    3.50000    1.50000    1.00000
  | Threshold for basis-dependent cutoff potential is   0.100000E-03
  | Found data for basic radial integration grid :    24 points, outermost radius =    5.000 A
  | Found multiplier for basic radial grid :   1
  | Found angular grid specification: user-specified.
  | Specified grid contains     5 separate shells.
  | Check grid settings after all constraints further below.
  | Found free-atom valence shell :  1 s   1.000
  | No ionic wave fns used. Skipping ion_occ.
  | Found hydrogenic basis function :  2 s   2.100
  | Found hydrogenic basis function :  2 p   3.500
  Species H                   : Missing cutoff potential type.
  Defaulting to exp(1/x)/(1-x)^2 type cutoff potential.
  Species H : No 'logarithmic' tag. Using default grid for free atom:
  | Default logarithmic grid data [bohr] : 0.1000E-03 0.1000E+03 0.1012E+01
  Species H : On-site basis accuracy parameter (for Gram-Schmidt orthonormalisation) not specified.
  Using default value basis_acc =  0.1000000E-03.
  Species H                   : Using default innermost maximum threshold i_radial=  2 for radial functions.
  Species H                   : Default cutoff onset for free atom density etc. : 0.35000000E+01 AA.
  Species H                   : Basic radial grid will be enhanced according to radial_multiplier =   1, to contain    24 grid points.

  Reading configuration options for species O                   .
  | Found nuclear charge :   8.0000
  | Found atomic mass :    15.999400000000000      amu
  | Found l_max for Hartree potential  :   4
  | Found cutoff potl. onset [A], width [A], scale factor :    3.50000    1.50000    1.00000
  | Threshold for basis-dependent cutoff potential is   0.100000E-03
  | Found data for basic radial integration grid :    36 points, outermost radius =    5.000 A
  | Found multiplier for basic radial grid :   1
  | Found angular grid specification: user-specified.
  | Specified grid contains     5 separate shells.
  | Check grid settings after all constraints further below.
  | Found free-atom valence shell :  2 s   2.000
  | Found free-atom valence shell :  2 p   4.000
  | No ionic wave fns used. Skipping ion_occ.
  | No ionic wave fns used. Skipping ion_occ.
  | Found hydrogenic basis function :  2 p   1.800
  | Found hydrogenic basis function :  3 d   7.600
  | Found hydrogenic basis function :  3 s   6.400
  Species O                   : Missing cutoff potential type.
  Defaulting to exp(1/x)/(1-x)^2 type cutoff potential.
  Species O : No 'logarithmic' tag. Using default grid for free atom:
  | Default logarithmic grid data [bohr] : 0.1000E-03 0.1000E+03 0.1012E+01
  Species O : On-site basis accuracy parameter (for Gram-Schmidt orthonormalisation) not specified.
  Using default value basis_acc =  0.1000000E-03.
  Species O                   : Using default innermost maximum threshold i_radial=  2 for radial functions.
  Species O                   : Default cutoff onset for free atom density etc. : 0.35000000E+01 AA.
  Species O                   : Basic radial grid will be enhanced according to radial_multiplier =   1, to contain    36 grid points.
  Forces will be computed.
  Cleaning forces before final output.
  Dipole moment will be written out.

  Finished reading input file 'control.in'. Consistency checks are next.

  MPI_IN_PLACE appears to work with this MPI implementation.
  | Keeping use_mpi_in_place .true. (see manual).
  Target number of points in a grid batch is not set. Defaulting to  100
  Method for grid partitioning is not set. Defaulting to 'maxmin' partitioning.
  Batch size limit is not set. Defaulting to    200
  By default, will store active basis functions for each batch.
  If in need of memory, prune_basis_once .false. can be used to disable this option.
  communication_type for Hartree potential was not specified.
  Defaulting to calc_hartree .
 * Attention: 
 * You may want to set distributed_spline_storage to .true. in order to save memory.
 * This doesn't harm performance and is perfectly ok unless:
 * - you get error messages in postprocessing (about missing atoms in get_rho_multipole_spl)
 * - you need full spline storage in hirshfeld_analysis
  Defaulting to Pulay charge density mixer.
  Pulay mixer: Number of relevant iterations not set.
  Defaulting to    8 iterations.
  Pulay mixer: Number of initial linear mixing iterations not set.
  Defaulting to    0 iterations.
  Work space size for distributed Hartree potential not set.
  Defaulting to   0.200000E+03 MB.
  Mixing parameter for charge density mixing has not been set.
  Using default: charge_mix_param =     0.0500.
  The mixing parameter will be adjusted in iteration number     2 of the first full s.c.f. cycle only.
  Algorithm-dependent basis array size parameters:
  | n_max_pulay                         :        8
 * Notice: The s.c.f. convergence criterion sc_accuracy_rho was not provided.
 * We used to stop in this case, and ask the user to provide reasonable
 * scf convergence criteria. However, this led some users to employ criteria
 * that led to extremely long run times, e.g., for simple relaxation.
 * We now preset a default value for sc_accuracy_rho if it is not set.
 * You may still wish to check if this setting is too tight or too loose for your needs.
 * Based on n_atoms, FHI-aims chose sc_accuracy_rho =  0.100000E-05 .
  Presetting      1001 iterations before the initial mixing cycle
  is restarted anyway using the sc_init_iter criterion / keyword.
  Presetting a factor      1.000 between actual scf density residual
  and density convergence criterion sc_accuracy_rho below which sc_init_iter
  takes no effect.
 * No s.c.f. convergence criteria (sc_accuracy_*) were provided in control.in.
 * The run will proceed with a reasonable default guess, but please check whether.
 * the s.c.f. cycles seem to take too much or too little time.
  Geometry relaxation not requested: no relaxation will be performed.
  Force calculation: scf convergence accuracy of forces not set.
  Defaulting to 'sc_accuracy_forces not_checked'.
  Handling of forces: Unphysical translation and rotation will be removed from forces.
  No accuracy limit for integral partition fn. given. Defaulting to  0.1000E-14.
  No threshold value for u(r) in integrations given. Defaulting to  0.1000E-05.
  No occupation type (smearing scheme) given. Defaulting to Gaussian broadening, width =  0.1000E-01 eV.
  The width will be adjusted in iteration number     2 of the first full s.c.f. cycle only.
  S.C.F. convergence parameters will be adjusted in iteration number     2 of the first full s.c.f. cycle only.
  No accuracy for occupation numbers given. Defaulting to  0.1000E-12.
  No threshold value for occupation numbers given. Defaulting to  0.0000E+00.
  No accuracy for fermi level given. Defaulting to  0.1000E-19.
  Maximum # of iterations to find E_F not set. Defaulting to  200.
  Preferred method for the eigenvalue solver ('KS_method') not specified in 'control.in'.
  Defaulting to serial version, 'lapack_fast'.
  Will not use alltoall communication since running on < 1024 CPUs.
  Threshold for basis singularities not set.
  Default threshold for basis singularities:  0.1000E-04
  partition_type (choice of integration weights) for integrals was not specified.
  | Using a version of the partition function of Stratmann and coworkers ('stratmann_smoother').
  | At each grid point, the set of atoms used to build the partition table is smoothly restricted to
  | only those atoms whose free-atom density would be non-zero at that grid point.
  Partitioning for Hartree potential was not defined. Using partition_type for integrals.
  | Adjusted default value of keyword multip_moments_threshold to:       0.10000000E-11
  | This value may affect high angular momentum components of the Hartree potential in periodic systems.
  No q(lm)/r^(l+1) cutoff set for long-range Hartree potential.
  | Using default value of  0.100000E-09 .
  | Verify using the multipole_threshold keyword.
  Defaulting to new monopole extrapolation.
  Density update method: automatic selection selected.
------------------------------------------------------------


------------------------------------------------------------
          Reading geometry description geometry.in.
------------------------------------------------------------
 * Warning: Initial charge and total charge of the system are inconsistent.
 * Selected charge in control.in:     1.0000* Sum of initial charges in geometry.in:     0.0000
 * Warning! You did not set the 'relativistic' flag in input file 'control.in'.
 * Since you are not attempting to treat any elements beyond Ca(Z=20), FHI-aims
 * will default to 'relativistic none'.
 * You must ensure that this is really what you want!!
 * For example, DO NOT compute total-energy differences between results from
 * different settings of the 'relativistic' flag.
  Input structure read successfully.
  The structure contains        4 atoms,  and a total of         10.000 electrons.

  Input geometry:
  | No unit cell requested.
  | Atomic structure:
  |       Atom                x [A]            y [A]            z [A]
  |    1: Species O            -0.00000000       -0.00002910        0.00000000
  |    2: Species H             0.85488761       -0.49352200       -0.00000000
  |    3: Species H            -0.85488761       -0.49352200       -0.00000000
  |    4: Species H            -0.00000000        0.98507310       -0.00000000
  |

  | The smallest distance between any two atoms is         0.98510220 AA.
  |
  | The first atom of this pair is atom number                      1 .
  | The second atom of this pair is atom number                     4 .

  Number of empty states per atom not set in control.in - providing a guess from actual geometry.
  | Total number of empty states used during s.c.f. cycle:        8
  If you use a very high smearing, use empty_states (per atom!) in control.in to increase this value.

  Structure-dependent array size parameters: 
  | Maximum number of distinct radial functions  :        9
  | Maximum number of basis functions            :       29
  | Number of Kohn-Sham states (occupied + empty):       13
------------------------------------------------------------

------------------------------------------------------------
          Preparing all fixed parts of the calculation.
------------------------------------------------------------
  Determining machine precision:
     2.2250738585072014E-308
  Setting up grids for atomic and cluster calculations.

  Creating wave function, potential, and density for free atoms.

  Species: H

  List of occupied orbitals and eigenvalues:
    n    l              occ      energy [Ha]    energy [eV]
    1    0           1.0000        -0.232375        -6.3233


  Species: O

  List of occupied orbitals and eigenvalues:
    n    l              occ      energy [Ha]    energy [eV]
    1    0           2.0000       -18.757744      -510.4242
    2    0           2.0000        -0.870917       -23.6989
    2    1           4.0000        -0.337950        -9.1961

  Creating fixed part of basis set: Ionic, confined, hydrogenic.

  H                    hydrogenic:

  List of hydrogenic basis orbitals: 
    n    l      effective z      eigenvalue [eV]  inner max. [A]     outer max. [A]     outer radius [A]   
    2    0         2.100000       -14.9728           0.193243           1.317208           4.583499
    2    1         3.500000       -41.6669           0.602369           0.602369           3.723403


  O                    hydrogenic:

  List of hydrogenic basis orbitals: 
    n    l      effective z      eigenvalue [eV]  inner max. [A]     outer max. [A]     outer radius [A]   
    2    1         1.800000       -10.9749           1.164242           1.164242           4.578029
    3    2         7.600000       -87.3180           0.624125           0.624125           3.251020
    3    0         6.400000       -61.9207           0.061167           1.081902           4.001998


  Adding cutoff potential to free-atom effective potential.
  Creating atomic-like basis functions for current effective potential.

  Species H                   :

  List of atomic basis orbitals and eigenvalues:
    n    l      energy [Ha]    energy [eV]    outer radius [A]
    1    0        -0.232375        -6.3233       4.527807


  Species O                   :

  List of atomic basis orbitals and eigenvalues:
    n    l      energy [Ha]    energy [eV]    outer radius [A]
    1    0       -18.757744      -510.4242       1.433179
    2    0        -0.870917       -23.6989       4.413171
    2    1        -0.337950        -9.1961       4.522403

  Assembling full basis from fixed parts.
  | Species H :   atomic orbital   1 s accepted.
  | Species H :    hydro orbital   2 s accepted.
  | Species H :    hydro orbital   2 p accepted.
  | Species O :   atomic orbital   1 s accepted.
  | Species O :    hydro orbital   3 s accepted.
  | Species O :   atomic orbital   2 s accepted.
  | Species O :   atomic orbital   2 p accepted.
  | Species O :    hydro orbital   2 p accepted.
  | Species O :    hydro orbital   3 d accepted.

  Basis size parameters after reduction:
  | Total number of radial functions:        9
  | Total number of basis functions :       29

  Per-task memory consumption for arrays in subroutine allocate_ext:
  |           2.249476MB.
  Testing on-site integration grid accuracy.
  |  Species  Function  <phi|h_atom|phi> (log., in eV)  <phi|h_atom|phi> (rad., in eV)
           1        1                 -6.3245358373                 -6.3232436907
           1        2                 14.1326137532                 14.1384481100
           1        3                 25.3627025200                 25.3628451197
           2        4               -510.4241781769               -510.4240769412
           2        5                 14.9072942218                 14.9072945276
           2        6                -21.2004736467                -21.2005650544
           2        7                 -9.1962086499                 -9.1963509828
           2        8                  8.1896755011                  8.1702200086
           2        9                 45.7920584945                 45.7920228528

  Preparing densities etc. for the partition functions (integrals / Hartree potential).

  Preparations completed.
  max(cpu_time)          :      0.047 s.
  Wall clock time (cpu1) :      0.046 s.
------------------------------------------------------------

------------------------------------------------------------
          Begin self-consistency loop: Initialization.

          Date     :  20190508, Time     :  170409.485
------------------------------------------------------------

  Initializing index lists of integration centers etc. from given atomic structure:
  | Number of centers in hartree potential         :         4
  | Number of centers in hartree multipole         :         4
  | Number of centers in electron density summation:         4
  | Number of centers in basis integrals           :         4
  | Number of centers in integrals                 :         4
  | Number of centers in hamiltonian               :         4
  Partitioning the integration grid into batches with maxmin method.
  | Maximal weight for a single point:     1.000
  | Minimal weight for a single point:     0.000
  | Number of batches:      256
  | Maximal batch size:      90
  | Minimal batch size:      72
  | Average batch size:      80.719
  | Standard deviation of batch sizes:       6.450
  Initializing partition tables, free-atom densities, potentials, etc. across the integration grid (initialize_grid_storage).
  | initialize_grid_storage: Actual outermost partition radius vs. multipole_radius_free
  | (-- VB: in principle, multipole_radius_free should be larger, hence this output)
  | Species        1: Confinement radius =              4.999999999999999 AA, multipole_radius_free =              5.054417573612229 AA.
  | Species        1: outer_partition_radius set to              5.054417573612229 AA .
  | Species        2: Confinement radius =              4.999999999999999 AA, multipole_radius_free =              5.048384829883283 AA.
  | Species        2: outer_partition_radius set to              5.048384829883283 AA .
  | Original list of interatomic distances with           4 x          4 entries is created.
  | Net number of integration points:    20664
  | of which are non-zero points    :    18430
  Renormalizing the initial density to the exact electron count on the 3D integration grid.
  | Initial density: Formal number of electrons (from input files) :      11.0000000000
  | Integrated number of electrons on 3D grid     :      10.9999404010
  | Charge integration error                      :      -0.0000595990
  | Normalization factor for density and gradient :       1.0000054181
  Obtaining max. number of non-zero basis functions in each batch (get_n_compute_maxes).
  | Maximal number of non-zero basis functions:       29 in task     0
  Selecting the method for density update.
  Loop over occupied states selected for charge density update.
  Allocating        0.003 MB for KS_eigenvector
  Integrating Hamiltonian matrix: batch-based integration.
  Time summed over all CPUs for integration: real work        0.028 s, elapsed        0.028 s
  Integrating overlap matrix.
  Time summed over all CPUs for integration: real work        0.015 s, elapsed        0.015 s

  Updating Kohn-Sham eigenvalues, eigenvectors, occupation numbers, and Fermi level.
  Solving generalized eigenproblem
  Updating Kohn-Sham eigenvalues and eigenfunctions.
  Transforming overlap matrix and checking for singularities.
  Overlap matrix is nonsingular:
  | Lowest eigenvalue:  0.120168E-01
  Solving real generalised eigenvalue problem by standard LAPACK (fast)

  Obtaining occupation numbers and chemical potential using ELSI.
  | Chemical potential (Fermi level):    -6.56561071eV
  Writing Kohn-Sham eigenvalues.

  State    Occupation    Eigenvalue [Ha]    Eigenvalue [eV]
      1       2.00000         -18.915354         -514.71297
      2       2.00000          -1.148949          -31.26449
      3       2.00000          -0.685937          -18.66530
      4       2.00000          -0.685349          -18.64931
      5       2.00000          -0.492209          -13.39368
      6       0.00000          -0.091468           -2.48897
      7       0.00000           0.005440            0.14803
      8       0.00000           0.005990            0.16301
      9       0.00000           0.209601            5.70355
     10       0.00000           0.264593            7.19995
     11       0.00000           0.265015            7.21142
     12       0.00000           0.427996           11.64637
     13       0.00000           0.677115           18.42524

  Highest occupied state (VBM) at    -13.39368169 eV
  | Occupation number:      2.00000000

  Lowest unoccupied state (CBM) at    -2.48896676 eV
  | Occupation number:      0.00000000

  Overall HOMO-LUMO gap:     10.90471492 eV.
  Calculating total energy contributions from superposition of free atom densities.

  Total energy components:
  | Sum of eigenvalues            :         -43.85559579 Ha       -1193.37147958 eV
  | XC energy correction          :          -8.86509043 Ha        -241.23138444 eV
  | XC potential correction       :          11.67327966 Ha         317.64610129 eV
  | Free-atom electrostatic energy:         -35.26369377 Ha        -959.57393019 eV
  | Hartree energy correction     :          -0.00000000 Ha          -0.00000000 eV
  | Entropy correction            :          -0.00000000 Ha          -0.00000000 eV
  | ---------------------------
  | Total energy                  :         -76.31110034 Ha       -2076.53069293 eV
  | Total energy, T -> 0          :         -76.31110034 Ha       -2076.53069293 eV  <-- do not rely on this value for anything but (periodic) metals
  | Electronic free energy        :         -76.31110034 Ha       -2076.53069293 eV

  Derived energy quantities:
  | Kinetic energy                :          75.66728721 Ha        2059.01164637 eV
  | Electrostatic energy          :        -143.11329712 Ha       -3894.31095486 eV
  | Energy correction for multipole
  | error in Hartree potential    :           0.00000000 Ha           0.00000000 eV
  | Sum of eigenvalues per atom                           :        -298.34286990 eV
  | Total energy (T->0) per atom                          :        -519.13267323 eV  <-- do not rely on this value for anything but (periodic) metals
  | Electronic free energy per atom                       :        -519.13267323 eV
  Initialize hartree_potential_storage
  Max. number of atoms included in rho_multipole:            4

  End scf initialization - timings             :  max(cpu_time)    wall_clock(cpu1)
  | Time for scf. initialization               :        0.085 s           0.085 s
  | Boundary condition initialization          :        0.000 s           0.001 s
  | Integration                                :        0.043 s           0.043 s
  | Solution of K.-S. eqns.                    :        0.001 s           0.000 s
  | Grid partitioning                          :        0.014 s           0.014 s
  | Preloading free-atom quantities on grid    :        0.001 s           0.001 s
  | Free-atom superposition energy             :        0.013 s           0.013 s
  | Total energy evaluation                    :        0.000 s           0.000 s

  Partial memory accounting:
  | Current value for overall tracked memory usage on task 0  :           0.017 MB
  | Peak value for overall tracked memory usage on task 0     :           0.080 MB after allocating wave
  | Largest tracked array allocation on task 0 so far         :           0.021 MB  when allocating H_times_psi
  Note:  These values currently only include a subset of arrays which are explicitly tracked.
  The "true" memory usage will be greater.
------------------------------------------------------------

------------------------------------------------------------
          Begin self-consistency iteration #    1

  Date     :  20190508, Time     :  170409.570
------------------------------------------------------------
  Evaluating new KS density.
  Integration grid: deviation in total charge (<rho> - N_e) =  -1.421085E-14
  Pulay mixing of updated and previous charge densities.

  Evaluating partitioned Hartree potential by multipole expansion.
  | Analytical far-field extrapolation by fixed multipoles:
  | Hartree multipole sum: apparent total charge =   0.499199E-01
  Summing up the Hartree potential.
  Time summed over all CPUs for potential: real work        0.017 s, elapsed        0.017 s
  | RMS charge density error from multipole expansion :   0.543143E-03

  Integrating Hamiltonian matrix: batch-based integration.
  Time summed over all CPUs for integration: real work        0.029 s, elapsed        0.029 s

  Updating Kohn-Sham eigenvalues, eigenvectors, occupation numbers, and Fermi level.
  Solving generalized eigenproblem
  Updating Kohn-Sham eigenvalues and eigenfunctions.
  Solving real generalised eigenvalue problem by standard LAPACK (fast)

  Obtaining occupation numbers and chemical potential using ELSI.
  | Chemical potential (Fermi level):    -6.76890406eV
  Writing Kohn-Sham eigenvalues.

  State    Occupation    Eigenvalue [Ha]    Eigenvalue [eV]
      1       2.00000         -18.904387         -514.41456
      2       2.00000          -1.152259          -31.35455
      3       2.00000          -0.690820          -18.79816
      4       2.00000          -0.690245          -18.78252
      5       2.00000          -0.494286          -13.45020
      6       0.00000          -0.101505           -2.76210
      7       0.00000          -0.003803           -0.10348
      8       0.00000          -0.003241           -0.08818
      9       0.00000           0.202578            5.51243
     10       0.00000           0.254438            6.92362
     11       0.00000           0.254869            6.93533
     12       0.00000           0.417751           11.36759
     13       0.00000           0.668738           18.19728

  Highest occupied state (VBM) at    -13.45019596 eV
  | Occupation number:      2.00000000

  Lowest unoccupied state (CBM) at    -2.76209944 eV
  | Occupation number:      0.00000000

  Overall HOMO-LUMO gap:     10.68809651 eV.

  Total energy components:
  | Sum of eigenvalues            :         -43.86399259 Ha       -1193.59996813 eV
  | XC energy correction          :          -8.86900379 Ha        -241.33787219 eV
  | XC potential correction       :          11.67865912 Ha         317.79248368 eV
  | Free-atom electrostatic energy:         -35.26369377 Ha        -959.57393019 eV
  | Hartree energy correction     :           0.02500020 Ha           0.68029004 eV
  | Entropy correction            :          -0.00000000 Ha          -0.00000000 eV
  | ---------------------------
  | Total energy                  :         -76.29303084 Ha       -2076.03899680 eV
  | Total energy, T -> 0          :         -76.29303084 Ha       -2076.03899680 eV  <-- do not rely on this value for anything but (periodic) metals
  | Electronic free energy        :         -76.29303084 Ha       -2076.03899680 eV

  Derived energy quantities:
  | Kinetic energy                :          75.76093020 Ha        2061.55980172 eV
  | Electrostatic energy          :        -143.18495725 Ha       -3896.26092633 eV
  | Energy correction for multipole
  | error in Hartree potential    :           0.00057195 Ha           0.01556369 eV
  | Sum of eigenvalues per atom                           :        -298.39999203 eV
  | Total energy (T->0) per atom                          :        -519.00974920 eV  <-- do not rely on this value for anything but (periodic) metals
  | Electronic free energy per atom                       :        -519.00974920 eV

  Self-consistency convergence accuracy:
  | Change of charge density      :  0.2705E+00
  | Change of sum of eigenvalues  : -0.2285E+00 eV
  | Change of total energy        :  0.4917E+00 eV

  End self-consistency iteration #     1       :  max(cpu_time)    wall_clock(cpu1)
  | Time for this iteration                    :        0.061 s           0.061 s
  | Charge density update                      :        0.013 s           0.013 s
  | Density mixing                             :        0.000 s           0.000 s
  | Hartree multipole update                   :        0.001 s           0.002 s
  | Hartree multipole summation                :        0.017 s           0.017 s
  | Integration                                :        0.029 s           0.029 s
  | Solution of K.-S. eqns.                    :        0.000 s           0.000 s
  | Total energy evaluation                    :        0.000 s           0.000 s

  Partial memory accounting:
  | Current value for overall tracked memory usage on task 0  :           0.017 MB
  | Peak value for overall tracked memory usage on task 0     :           0.086 MB after allocating wave
  | Largest tracked array allocation on task 0 so far         :           0.021 MB  when allocating H_times_psi
  Note:  These values currently only include a subset of arrays which are explicitly tracked.
  The "true" memory usage will be greater.
------------------------------------------------------------

------------------------------------------------------------
          Begin self-consistency iteration #    2

  Date     :  20190508, Time     :  170409.631
------------------------------------------------------------
  Evaluating new KS density.
  Integration grid: deviation in total charge (<rho> - N_e) =   3.730349E-14
  Pulay mixing of updated and previous charge densities.

  Evaluating partitioned Hartree potential by multipole expansion.
  | Analytical far-field extrapolation by fixed multipoles:
  | Hartree multipole sum: apparent total charge =   0.445245E+00
  Summing up the Hartree potential.
  Time summed over all CPUs for potential: real work        0.017 s, elapsed        0.017 s
  | RMS charge density error from multipole expansion :   0.478120E-02

  Integrating Hamiltonian matrix: batch-based integration.
  Time summed over all CPUs for integration: real work        0.029 s, elapsed        0.029 s

  Updating Kohn-Sham eigenvalues, eigenvectors, occupation numbers, and Fermi level.
  Solving generalized eigenproblem
  Updating Kohn-Sham eigenvalues and eigenfunctions.
  Solving real generalised eigenvalue problem by standard LAPACK (fast)

  Obtaining occupation numbers and chemical potential using ELSI.
  | Chemical potential (Fermi level):    -8.41486960eV
  Highest occupied state (VBM) at    -14.14894158 eV
  | Occupation number:      2.00000000

  Lowest unoccupied state (CBM) at    -4.89099337 eV
  | Occupation number:      0.00000000

  Overall HOMO-LUMO gap:      9.25794821 eV.

  Checking to see if s.c.f. parameters should be adjusted.
  The system likely has a gap. Increased the default Pulay mixing parameter (charge_mix_param). Value:   0.200000 .
  Kept the default occupation width. Value:   0.010000 eV.

  Total energy components:
  | Sum of eigenvalues            :         -44.03490392 Ha       -1198.25070208 eV
  | XC energy correction          :          -8.89903568 Ha        -242.15508162 eV
  | XC potential correction       :          11.71991404 Ha         318.91508717 eV
  | Free-atom electrostatic energy:         -35.26369377 Ha        -959.57393019 eV
  | Hartree energy correction     :           0.27344672 Ha           7.44086375 eV
  | Entropy correction            :          -0.00000000 Ha          -0.00000000 eV
  | ---------------------------
  | Total energy                  :         -76.20427263 Ha       -2073.62376298 eV
  | Total energy, T -> 0          :         -76.20427263 Ha       -2073.62376298 eV  <-- do not rely on this value for anything but (periodic) metals
  | Electronic free energy        :         -76.20427263 Ha       -2073.62376298 eV

  Derived energy quantities:
  | Kinetic energy                :          76.33484457 Ha        2077.17680628 eV
  | Electrostatic energy          :        -143.64008151 Ha       -3908.64548765 eV
  | Energy correction for multipole
  | error in Hartree potential    :           0.00479471 Ha           0.13047078 eV
  | Sum of eigenvalues per atom                           :        -299.56267552 eV
  | Total energy (T->0) per atom                          :        -518.40594075 eV  <-- do not rely on this value for anything but (periodic) metals
  | Electronic free energy per atom                       :        -518.40594075 eV

  Self-consistency convergence accuracy:
  | Change of charge density      :  0.2444E+00
  | Change of sum of eigenvalues  : -0.4651E+01 eV
  | Change of total energy        :  0.2415E+01 eV

  End self-consistency iteration #     2       :  max(cpu_time)    wall_clock(cpu1)
  | Time for this iteration                    :        0.060 s           0.060 s
  | Charge density update                      :        0.011 s           0.012 s
  | Density mixing                             :        0.000 s           0.000 s
  | Hartree multipole update                   :        0.001 s           0.001 s
  | Hartree multipole summation                :        0.017 s           0.017 s
  | Integration                                :        0.030 s           0.029 s
  | Solution of K.-S. eqns.                    :        0.000 s           0.001 s
  | Total energy evaluation                    :        0.000 s           0.000 s

  Partial memory accounting:
  | Current value for overall tracked memory usage on task 0  :           0.018 MB
  | Peak value for overall tracked memory usage on task 0     :           0.087 MB after allocating wave
  | Largest tracked array allocation on task 0 so far         :           0.021 MB  when allocating H_times_psi
  Note:  These values currently only include a subset of arrays which are explicitly tracked.
  The "true" memory usage will be greater.
------------------------------------------------------------

------------------------------------------------------------
          Begin self-consistency iteration #    3

  Date     :  20190508, Time     :  170409.691
------------------------------------------------------------
  Evaluating new KS density.
  Integration grid: deviation in total charge (<rho> - N_e) =   1.598721E-14
  Pulay mixing of updated and previous charge densities.

  Evaluating partitioned Hartree potential by multipole expansion.
  | Analytical far-field extrapolation by fixed multipoles:
  | Hartree multipole sum: apparent total charge =   0.845327E+00
  Summing up the Hartree potential.
  Time summed over all CPUs for potential: real work        0.016 s, elapsed        0.016 s
  | RMS charge density error from multipole expansion :   0.870365E-02

  Integrating Hamiltonian matrix: batch-based integration.
  Time summed over all CPUs for integration: real work        0.029 s, elapsed        0.029 s

  Updating Kohn-Sham eigenvalues, eigenvectors, occupation numbers, and Fermi level.
  Solving generalized eigenproblem
  Updating Kohn-Sham eigenvalues and eigenfunctions.
  Solving real generalised eigenvalue problem by standard LAPACK (fast)

  Obtaining occupation numbers and chemical potential using ELSI.
  | Chemical potential (Fermi level):   -11.25490920eV
  Highest occupied state (VBM) at    -17.61176721 eV
  | Occupation number:      2.00000000

  Lowest unoccupied state (CBM) at    -7.49430609 eV
  | Occupation number:      0.00000000

  Overall HOMO-LUMO gap:     10.11746112 eV.

  Total energy components:
  | Sum of eigenvalues            :         -45.40782438 Ha       -1235.60976841 eV
  | XC energy correction          :          -8.80105355 Ha        -239.48885226 eV
  | XC potential correction       :          11.59185200 Ha         315.43034184 eV
  | Free-atom electrostatic energy:         -35.26369377 Ha        -959.57393019 eV
  | Hartree energy correction     :           1.70675906 Ha          46.44327711 eV
  | Entropy correction            :          -0.00000000 Ha          -0.00000000 eV
  | ---------------------------
  | Total energy                  :         -76.17396064 Ha       -2072.79893191 eV
  | Total energy, T -> 0          :         -76.17396064 Ha       -2072.79893191 eV  <-- do not rely on this value for anything but (periodic) metals
  | Electronic free energy        :         -76.17396064 Ha       -2072.79893191 eV

  Derived energy quantities:
  | Kinetic energy                :          75.81291330 Ha        2062.97433396 eV
  | Electrostatic energy          :        -143.18582039 Ha       -3896.28441361 eV
  | Energy correction for multipole
  | error in Hartree potential    :           0.00604350 Ha           0.16445206 eV
  | Sum of eigenvalues per atom                           :        -308.90244210 eV
  | Total energy (T->0) per atom                          :        -518.19973298 eV  <-- do not rely on this value for anything but (periodic) metals
  | Electronic free energy per atom                       :        -518.19973298 eV

  Self-consistency convergence accuracy:
  | Change of charge density      :  0.1101E+00
  | Change of sum of eigenvalues  : -0.3736E+02 eV
  | Change of total energy        :  0.8248E+00 eV

  End self-consistency iteration #     3       :  max(cpu_time)    wall_clock(cpu1)
  | Time for this iteration                    :        0.059 s           0.059 s
  | Charge density update                      :        0.012 s           0.012 s
  | Density mixing                             :        0.000 s           0.000 s
  | Hartree multipole update                   :        0.001 s           0.002 s
  | Hartree multipole summation                :        0.017 s           0.016 s
  | Integration                                :        0.029 s           0.029 s
  | Solution of K.-S. eqns.                    :        0.000 s           0.000 s
  | Total energy evaluation                    :        0.000 s           0.000 s

  Partial memory accounting:
  | Current value for overall tracked memory usage on task 0  :           0.018 MB
  | Peak value for overall tracked memory usage on task 0     :           0.088 MB after allocating wave
  | Largest tracked array allocation on task 0 so far         :           0.021 MB  when allocating H_times_psi
  Note:  These values currently only include a subset of arrays which are explicitly tracked.
  The "true" memory usage will be greater.
------------------------------------------------------------

------------------------------------------------------------
          Begin self-consistency iteration #    4

  Date     :  20190508, Time     :  170409.750
------------------------------------------------------------
  Evaluating new KS density.
  Integration grid: deviation in total charge (<rho> - N_e) =   0.000000E+00
  Pulay mixing of updated and previous charge densities.

  Evaluating partitioned Hartree potential by multipole expansion.
  | Analytical far-field extrapolation by fixed multipoles:
  | Hartree multipole sum: apparent total charge =   0.101134E+01
  Summing up the Hartree potential.
  Time summed over all CPUs for potential: real work        0.017 s, elapsed        0.017 s
  | RMS charge density error from multipole expansion :   0.104341E-01

  Integrating Hamiltonian matrix: batch-based integration.
  Time summed over all CPUs for integration: real work        0.028 s, elapsed        0.028 s

  Updating Kohn-Sham eigenvalues, eigenvectors, occupation numbers, and Fermi level.
  Solving generalized eigenproblem
  Updating Kohn-Sham eigenvalues and eigenfunctions.
  Solving real generalised eigenvalue problem by standard LAPACK (fast)

  Obtaining occupation numbers and chemical potential using ELSI.
  | Chemical potential (Fermi level):   -11.97727755eV
  Highest occupied state (VBM) at    -18.42539062 eV
  | Occupation number:      2.00000000

  Lowest unoccupied state (CBM) at    -8.29920573 eV
  | Occupation number:      0.00000000

  Overall HOMO-LUMO gap:     10.12618488 eV.

  Total energy components:
  | Sum of eigenvalues            :         -45.70788059 Ha       -1243.77471338 eV
  | XC energy correction          :          -8.79763382 Ha        -239.39579665 eV
  | XC potential correction       :          11.58784248 Ha         315.32123721 eV
  | Free-atom electrostatic energy:         -35.26369377 Ha        -959.57393019 eV
  | Hartree energy correction     :           2.01007114 Ha          54.69681865 eV
  | Entropy correction            :          -0.00000000 Ha          -0.00000000 eV
  | ---------------------------
  | Total energy                  :         -76.17129457 Ha       -2072.72638436 eV
  | Total energy, T -> 0          :         -76.17129457 Ha       -2072.72638436 eV  <-- do not rely on this value for anything but (periodic) metals
  | Electronic free energy        :         -76.17129457 Ha       -2072.72638436 eV

  Derived energy quantities:
  | Kinetic energy                :          75.79062884 Ha        2062.36794290 eV
  | Electrostatic energy          :        -143.16428959 Ha       -3895.69853061 eV
  | Energy correction for multipole
  | error in Hartree potential    :           0.00712070 Ha           0.19376403 eV
  | Sum of eigenvalues per atom                           :        -310.94367834 eV
  | Total energy (T->0) per atom                          :        -518.18159609 eV  <-- do not rely on this value for anything but (periodic) metals
  | Electronic free energy per atom                       :        -518.18159609 eV

  Self-consistency convergence accuracy:
  | Change of charge density      :  0.5034E-01
  | Change of sum of eigenvalues  : -0.8165E+01 eV
  | Change of total energy        :  0.7255E-01 eV

  End self-consistency iteration #     4       :  max(cpu_time)    wall_clock(cpu1)
  | Time for this iteration                    :        0.058 s           0.058 s
  | Charge density update                      :        0.011 s           0.011 s
  | Density mixing                             :        0.000 s           0.001 s
  | Hartree multipole update                   :        0.001 s           0.001 s
  | Hartree multipole summation                :        0.017 s           0.017 s
  | Integration                                :        0.028 s           0.028 s
  | Solution of K.-S. eqns.                    :        0.000 s           0.000 s
  | Total energy evaluation                    :        0.000 s           0.000 s

  Partial memory accounting:
  | Current value for overall tracked memory usage on task 0  :           0.019 MB
  | Peak value for overall tracked memory usage on task 0     :           0.088 MB after allocating wave
  | Largest tracked array allocation on task 0 so far         :           0.021 MB  when allocating H_times_psi
  Note:  These values currently only include a subset of arrays which are explicitly tracked.
  The "true" memory usage will be greater.
------------------------------------------------------------

------------------------------------------------------------
          Begin self-consistency iteration #    5

  Date     :  20190508, Time     :  170409.809
------------------------------------------------------------
  Evaluating new KS density.
  Integration grid: deviation in total charge (<rho> - N_e) =   3.552714E-15
  Pulay mixing of updated and previous charge densities.

  Evaluating partitioned Hartree potential by multipole expansion.
  | Analytical far-field extrapolation by fixed multipoles:
  | Hartree multipole sum: apparent total charge =   0.100809E+01
  Summing up the Hartree potential.
  Time summed over all CPUs for potential: real work        0.016 s, elapsed        0.016 s
  | RMS charge density error from multipole expansion :   0.104762E-01

  Integrating Hamiltonian matrix: batch-based integration.
  Time summed over all CPUs for integration: real work        0.028 s, elapsed        0.028 s

  Updating Kohn-Sham eigenvalues, eigenvectors, occupation numbers, and Fermi level.
  Solving generalized eigenproblem
  Updating Kohn-Sham eigenvalues and eigenfunctions.
  Solving real generalised eigenvalue problem by standard LAPACK (fast)

  Obtaining occupation numbers and chemical potential using ELSI.
  | Chemical potential (Fermi level):   -11.77511149eV
  Highest occupied state (VBM) at    -18.12937418 eV
  | Occupation number:      2.00000000

  Lowest unoccupied state (CBM) at    -8.14951099 eV
  | Occupation number:      0.00000000

  Overall HOMO-LUMO gap:      9.97986319 eV.

  Total energy components:
  | Sum of eigenvalues            :         -45.58930839 Ha       -1240.54819971 eV
  | XC energy correction          :          -8.81300802 Ha        -239.81414991 eV
  | XC potential correction       :          11.60807922 Ha         315.87190699 eV
  | Free-atom electrostatic energy:         -35.26369377 Ha        -959.57393019 eV
  | Hartree energy correction     :           1.88676184 Ha          51.34140199 eV
  | Entropy correction            :          -0.00000000 Ha          -0.00000000 eV
  | ---------------------------
  | Total energy                  :         -76.17116912 Ha       -2072.72297084 eV
  | Total energy, T -> 0          :         -76.17116912 Ha       -2072.72297084 eV  <-- do not rely on this value for anything but (periodic) metals
  | Electronic free energy        :         -76.17116912 Ha       -2072.72297084 eV

  Derived energy quantities:
  | Kinetic energy                :          75.84698135 Ha        2063.90137269 eV
  | Electrostatic energy          :        -143.20514245 Ha       -3896.81019362 eV
  | Energy correction for multipole
  | error in Hartree potential    :           0.00698249 Ha           0.19000313 eV
  | Sum of eigenvalues per atom                           :        -310.13704993 eV
  | Total energy (T->0) per atom                          :        -518.18074271 eV  <-- do not rely on this value for anything but (periodic) metals
  | Electronic free energy per atom                       :        -518.18074271 eV

  Self-consistency convergence accuracy:
  | Change of charge density      :  0.1087E-01
  | Change of sum of eigenvalues  :  0.3227E+01 eV
  | Change of total energy        :  0.3414E-02 eV

  End self-consistency iteration #     5       :  max(cpu_time)    wall_clock(cpu1)
  | Time for this iteration                    :        0.061 s           0.061 s
  | Charge density update                      :        0.014 s           0.014 s
  | Density mixing                             :        0.001 s           0.000 s
  | Hartree multipole update                   :        0.001 s           0.002 s
  | Hartree multipole summation                :        0.017 s           0.016 s
  | Integration                                :        0.028 s           0.028 s
  | Solution of K.-S. eqns.                    :        0.000 s           0.000 s
  | Total energy evaluation                    :        0.000 s           0.001 s

  Partial memory accounting:
  | Current value for overall tracked memory usage on task 0  :           0.019 MB
  | Peak value for overall tracked memory usage on task 0     :           0.088 MB after allocating wave
  | Largest tracked array allocation on task 0 so far         :           0.021 MB  when allocating H_times_psi
  Note:  These values currently only include a subset of arrays which are explicitly tracked.
  The "true" memory usage will be greater.
------------------------------------------------------------

------------------------------------------------------------
          Begin self-consistency iteration #    6

  Date     :  20190508, Time     :  170409.870
------------------------------------------------------------
  Evaluating new KS density.
  Integration grid: deviation in total charge (<rho> - N_e) =   1.598721E-14
  Pulay mixing of updated and previous charge densities.

  Evaluating partitioned Hartree potential by multipole expansion.
  | Analytical far-field extrapolation by fixed multipoles:
  | Hartree multipole sum: apparent total charge =   0.998795E+00
  Summing up the Hartree potential.
  Time summed over all CPUs for potential: real work        0.017 s, elapsed        0.017 s
  | RMS charge density error from multipole expansion :   0.103890E-01

  Integrating Hamiltonian matrix: batch-based integration.
  Time summed over all CPUs for integration: real work        0.028 s, elapsed        0.028 s

  Updating Kohn-Sham eigenvalues, eigenvectors, occupation numbers, and Fermi level.
  Solving generalized eigenproblem
  Updating Kohn-Sham eigenvalues and eigenfunctions.
  Solving real generalised eigenvalue problem by standard LAPACK (fast)

  Obtaining occupation numbers and chemical potential using ELSI.
  | Chemical potential (Fermi level):   -11.77537012eV
  Highest occupied state (VBM) at    -18.12427221 eV
  | Occupation number:      2.00000000

  Lowest unoccupied state (CBM) at    -8.11816267 eV
  | Occupation number:      0.00000000

  Overall HOMO-LUMO gap:     10.00610954 eV.

  Total energy components:
  | Sum of eigenvalues            :         -45.59186933 Ha       -1240.61788644 eV
  | XC energy correction          :          -8.81091959 Ha        -239.75732077 eV
  | XC potential correction       :          11.60528265 Ha         315.79580850 eV
  | Free-atom electrostatic energy:         -35.26369377 Ha        -959.57393019 eV
  | Hartree energy correction     :           1.89006476 Ha          51.43127892 eV
  | Entropy correction            :          -0.00000000 Ha          -0.00000000 eV
  | ---------------------------
  | Total energy                  :         -76.17113528 Ha       -2072.72204999 eV
  | Total energy, T -> 0          :         -76.17113528 Ha       -2072.72204999 eV  <-- do not rely on this value for anything but (periodic) metals
  | Electronic free energy        :         -76.17113528 Ha       -2072.72204999 eV

  Derived energy quantities:
  | Kinetic energy                :          75.82589974 Ha        2063.32771300 eV
  | Electrostatic energy          :        -143.18611544 Ha       -3896.29244222 eV
  | Energy correction for multipole
  | error in Hartree potential    :           0.00679861 Ha           0.18499946 eV
  | Sum of eigenvalues per atom                           :        -310.15447161 eV
  | Total energy (T->0) per atom                          :        -518.18051250 eV  <-- do not rely on this value for anything but (periodic) metals
  | Electronic free energy per atom                       :        -518.18051250 eV

  Self-consistency convergence accuracy:
  | Change of charge density      :  0.7447E-02
  | Change of sum of eigenvalues  : -0.6969E-01 eV
  | Change of total energy        :  0.9209E-03 eV

  End self-consistency iteration #     6       :  max(cpu_time)    wall_clock(cpu1)
  | Time for this iteration                    :        0.059 s           0.059 s
  | Charge density update                      :        0.011 s           0.011 s
  | Density mixing                             :        0.001 s           0.000 s
  | Hartree multipole update                   :        0.001 s           0.002 s
  | Hartree multipole summation                :        0.017 s           0.017 s
  | Integration                                :        0.028 s           0.028 s
  | Solution of K.-S. eqns.                    :        0.000 s           0.000 s
  | Total energy evaluation                    :        0.000 s           0.000 s

  Partial memory accounting:
  | Current value for overall tracked memory usage on task 0  :           0.019 MB
  | Peak value for overall tracked memory usage on task 0     :           0.089 MB after allocating wave
  | Largest tracked array allocation on task 0 so far         :           0.021 MB  when allocating H_times_psi
  Note:  These values currently only include a subset of arrays which are explicitly tracked.
  The "true" memory usage will be greater.
------------------------------------------------------------

------------------------------------------------------------
          Begin self-consistency iteration #    7

  Date     :  20190508, Time     :  170409.929
------------------------------------------------------------
  Evaluating new KS density.
  Integration grid: deviation in total charge (<rho> - N_e) =  -1.776357E-15
  Pulay mixing of updated and previous charge densities.

  Evaluating partitioned Hartree potential by multipole expansion.
  | Analytical far-field extrapolation by fixed multipoles:
  | Hartree multipole sum: apparent total charge =   0.999243E+00
  Summing up the Hartree potential.
  Time summed over all CPUs for potential: real work        0.016 s, elapsed        0.016 s
  | RMS charge density error from multipole expansion :   0.103820E-01

  Integrating Hamiltonian matrix: batch-based integration.
  Time summed over all CPUs for integration: real work        0.028 s, elapsed        0.029 s

  Updating Kohn-Sham eigenvalues, eigenvectors, occupation numbers, and Fermi level.
  Solving generalized eigenproblem
  Updating Kohn-Sham eigenvalues and eigenfunctions.
  Solving real generalised eigenvalue problem by standard LAPACK (fast)

  Obtaining occupation numbers and chemical potential using ELSI.
  | Chemical potential (Fermi level):   -11.77585446eV
  Highest occupied state (VBM) at    -18.12559315 eV
  | Occupation number:      2.00000000

  Lowest unoccupied state (CBM) at    -8.11819269 eV
  | Occupation number:      0.00000000

  Overall HOMO-LUMO gap:     10.00740046 eV.

  Total energy components:
  | Sum of eigenvalues            :         -45.59352474 Ha       -1240.66293240 eV
  | XC energy correction          :          -8.81076433 Ha        -239.75309606 eV
  | XC potential correction       :          11.60507625 Ha         315.79019208 eV
  | Free-atom electrostatic energy:         -35.26369377 Ha        -959.57393019 eV
  | Hartree energy correction     :           1.89177243 Ha          51.47774688 eV
  | Entropy correction            :          -0.00000000 Ha          -0.00000000 eV
  | ---------------------------
  | Total energy                  :         -76.17113417 Ha       -2072.72201970 eV
  | Total energy, T -> 0          :         -76.17113417 Ha       -2072.72201970 eV  <-- do not rely on this value for anything but (periodic) metals
  | Electronic free energy        :         -76.17113417 Ha       -2072.72201970 eV

  Derived energy quantities:
  | Kinetic energy                :          75.82250911 Ha        2063.23544917 eV
  | Electrostatic energy          :        -143.18287895 Ha       -3896.20437281 eV
  | Energy correction for multipole
  | error in Hartree potential    :           0.00674650 Ha           0.18358158 eV
  | Sum of eigenvalues per atom                           :        -310.16573310 eV
  | Total energy (T->0) per atom                          :        -518.18050492 eV  <-- do not rely on this value for anything but (periodic) metals
  | Electronic free energy per atom                       :        -518.18050492 eV

  Self-consistency convergence accuracy:
  | Change of charge density      :  0.9652E-03
  | Change of sum of eigenvalues  : -0.4505E-01 eV
  | Change of total energy        :  0.3029E-04 eV

  End self-consistency iteration #     7       :  max(cpu_time)    wall_clock(cpu1)
  | Time for this iteration                    :        0.058 s           0.058 s
  | Charge density update                      :        0.011 s           0.011 s
  | Density mixing                             :        0.001 s           0.001 s
  | Hartree multipole update                   :        0.001 s           0.001 s
  | Hartree multipole summation                :        0.016 s           0.016 s
  | Integration                                :        0.028 s           0.029 s
  | Solution of K.-S. eqns.                    :        0.000 s           0.000 s
  | Total energy evaluation                    :        0.000 s           0.000 s

  Partial memory accounting:
  | Current value for overall tracked memory usage on task 0  :           0.019 MB
  | Peak value for overall tracked memory usage on task 0     :           0.089 MB after allocating wave
  | Largest tracked array allocation on task 0 so far         :           0.021 MB  when allocating H_times_psi
  Note:  These values currently only include a subset of arrays which are explicitly tracked.
  The "true" memory usage will be greater.
------------------------------------------------------------

------------------------------------------------------------
          Begin self-consistency iteration #    8

  Date     :  20190508, Time     :  170409.987
------------------------------------------------------------
  Evaluating new KS density.
  Integration grid: deviation in total charge (<rho> - N_e) =  -1.065814E-14
  Pulay mixing of updated and previous charge densities.

  Evaluating partitioned Hartree potential by multipole expansion.
  | Analytical far-field extrapolation by fixed multipoles:
  | Hartree multipole sum: apparent total charge =   0.999483E+00
  Summing up the Hartree potential.
  Time summed over all CPUs for potential: real work        0.017 s, elapsed        0.017 s
  | RMS charge density error from multipole expansion :   0.103855E-01

  Integrating Hamiltonian matrix: batch-based integration.
  Time summed over all CPUs for integration: real work        0.028 s, elapsed        0.028 s

  Updating Kohn-Sham eigenvalues, eigenvectors, occupation numbers, and Fermi level.
  Solving generalized eigenproblem
  Updating Kohn-Sham eigenvalues and eigenfunctions.
  Solving real generalised eigenvalue problem by standard LAPACK (fast)

  Obtaining occupation numbers and chemical potential using ELSI.
  | Chemical potential (Fermi level):   -11.76826470eV
  Highest occupied state (VBM) at    -18.11503763 eV
  | Occupation number:      2.00000000

  Lowest unoccupied state (CBM) at    -8.11267575 eV
  | Occupation number:      0.00000000

  Overall HOMO-LUMO gap:     10.00236187 eV.

  Total energy components:
  | Sum of eigenvalues            :         -45.58961662 Ha       -1240.55658692 eV
  | XC energy correction          :          -8.81135624 Ha        -239.76920270 eV
  | XC potential correction       :          11.60585512 Ha         315.81138624 eV
  | Free-atom electrostatic energy:         -35.26369377 Ha        -959.57393019 eV
  | Hartree energy correction     :           1.88767774 Ha          51.36632483 eV
  | Entropy correction            :          -0.00000000 Ha          -0.00000000 eV
  | ---------------------------
  | Total energy                  :         -76.17113377 Ha       -2072.72200875 eV
  | Total energy, T -> 0          :         -76.17113377 Ha       -2072.72200875 eV  <-- do not rely on this value for anything but (periodic) metals
  | Electronic free energy        :         -76.17113377 Ha       -2072.72200875 eV

  Derived energy quantities:
  | Kinetic energy                :          75.82358612 Ha        2063.26475609 eV
  | Electrostatic energy          :        -143.18336364 Ha       -3896.21756213 eV
  | Energy correction for multipole
  | error in Hartree potential    :           0.00672594 Ha           0.18302222 eV
  | Sum of eigenvalues per atom                           :        -310.13914673 eV
  | Total energy (T->0) per atom                          :        -518.18050219 eV  <-- do not rely on this value for anything but (periodic) metals
  | Electronic free energy per atom                       :        -518.18050219 eV

  Self-consistency convergence accuracy:
  | Change of charge density      :  0.7246E-03
  | Change of sum of eigenvalues  :  0.1063E+00 eV
  | Change of total energy        :  0.1094E-04 eV

  End self-consistency iteration #     8       :  max(cpu_time)    wall_clock(cpu1)
  | Time for this iteration                    :        0.059 s           0.059 s
  | Charge density update                      :        0.012 s           0.012 s
  | Density mixing                             :        0.001 s           0.001 s
  | Hartree multipole update                   :        0.001 s           0.001 s
  | Hartree multipole summation                :        0.017 s           0.017 s
  | Integration                                :        0.028 s           0.028 s
  | Solution of K.-S. eqns.                    :        0.000 s           0.000 s
  | Total energy evaluation                    :        0.000 s           0.000 s

  Partial memory accounting:
  | Current value for overall tracked memory usage on task 0  :           0.020 MB
  | Peak value for overall tracked memory usage on task 0     :           0.089 MB after allocating wave
  | Largest tracked array allocation on task 0 so far         :           0.021 MB  when allocating H_times_psi
  Note:  These values currently only include a subset of arrays which are explicitly tracked.
  The "true" memory usage will be greater.
------------------------------------------------------------

------------------------------------------------------------
          Begin self-consistency iteration #    9

  Date     :  20190508, Time     :  170410.046
------------------------------------------------------------
  Evaluating new KS density.
  Integration grid: deviation in total charge (<rho> - N_e) =  -1.421085E-14
  Pulay mixing of updated and previous charge densities.

  Evaluating partitioned Hartree potential by multipole expansion.
  | Analytical far-field extrapolation by fixed multipoles:
  | Hartree multipole sum: apparent total charge =   0.999547E+00
  Summing up the Hartree potential.
  Time summed over all CPUs for potential: real work        0.017 s, elapsed        0.017 s
  | RMS charge density error from multipole expansion :   0.103865E-01

  Integrating Hamiltonian matrix: batch-based integration.
  Time summed over all CPUs for integration: real work        0.029 s, elapsed        0.029 s

  Updating Kohn-Sham eigenvalues, eigenvectors, occupation numbers, and Fermi level.
  Solving generalized eigenproblem
  Updating Kohn-Sham eigenvalues and eigenfunctions.
  Solving real generalised eigenvalue problem by standard LAPACK (fast)

  Obtaining occupation numbers and chemical potential using ELSI.
  | Chemical potential (Fermi level):   -11.76745505eV
  Highest occupied state (VBM) at    -18.11412829 eV
  | Occupation number:      2.00000000

  Lowest unoccupied state (CBM) at    -8.11213533 eV
  | Occupation number:      0.00000000

  Overall HOMO-LUMO gap:     10.00199297 eV.

  Total energy components:
  | Sum of eigenvalues            :         -45.58931492 Ha       -1240.54837744 eV
  | XC energy correction          :          -8.81141485 Ha        -239.77079738 eV
  | XC potential correction       :          11.60593221 Ha         315.81348393 eV
  | Free-atom electrostatic energy:         -35.26369377 Ha        -959.57393019 eV
  | Hartree energy correction     :           1.88735760 Ha          51.35761321 eV
  | Entropy correction            :          -0.00000000 Ha          -0.00000000 eV
  | ---------------------------
  | Total energy                  :         -76.17113374 Ha       -2072.72200787 eV
  | Total energy, T -> 0          :         -76.17113374 Ha       -2072.72200787 eV  <-- do not rely on this value for anything but (periodic) metals
  | Electronic free energy        :         -76.17113374 Ha       -2072.72200787 eV

  Derived energy quantities:
  | Kinetic energy                :          75.82361162 Ha        2063.26544987 eV
  | Electrostatic energy          :        -143.18333050 Ha       -3896.21666036 eV
  | Energy correction for multipole
  | error in Hartree potential    :           0.00672277 Ha           0.18293580 eV
  | Sum of eigenvalues per atom                           :        -310.13709436 eV
  | Total energy (T->0) per atom                          :        -518.18050197 eV  <-- do not rely on this value for anything but (periodic) metals
  | Electronic free energy per atom                       :        -518.18050197 eV

  Self-consistency convergence accuracy:
  | Change of charge density      :  0.8028E-04
  | Change of sum of eigenvalues  :  0.8209E-02 eV
  | Change of total energy        :  0.8800E-06 eV

  End self-consistency iteration #     9       :  max(cpu_time)    wall_clock(cpu1)
  | Time for this iteration                    :        0.060 s           0.060 s
  | Charge density update                      :        0.011 s           0.012 s
  | Density mixing                             :        0.001 s           0.001 s
  | Hartree multipole update                   :        0.001 s           0.001 s
  | Hartree multipole summation                :        0.017 s           0.017 s
  | Integration                                :        0.029 s           0.029 s
  | Solution of K.-S. eqns.                    :        0.000 s           0.000 s
  | Total energy evaluation                    :        0.000 s           0.000 s

  Partial memory accounting:
  | Current value for overall tracked memory usage on task 0  :           0.020 MB
  | Peak value for overall tracked memory usage on task 0     :           0.089 MB after allocating wave
  | Largest tracked array allocation on task 0 so far         :           0.021 MB  when allocating H_times_psi
  Note:  These values currently only include a subset of arrays which are explicitly tracked.
  The "true" memory usage will be greater.
------------------------------------------------------------

------------------------------------------------------------
          Begin self-consistency iteration #   10

  Date     :  20190508, Time     :  170410.106
------------------------------------------------------------
  Evaluating new KS density.
  Integration grid: deviation in total charge (<rho> - N_e) =   1.953993E-14
  Pulay mixing of updated and previous charge densities.

  Evaluating partitioned Hartree potential by multipole expansion.
  | Analytical far-field extrapolation by fixed multipoles:
  | Hartree multipole sum: apparent total charge =   0.999552E+00
  Summing up the Hartree potential.
  Time summed over all CPUs for potential: real work        0.016 s, elapsed        0.016 s
  | RMS charge density error from multipole expansion :   0.103866E-01

  Integrating Hamiltonian matrix: batch-based integration.
  Time summed over all CPUs for integration: real work        0.029 s, elapsed        0.029 s

  Updating Kohn-Sham eigenvalues, eigenvectors, occupation numbers, and Fermi level.
  Solving generalized eigenproblem
  Updating Kohn-Sham eigenvalues and eigenfunctions.
  Solving real generalised eigenvalue problem by standard LAPACK (fast)

  Obtaining occupation numbers and chemical potential using ELSI.
  | Chemical potential (Fermi level):   -11.76742285eV
  Highest occupied state (VBM) at    -18.11414932 eV
  | Occupation number:      2.00000000

  Lowest unoccupied state (CBM) at    -8.11209899 eV
  | Occupation number:      0.00000000

  Overall HOMO-LUMO gap:     10.00205032 eV.

  Total energy components:
  | Sum of eigenvalues            :         -45.58933590 Ha       -1240.54894826 eV
  | XC energy correction          :          -8.81141431 Ha        -239.77078286 eV
  | XC potential correction       :          11.60593146 Ha         315.81346346 eV
  | Free-atom electrostatic energy:         -35.26369377 Ha        -959.57393019 eV
  | Hartree energy correction     :           1.88737880 Ha          51.35819014 eV
  | Entropy correction            :          -0.00000000 Ha          -0.00000000 eV
  | ---------------------------
  | Total energy                  :         -76.17113373 Ha       -2072.72200770 eV
  | Total energy, T -> 0          :         -76.17113373 Ha       -2072.72200770 eV  <-- do not rely on this value for anything but (periodic) metals
  | Electronic free energy        :         -76.17113373 Ha       -2072.72200770 eV

  Derived energy quantities:
  | Kinetic energy                :          75.82356886 Ha        2063.26428640 eV
  | Electrostatic energy          :        -143.18328828 Ha       -3896.21551124 eV
  | Energy correction for multipole
  | error in Hartree potential    :           0.00672226 Ha           0.18292189 eV
  | Sum of eigenvalues per atom                           :        -310.13723707 eV
  | Total energy (T->0) per atom                          :        -518.18050193 eV  <-- do not rely on this value for anything but (periodic) metals
  | Electronic free energy per atom                       :        -518.18050193 eV

  Self-consistency convergence accuracy:
  | Change of charge density      :  0.9273E-05
  | Change of sum of eigenvalues  : -0.5708E-03 eV
  | Change of total energy        :  0.1702E-06 eV

  End self-consistency iteration #    10       :  max(cpu_time)    wall_clock(cpu1)
  | Time for this iteration                    :        0.059 s           0.059 s
  | Charge density update                      :        0.011 s           0.011 s
  | Density mixing                             :        0.001 s           0.001 s
  | Hartree multipole update                   :        0.001 s           0.002 s
  | Hartree multipole summation                :        0.017 s           0.016 s
  | Integration                                :        0.029 s           0.029 s
  | Solution of K.-S. eqns.                    :        0.000 s           0.000 s
  | Total energy evaluation                    :        0.000 s           0.000 s

  Partial memory accounting:
  | Current value for overall tracked memory usage on task 0  :           0.020 MB
  | Peak value for overall tracked memory usage on task 0     :           0.089 MB after allocating wave
  | Largest tracked array allocation on task 0 so far         :           0.021 MB  when allocating H_times_psi
  Note:  These values currently only include a subset of arrays which are explicitly tracked.
  The "true" memory usage will be greater.
------------------------------------------------------------

------------------------------------------------------------
          Begin self-consistency iteration #   11

  Date     :  20190508, Time     :  170410.165
------------------------------------------------------------
  Evaluating new KS density.
  Integration grid: deviation in total charge (<rho> - N_e) =  -3.552714E-15
  Pulay mixing of updated and previous charge densities.

  Evaluating partitioned Hartree potential by multipole expansion.
  | Analytical far-field extrapolation by fixed multipoles:
  | Hartree multipole sum: apparent total charge =   0.999556E+00
  Summing up the Hartree potential.
  Time summed over all CPUs for potential: real work        0.017 s, elapsed        0.017 s
  | RMS charge density error from multipole expansion :   0.103867E-01

  Integrating Hamiltonian matrix: batch-based integration.
  Time summed over all CPUs for integration: real work        0.029 s, elapsed        0.029 s

  Updating Kohn-Sham eigenvalues, eigenvectors, occupation numbers, and Fermi level.
  Solving generalized eigenproblem
  Updating Kohn-Sham eigenvalues and eigenfunctions.
  Solving real generalised eigenvalue problem by standard LAPACK (fast)

  Obtaining occupation numbers and chemical potential using ELSI.
  | Chemical potential (Fermi level):   -11.76736973eV
  Highest occupied state (VBM) at    -18.11406436 eV
  | Occupation number:      2.00000000

  Lowest unoccupied state (CBM) at    -8.11207049 eV
  | Occupation number:      0.00000000

  Overall HOMO-LUMO gap:     10.00199387 eV.

  Total energy components:
  | Sum of eigenvalues            :         -45.58930006 Ha       -1240.54797307 eV
  | XC energy correction          :          -8.81141991 Ha        -239.77093522 eV
  | XC potential correction       :          11.60593885 Ha         315.81366463 eV
  | Free-atom electrostatic energy:         -35.26369377 Ha        -959.57393019 eV
  | Hartree energy correction     :           1.88734116 Ha          51.35716609 eV
  | Entropy correction            :          -0.00000000 Ha          -0.00000000 eV
  | ---------------------------
[...]
  | Largest tracked array allocation on task 0 so far         :           0.021 MB  when allocating H_times_psi
  Note:  These values currently only include a subset of arrays which are explicitly tracked.
  The "true" memory usage will be greater.
------------------------------------------------------------

------------------------------------------------------------
          Begin self-consistency iteration #   12

  Date     :  20190508, Time     :  170410.226
------------------------------------------------------------
  Evaluating new KS density.
  Integration grid: deviation in total charge (<rho> - N_e) =  -1.421085E-14
  Pulay mixing of updated and previous charge densities.

  Evaluating partitioned Hartree potential by multipole expansion.
  | Analytical far-field extrapolation by fixed multipoles:
  | Hartree multipole sum: apparent total charge =   0.999556E+00
  Summing up the Hartree potential.
  Time summed over all CPUs for potential: real work        0.016 s, elapsed        0.016 s
  | RMS charge density error from multipole expansion :   0.103867E-01

  Integrating Hamiltonian matrix: batch-based integration.
  Time summed over all CPUs for integration: real work        0.029 s, elapsed        0.029 s

  Updating Kohn-Sham eigenvalues, eigenvectors, occupation numbers, and Fermi level.
  Solving generalized eigenproblem
  Updating Kohn-Sham eigenvalues and eigenfunctions.
  Solving real generalised eigenvalue problem by standard LAPACK (fast)

  Obtaining occupation numbers and chemical potential using ELSI.
  | Chemical potential (Fermi level):   -11.76736649eV
  Highest occupied state (VBM) at    -18.11406035 eV
  | Occupation number:      2.00000000

  Lowest unoccupied state (CBM) at    -8.11206889 eV
  | Occupation number:      0.00000000

  Overall HOMO-LUMO gap:     10.00199147 eV.

  Total energy components:
  | Sum of eigenvalues            :         -45.58929803 Ha       -1240.54791787 eV
  | XC energy correction          :          -8.81142024 Ha        -239.77094401 eV
  | XC potential correction       :          11.60593928 Ha         315.81367624 eV
  | Free-atom electrostatic energy:         -35.26369377 Ha        -959.57393019 eV
  | Hartree energy correction     :           1.88733903 Ha          51.35710807 eV
  | Entropy correction            :          -0.00000000 Ha          -0.00000000 eV
  | ---------------------------
  | Total energy                  :         -76.17113373 Ha       -2072.72200777 eV
  | Total energy, T -> 0          :         -76.17113373 Ha       -2072.72200777 eV  <-- do not rely on this value for anything but (periodic) metals
  | Electronic free energy        :         -76.17113373 Ha       -2072.72200777 eV

  Derived energy quantities:
  | Kinetic energy                :          75.82359713 Ha        2063.26505581 eV
  | Electrostatic energy          :        -143.18331063 Ha       -3896.21611958 eV
  | Energy correction for multipole
  | error in Hartree potential    :           0.00672230 Ha           0.18292301 eV
  | Sum of eigenvalues per atom                           :        -310.13697947 eV
  | Total energy (T->0) per atom                          :        -518.18050194 eV  <-- do not rely on this value for anything but (periodic) metals
  | Electronic free energy per atom                       :        -518.18050194 eV

  Self-consistency convergence accuracy:
  | Change of charge density      :  0.3448E-06
  | Change of sum of eigenvalues  :  0.5519E-04 eV
  | Change of total energy        : -0.1534E-07 eV

  Electronic self-consistency reached - switching on the force computation.

  End self-consistency iteration #    12       :  max(cpu_time)    wall_clock(cpu1)
  | Time for this iteration                    :        0.060 s           0.060 s
  | Charge density & force component update    :        0.011 s           0.011 s
  | Density mixing                             :        0.001 s           0.001 s
  | Hartree multipole update                   :        0.001 s           0.002 s
  | Hartree multipole summation                :        0.017 s           0.016 s
  | Integration                                :        0.029 s           0.030 s
  | Solution of K.-S. eqns.                    :        0.000 s           0.000 s
  | Total energy evaluation                    :        0.000 s           0.000 s

  Partial memory accounting:
  | Current value for overall tracked memory usage on task 0  :           0.020 MB
  | Peak value for overall tracked memory usage on task 0     :           0.089 MB after allocating wave
  | Largest tracked array allocation on task 0 so far         :           0.021 MB  when allocating H_times_psi
  Note:  These values currently only include a subset of arrays which are explicitly tracked.
  The "true" memory usage will be greater.
------------------------------------------------------------

------------------------------------------------------------
          Begin self-consistency iteration #   13

  Date     :  20190508, Time     :  170410.286
------------------------------------------------------------
  Evaluating new KS density and force components.
  Integration grid: deviation in total charge (<rho> - N_e) =  -1.776357E-14
  Pulay mixing of updated and previous charge densities.

  Evaluating partitioned Hartree potential by multipole expansion.
  | Analytical far-field extrapolation by fixed multipoles:
  | Hartree multipole sum: apparent total charge =   0.999556E+00
  Summing up the Hartree potential.
  Time summed over all CPUs for potential: real work        0.051 s, elapsed        0.051 s
  | RMS charge density error from multipole expansion :   0.103867E-01

  Integrating Hamiltonian matrix: batch-based integration.
  Time summed over all CPUs for integration: real work        0.028 s, elapsed        0.028 s

  Updating Kohn-Sham eigenvalues, eigenvectors, occupation numbers, and Fermi level.
  Solving generalized eigenproblem
  Updating Kohn-Sham eigenvalues and eigenfunctions.
  Solving real generalised eigenvalue problem by standard LAPACK (fast)

  Obtaining occupation numbers and chemical potential using ELSI.
  | Chemical potential (Fermi level):   -11.76736708eV
  Highest occupied state (VBM) at    -18.11406109 eV
  | Occupation number:      2.00000000

  Lowest unoccupied state (CBM) at    -8.11206897 eV
  | Occupation number:      0.00000000

  Overall HOMO-LUMO gap:     10.00199213 eV.

  Total energy components:
  | Sum of eigenvalues            :         -45.58929842 Ha       -1240.54792843 eV
  | XC energy correction          :          -8.81142016 Ha        -239.77094186 eV
  | XC potential correction       :          11.60593918 Ha         315.81367339 eV
  | Free-atom electrostatic energy:         -35.26369377 Ha        -959.57393019 eV
  | Hartree energy correction     :           1.88733945 Ha          51.35711932 eV
  | Entropy correction            :          -0.00000000 Ha          -0.00000000 eV
  | ---------------------------
  | Total energy                  :         -76.17113373 Ha       -2072.72200777 eV
  | Total energy, T -> 0          :         -76.17113373 Ha       -2072.72200777 eV  <-- do not rely on this value for anything but (periodic) metals
  | Electronic free energy        :         -76.17113373 Ha       -2072.72200777 eV

  Derived energy quantities:
  | Kinetic energy                :          75.82359664 Ha        2063.26504245 eV
  | Electrostatic energy          :        -143.18331022 Ha       -3896.21610836 eV
  | Energy correction for multipole
  | error in Hartree potential    :           0.00672229 Ha           0.18292293 eV
  | Sum of eigenvalues per atom                           :        -310.13698211 eV
  | Total energy (T->0) per atom                          :        -518.18050194 eV  <-- do not rely on this value for anything but (periodic) metals
  | Electronic free energy per atom                       :        -518.18050194 eV

  atomic forces [eV/Ang]:
  -----------------------
  atom #    1
   Hellmann-Feynman              : -0.507149E-13 -0.932873E-01  0.254558E-12
   Ionic forces                  :  0.000000E+00  0.000000E+00  0.000000E+00
   Multipole                     :  0.147085E-12 -0.572006E-03  0.209519E-12
   Pulay                         :  0.163935E-12  0.300394E-02  0.975216E-12
   ----------------------------------------------------------------
   Total forces(   1)            :  0.260305E-12 -0.908554E-01  0.143929E-11
  atom #    2
   Hellmann-Feynman              :  0.260098E+00 -0.151364E+00  0.406696E-13
   Ionic forces                  :  0.000000E+00  0.000000E+00  0.000000E+00
   Multipole                     :  0.780477E-01 -0.448264E-01 -0.714028E-16
   Pulay                         : -0.338618E+00  0.195426E+00 -0.712654E-13
   ----------------------------------------------------------------
   Total forces(   2)            : -0.471864E-03 -0.763711E-03 -0.306672E-13
  atom #    3
   Hellmann-Feynman              : -0.260098E+00 -0.151364E+00  0.684443E-14
   Ionic forces                  :  0.000000E+00  0.000000E+00  0.000000E+00
   Multipole                     : -0.780477E-01 -0.448264E-01  0.168899E-14
   Pulay                         :  0.338618E+00  0.195426E+00 -0.487558E-13
   ----------------------------------------------------------------
   Total forces(   3)            :  0.471864E-03 -0.763711E-03 -0.402224E-13
  atom #    4
   Hellmann-Feynman              :  0.237178E-13  0.395261E+00 -0.365335E-14
   Ionic forces                  :  0.000000E+00  0.000000E+00  0.000000E+00
   Multipole                     : -0.369814E-15  0.902715E-01 -0.324644E-15
   Pulay                         : -0.190684E-13 -0.393393E+00  0.628986E-14
   ----------------------------------------------------------------
   Total forces(   4)            :  0.427959E-14  0.921398E-01  0.231186E-14


  Self-consistency convergence accuracy:
  | Change of charge density      :  0.1407E-06
  | Change of sum of eigenvalues  : -0.1056E-04 eV
  | Change of total energy        :  0.2814E-08 eV
  | Change of forces              :  0.3709E+00 eV/A

  Writing Kohn-Sham eigenvalues.

  State    Occupation    Eigenvalue [Ha]    Eigenvalue [eV]
      1       2.00000         -19.013817         -517.39230
      2       2.00000          -1.337553          -36.39667
      3       2.00000          -0.889003          -24.19100
      4       2.00000          -0.888597          -24.17994
      5       2.00000          -0.665680          -18.11406
      6       0.00000          -0.298113           -8.11207
      7       0.00000          -0.197409           -5.37177
      8       0.00000          -0.196664           -5.35151
      9       0.00000           0.025441            0.69228
     10       0.00000           0.048179            1.31100
     11       0.00000           0.048673            1.32446
     12       0.00000           0.207684            5.65137
     13       0.00000           0.481395           13.09943

  Highest occupied state (VBM) at    -18.11406109 eV
  | Occupation number:      2.00000000

  Lowest unoccupied state (CBM) at    -8.11206897 eV
  | Occupation number:      0.00000000

  Overall HOMO-LUMO gap:     10.00199213 eV.

  Self-consistency cycle converged.

  End self-consistency iteration #    13       :  max(cpu_time)    wall_clock(cpu1)
  | Time for this iteration                    :        0.122 s           0.122 s
  | Charge density & force component update    :        0.040 s           0.041 s
  | Density mixing                             :        0.001 s           0.001 s
  | Hartree multipole update                   :        0.001 s           0.001 s
  | Hartree multipole summation                :        0.051 s           0.051 s
  | Integration                                :        0.028 s           0.028 s
  | Solution of K.-S. eqns.                    :        0.000 s           0.000 s
  | Total energy evaluation                    :        0.000 s           0.000 s

  Partial memory accounting:
  | Current value for overall tracked memory usage on task 0  :           0.020 MB
  | Peak value for overall tracked memory usage on task 0     :           0.124 MB after allocating h_times_wave
  | Largest tracked array allocation on task 0 so far         :           0.063 MB  when allocating gradient_basis_wave
  Note:  These values currently only include a subset of arrays which are explicitly tracked.
  The "true" memory usage will be greater.
------------------------------------------------------------
  ------------------------------------------------------------
   Computing monopole / dipole moments for complete molecule:
  | Total electronic charge [e]         :          0.999999999975213E+01
  | Total ionic charge [e]              :          0.110000000000000E+02
  | Total charge [e]                    :          0.100000000024787E+01
 * Warning: The system has a total charge of      1.00000000 .
 * The dipole moment depends on the choice of the origin.
  | Total dipole moment [eAng]          :          0.805736879862145E-14        -0.136044999897691E-02         0.297708251500852E-15
  | Absolute dipole moment              :          0.136044999897691E-02 eAng              /                   0.653350143479591E-02 Debye  .
  Removing unitary transformations (pure translations, rotations) from forces on atoms.
  Atomic forces before filtering:
  | Net force on center of mass :  -0.749447E-13 -0.243027E-03  0.137071E-11 eV/A
  | Net torque on center of mass:   0.379064E-13 -0.816866E-14 -0.215656E-12 eV
  Atomic forces after filtering:
  | Net force on center of mass :   0.647248E-19  0.111504E-16  0.811297E-28 eV/A
  | Net torque on center of mass:  -0.858640E-28  0.000000E+00  0.900093E-19 eV

  Energy and forces in a compact form:
  | Total energy uncorrected      :         -0.207272200776980E+04 eV
  | Total energy corrected        :         -0.207272200776980E+04 eV  <-- do not rely on this value for anything but (periodic) metals
  | Electronic free energy        :         -0.207272200776980E+04 eV
  Total atomic forces (unitary forces cleaned) [eV/Ang]:
  |   1          0.279006240005760E-12         -0.907946548312674E-01          0.109660161147602E-11
  |   2         -0.471863627993447E-03         -0.702954495707144E-03         -0.365301041505066E-12
  |   3          0.471863627764236E-03         -0.702954495782080E-03         -0.365301041505066E-12
  |   4         -0.497944086267149E-13          0.922005638227566E-01         -0.365999528465890E-12

  ------------------------------------ 
  Start decomposition of the XC Energy 
  ------------------------------------ 
  X and C from original XC functional choice 
  Hartree-Fock Energy :          0.000000000 Ha              0.000000000 eV
  X Energy            :         -8.147452114 Ha           -221.703452163 eV
  C Energy            :         -0.663968042 Ha            -18.067489693 eV
  Total XC Energy     :         -8.811420156 Ha           -239.770941856 eV
  ------------------------------------ 
  LDA X and C from self-consistent density 
  X Energy LDA        :         -8.147452114 Ha           -221.703452163 eV
  C Energy LDA        :         -0.663968042 Ha            -18.067489693 eV
  ------------------------------------ 
  End decomposition of the XC Energy 
  ------------------------------------ 

------------------------------------------------------------

------------------------------------------------------------------------------
  Final output of selected total energy values:

  The following output summarizes some interesting total energy values
  at the end of a run (AFTER all relaxation, molecular dynamics, etc.).

  | Total energy of the DFT / Hartree-Fock s.c.f. calculation      :          -2072.722007770 eV
  | Final zero-broadening corrected energy (caution - metals only) :          -2072.722007770 eV
  | For reference only, the value of 1 Hartree used in FHI-aims is :             27.211384500 eV

  Before relying on these values, please be sure to understand exactly which
  total energy value is referred to by a given number. Different objects may
  all carry the same name 'total energy'. Definitions:

  Total energy of the DFT / Hartree-Fock s.c.f. calculation:
  | Note that this energy does not include ANY quantities calculated after the
  | s.c.f. cycle, in particular not ANY RPA, MP2, etc. many-body perturbation terms.

  Final zero-broadening corrected energy:
  | For metallic systems only, a broadening of the occupation numbers at the Fermi
  | level can be extrapolated back to zero broadening by an electron-gas inspired
  | formula. For all systems that are not real metals, this value can be
  | meaningless and should be avoided.

------------------------------------------------------------------------------
  Methods described in the following list of references were used in this FHI-aims run.
  If you publish the results, please make sure to cite these reference if they apply.
  FHI-aims is an academic code, and for our developers (often, Ph.D. students
  and postdocs), scientific credit in the community is essential.
  Thank you for helping us!

  For any use of FHI-aims, please cite:

    Volker Blum, Ralf Gehrke, Felix Hanke, Paula Havu, Ville Havu,
    Xinguo Ren, Karsten Reuter, and Matthias Scheffler
    'Ab initio molecular simulations with numeric atom-centered orbitals'
    Computer Physics Communications 180, 2175-2196 (2009)
    http://dx.doi.org/10.1016/j.cpc.2009.06.022


  For the real-space grid partitioning and parallelization used in this calculation, please cite:

    Ville Havu, Volker Blum, Paula Havu, and Matthias Scheffler,
    'Efficient O(N) integration for all-electron electronic structure calculation'
    'using numerically tabulated basis functions'
    Journal of Computational Physics 228, 8367-8379 (2009).
    http://dx.doi.org/10.1016/j.jcp.2009.08.008

  Of course, there are many other important community references, e.g., those cited in the
  above references. Our list is limited to references that describe implementations in the
  FHI-aims code. The reason is purely practical (length of this list) - please credit others as well.

------------------------------------------------------------
          Leaving FHI-aims.
          Date     :  20190508, Time     :  170410.422

          Computational steps:
          | Number of self-consistency cycles          :           13
          | Number of SCF (re)initializations          :            1

          Detailed time accounting                     :  max(cpu_time)    wall_clock(cpu1)
          | Total time                                 :        0.985 s           0.985 s
          | Preparation time                           :        0.047 s           0.046 s
          | Boundary condition initalization           :        0.000 s           0.001 s
          | Grid partitioning                          :        0.014 s           0.014 s
          | Preloading free-atom quantities on grid    :        0.001 s           0.001 s
          | Free-atom superposition energy             :        0.013 s           0.013 s
          | Total time for integrations                :        0.414 s           0.417 s
          | Total time for solution of K.-S. equations :        0.003 s           0.001 s
          | Total time for density & force components  :        0.182 s           0.183 s
          | Total time for mixing                      :        0.009 s           0.007 s
          | Total time for Hartree multipole update    :        0.018 s           0.019 s
          | Total time for Hartree multipole sum       :        0.253 s           0.250 s
          | Total time for total energy evaluation     :        0.001 s           0.001 s

 This is a stub MPI_ALLREDUCE call.
 You should not be here. Check your
 setting on the use_mpi variable, or
 link against true MPI-libraries.
