------------------------------------------------------------
          Invoking FHI-aims ...
          Version 171221_1
          Compiled on 2019/05/06 at 14:26:40 on host ffph0xx.

          When using FHI-aims, please cite the following reference:

          Volker Blum, Ralf Gehrke, Felix Hanke, Paula Havu,
          Ville Havu, Xinguo Ren, Karsten Reuter, and Matthias Scheffler,
          'Ab Initio Molecular Simulations with Numeric Atom-Centered Orbitals',
          Computer Physics Communications 180, 2175-2196 (2009)

          For any questions about FHI-aims, please visit the aimsclub website
          with its forums and wiki. Contributions to both the forums and the
          wiki are warmly encouraged - they are for you, and everyone is welcome there.

------------------------------------------------------------



  Date     :  20190508, Time     :  162414.190
  Time zero on CPU 1             :   0.336200000000000E-02  s.
  Internal wall clock time zero  :           326564654.190  s.

  FHI-aims created a unique identifier for this run for later identification
  aims_uuid : 01FBB9CF-6733-4B44-AC3D-1A2C445D8868


  Performing system and environment tests:
  *** Environment variable OMP_NUM_THREADS is not set
  *** For performance reasons you might want to set it to 1
  | Stacksize not measured: no C compiler

  Obtaining array dimensions for all initial allocations:
  
  -----------------------------------------------------------------------
  Parsing control.in (first pass over file, find array dimensions only).
  The contents of control.in will be repeated verbatim below
  unless switched off by setting 'verbatim_writeout .false.' .
  in the first line of control.in .
  -----------------------------------------------------------------------
  
  # Relaxation of the H3O+ molecule
  #--- Method ---
    xc  pw-lda
    charge 1.0 # this gives the cation
    spin none
  
  #######Iteration limit####################
    sc_iter_limit 100
  
  #######Relaxation######################
    relax_geometry trm 1E-3
  
  #######Species#########################
  ################################################################################
  #
  #  FHI-aims code project
  #  VB, Fritz-Haber Institut, 2009
  #
  #  Suggested "light" defaults for H atom (to be pasted into control.in file)
  #  Be sure to double-check any results obtained with these settings for post-processing,
  #  e.g., with the "tight" defaults and larger basis sets.
  #
  ################################################################################
    species        H
  #     global species definitions
      nucleus             1
      mass                1.00794
  #
      l_hartree           4
  #
      cut_pot             3.5  1.5  1.0
      basis_dep_cutoff    1e-4
  #
      radial_base         24 5.0
      radial_multiplier   1
      angular_grids       specified
        division   0.2421   50
        division   0.3822  110
        division   0.4799  194
        division   0.5341  302
  #      division   0.5626  434
  #      division   0.5922  590
  #      division   0.6542  770
  #      division   0.6868 1202
  #      outer_grid  770
        outer_grid  302
  ################################################################################
  #
  #  Definition of "minimal" basis
  #
  ################################################################################
  #     valence basis states
      valence      1  s   1.
  #     ion occupancy
      ion_occ      1  s   0.5
  ################################################################################
  #
  #  Suggested additional basis functions. For production calculations,
  #  uncomment them one after another (the most important basis functions are
  #  listed first).
  #
  #  Basis constructed for dimers: 0.5 A, 0.7 A, 1.0 A, 1.5 A, 2.5 A
  #
  ################################################################################
  #  "First tier" - improvements: -1014.90 meV to -62.69 meV
       hydro 2 s 2.1
       hydro 2 p 3.5
  #  "Second tier" - improvements: -12.89 meV to -1.83 meV
  #     hydro 1 s 0.85
  #     hydro 2 p 3.7
  #     hydro 2 s 1.2
  #     hydro 3 d 7
  #  "Third tier" - improvements: -0.25 meV to -0.12 meV
  #     hydro 4 f 11.2
  #     hydro 3 p 4.8
  #     hydro 4 d 9
  #     hydro 3 s 3.2
  ################################################################################
  #
  #  FHI-aims code project
  #  VB, Fritz-Haber Institut, 2009
  #
  #  Suggested "light" defaults for O atom (to be pasted into control.in file)
  #  Be sure to double-check any results obtained with these settings for post-processing,
  #  e.g., with the "tight" defaults and larger basis sets.
  #
  ################################################################################
    species        O
  #     global species definitions
      nucleus             8
      mass                15.9994
  #
      l_hartree           4
  #
      cut_pot             3.5  1.5  1.0
      basis_dep_cutoff    1e-4
  #
      radial_base         36 5.0
      radial_multiplier   1
       angular_grids specified
        division   0.2659   50
        division   0.4451  110
        division   0.6052  194
        division   0.7543  302
  #      division   0.8014  434
  #      division   0.8507  590
  #      division   0.8762  770
  #      division   0.9023  974
  #      division   1.2339 1202
  #      outer_grid 974
        outer_grid 302
  ################################################################################
  #
  #  Definition of "minimal" basis
  #
  ################################################################################
  #     valence basis states
      valence      2  s   2.
      valence      2  p   4.
  #     ion occupancy
      ion_occ      2  s   1.
      ion_occ      2  p   3.
  ################################################################################
  #
  #  Suggested additional basis functions. For production calculations,
  #  uncomment them one after another (the most important basis functions are
  #  listed first).
  #
  #  Constructed for dimers: 1.0 A, 1.208 A, 1.5 A, 2.0 A, 3.0 A
  #
  ################################################################################
  #  "First tier" - improvements: -699.05 meV to -159.38 meV
       hydro 2 p 1.8
       hydro 3 d 7.6
       hydro 3 s 6.4
  #  "Second tier" - improvements: -49.91 meV to -5.39 meV
  #     hydro 4 f 11.6
  #     hydro 3 p 6.2
  #     hydro 3 d 5.6
  #     hydro 5 g 17.6
  #     hydro 1 s 0.75
  #  "Third tier" - improvements: -2.83 meV to -0.50 meV
  #     ionic 2 p auto
  #     hydro 4 f 10.8
  #     hydro 4 d 4.7
  #     hydro 2 s 6.8
  #  "Fourth tier" - improvements: -0.40 meV to -0.12 meV
  #     hydro 3 p 5
  #     hydro 3 s 3.3
  #     hydro 5 g 15.6
  #     hydro 4 f 17.6
  #     hydro 4 d 14
  # Further basis functions - -0.08 meV and below
  #     hydro 3 s 2.1
  #     hydro 4 d 11.6
  #     hydro 3 p 16
  #     hydro 2 s 17.2
  /afs/ictp.it/public/shared/smr2475/fhi-aims/species_defaults/light/01_H_default
  
  -----------------------------------------------------------------------
  Completed first pass over input file control.in .
  -----------------------------------------------------------------------
  
  
  -----------------------------------------------------------------------
  Parsing geometry.in (first pass over file, find array dimensions only).
  The contents of geometry.in will be repeated verbatim below
  unless switched off by setting 'verbatim_writeout .false.' .
  in the first line of geometry.in .
  -----------------------------------------------------------------------
  
  # Initial guess for planar H3O+
  atom  0.00   0.00   0.00   O
  atom  0.92  -0.53   0.00   H
  atom -0.92  -0.53   0.00   H
  atom  0.00   1.06   0.00   H
  
  -----------------------------------------------------------------------
  Completed first pass over input file geometry.in .
  -----------------------------------------------------------------------
  

  Basic array size parameters:
  | Number of species                 :        2
  | Number of atoms                   :        4
  | Max. basis fn. angular momentum   :        2
  | Max. atomic/ionic basis occupied n:        2
  | Max. number of basis fn. types    :        2
  | Max. radial fns per species/type  :        3
  | Max. logarithmic grid size        :     1301
  | Max. radial integration grid size :       36
  | Max. angular integration grid size:      302
  | Max. angular grid division number :        8
  | Radial grid for Hartree potential :     1301
  | Number of spin channels           :        1

------------------------------------------------------------
          Reading file control.in.
------------------------------------------------------------
  XC: Using Perdew-Wang parametrisation of Ceperley-Alder LDA.
  Charged system requested: Charge =   0.100000E+01.
  Spin treatment: No spin polarisation.
  Maximum number of s.-c. iterations  :   100
  Geometry relaxation: Modified BFGS - TRM (trust radius method, i.e., trusted quadratic extrapolation).
  Convergence accuracy for geometry relaxation: Maximum force <   0.100000E-02 eV/A.

  Reading configuration options for species H                   .
  | Found nuclear charge :   1.0000
  | Found atomic mass :    1.0079400000000001      amu
  | Found l_max for Hartree potential  :   4
  | Found cutoff potl. onset [A], width [A], scale factor :    3.50000    1.50000    1.00000
  | Threshold for basis-dependent cutoff potential is   0.100000E-03
  | Found data for basic radial integration grid :    24 points, outermost radius =    5.000 A
  | Found multiplier for basic radial grid :   1
  | Found angular grid specification: user-specified.
  | Specified grid contains     5 separate shells.
  | Check grid settings after all constraints further below.
  | Found free-atom valence shell :  1 s   1.000
  | No ionic wave fns used. Skipping ion_occ.
  | Found hydrogenic basis function :  2 s   2.100
  | Found hydrogenic basis function :  2 p   3.500
  Species H                   : Missing cutoff potential type.
  Defaulting to exp(1/x)/(1-x)^2 type cutoff potential.
  Species H : No 'logarithmic' tag. Using default grid for free atom:
  | Default logarithmic grid data [bohr] : 0.1000E-03 0.1000E+03 0.1012E+01
  Species H : On-site basis accuracy parameter (for Gram-Schmidt orthonormalisation) not specified.
  Using default value basis_acc =  0.1000000E-03.
  Species H                   : Using default innermost maximum threshold i_radial=  2 for radial functions.
  Species H                   : Default cutoff onset for free atom density etc. : 0.35000000E+01 AA.
  Species H                   : Basic radial grid will be enhanced according to radial_multiplier =   1, to contain    24 grid points.

  Reading configuration options for species O                   .
  | Found nuclear charge :   8.0000
  | Found atomic mass :    15.999400000000000      amu
  | Found l_max for Hartree potential  :   4
  | Found cutoff potl. onset [A], width [A], scale factor :    3.50000    1.50000    1.00000
  | Threshold for basis-dependent cutoff potential is   0.100000E-03
  | Found data for basic radial integration grid :    36 points, outermost radius =    5.000 A
  | Found multiplier for basic radial grid :   1
  | Found angular grid specification: user-specified.
  | Specified grid contains     5 separate shells.
  | Check grid settings after all constraints further below.
  | Found free-atom valence shell :  2 s   2.000
  | Found free-atom valence shell :  2 p   4.000
  | No ionic wave fns used. Skipping ion_occ.
  | No ionic wave fns used. Skipping ion_occ.
  | Found hydrogenic basis function :  2 p   1.800
  | Found hydrogenic basis function :  3 d   7.600
  | Found hydrogenic basis function :  3 s   6.400
  Species O                   : Missing cutoff potential type.
  Defaulting to exp(1/x)/(1-x)^2 type cutoff potential.
  Species O : No 'logarithmic' tag. Using default grid for free atom:
  | Default logarithmic grid data [bohr] : 0.1000E-03 0.1000E+03 0.1012E+01
  Species O : On-site basis accuracy parameter (for Gram-Schmidt orthonormalisation) not specified.
  Using default value basis_acc =  0.1000000E-03.
  Species O                   : Using default innermost maximum threshold i_radial=  2 for radial functions.
  Species O                   : Default cutoff onset for free atom density etc. : 0.35000000E+01 AA.
  Species O                   : Basic radial grid will be enhanced according to radial_multiplier =   1, to contain    36 grid points.

  Finished reading input file 'control.in'. Consistency checks are next.

  MPI_IN_PLACE appears to work with this MPI implementation.
  | Keeping use_mpi_in_place .true. (see manual).
  Target number of points in a grid batch is not set. Defaulting to  100
  Method for grid partitioning is not set. Defaulting to 'maxmin' partitioning.
  Batch size limit is not set. Defaulting to    200
  By default, will store active basis functions for each batch.
  If in need of memory, prune_basis_once .false. can be used to disable this option.
  communication_type for Hartree potential was not specified.
  Defaulting to calc_hartree .
 * Attention: 
 * You may want to set distributed_spline_storage to .true. in order to save memory.
 * This doesn't harm performance and is perfectly ok unless:
 * - you get error messages in postprocessing (about missing atoms in get_rho_multipole_spl)
 * - you need full spline storage in hirshfeld_analysis
  Defaulting to Pulay charge density mixer.
  Pulay mixer: Number of relevant iterations not set.
  Defaulting to    8 iterations.
  Pulay mixer: Number of initial linear mixing iterations not set.
  Defaulting to    0 iterations.
  Work space size for distributed Hartree potential not set.
  Defaulting to   0.200000E+03 MB.
  Mixing parameter for charge density mixing has not been set.
  Using default: charge_mix_param =     0.0500.
  The mixing parameter will be adjusted in iteration number     2 of the first full s.c.f. cycle only.
  Algorithm-dependent basis array size parameters:
  | n_max_pulay                         :        8
 * Notice: The s.c.f. convergence criterion sc_accuracy_rho was not provided.
 * We used to stop in this case, and ask the user to provide reasonable
 * scf convergence criteria. However, this led some users to employ criteria
 * that led to extremely long run times, e.g., for simple relaxation.
 * We now preset a default value for sc_accuracy_rho if it is not set.
 * You may still wish to check if this setting is too tight or too loose for your needs.
 * Based on n_atoms, FHI-aims chose sc_accuracy_rho =  0.100000E-05 .
  Presetting      1001 iterations before the initial mixing cycle
  is restarted anyway using the sc_init_iter criterion / keyword.
  Presetting a factor      1.000 between actual scf density residual
  and density convergence criterion sc_accuracy_rho below which sc_init_iter
  takes no effect.
 * No s.c.f. convergence criteria (sc_accuracy_*) were provided in control.in.
 * The run will proceed with a reasonable default guess, but please check whether.
 * the s.c.f. cycles seem to take too much or too little time.
  No maximum number of relaxation steps, defaulting to     1000
  Default initial Hessian is Lindh matrix (thres = 15.00) plus  0.200000E+01 eV/A^2 times unity.
  No maximum energy tolerance for TRM/BFGS moves, defaulting to   0.200000E-03
  No harmonic length scale. Defaulting to   0.250000E-01 A.
  No trust radius initializer. Defaulting to   0.200000E+00 A.
  Force calculation: scf convergence accuracy of forces not set.
  Defaulting to 'sc_accuracy_forces not_checked'.
  Handling of forces: Unphysical translation and rotation will be removed from forces.
  No accuracy limit for integral partition fn. given. Defaulting to  0.1000E-14.
  No threshold value for u(r) in integrations given. Defaulting to  0.1000E-05.
  No occupation type (smearing scheme) given. Defaulting to Gaussian broadening, width =  0.1000E-01 eV.
  The width will be adjusted in iteration number     2 of the first full s.c.f. cycle only.
  S.C.F. convergence parameters will be adjusted in iteration number     2 of the first full s.c.f. cycle only.
  No accuracy for occupation numbers given. Defaulting to  0.1000E-12.
  No threshold value for occupation numbers given. Defaulting to  0.0000E+00.
  No accuracy for fermi level given. Defaulting to  0.1000E-19.
  Maximum # of iterations to find E_F not set. Defaulting to  200.
  Preferred method for the eigenvalue solver ('KS_method') not specified in 'control.in'.
  Defaulting to serial version, 'lapack_fast'.
  Will not use alltoall communication since running on < 1024 CPUs.
  Threshold for basis singularities not set.
  Default threshold for basis singularities:  0.1000E-04
  partition_type (choice of integration weights) for integrals was not specified.
  | Using a version of the partition function of Stratmann and coworkers ('stratmann_smoother').
  | At each grid point, the set of atoms used to build the partition table is smoothly restricted to
  | only those atoms whose free-atom density would be non-zero at that grid point.
  Partitioning for Hartree potential was not defined. Using partition_type for integrals.
  | Adjusted default value of keyword multip_moments_threshold to:       0.10000000E-11
  | This value may affect high angular momentum components of the Hartree potential in periodic systems.
  No q(lm)/r^(l+1) cutoff set for long-range Hartree potential.
  | Using default value of  0.100000E-09 .
  | Verify using the multipole_threshold keyword.
  Defaulting to new monopole extrapolation.
  Density update method: automatic selection selected.
  Geometry relaxation: A file "geometry.in.next_step" is written out by default after each step.
  | This file contains the geometry of the current relaxation step as well as
  | the current Hessian matrix needed to restart the relaxation algorithm.
  | If you do not want part or all of this information, use the keywords
  | "write_restart_geometry" or "hessian_to_restart_geometry" to switch the output off.
------------------------------------------------------------


------------------------------------------------------------
          Reading geometry description geometry.in.
------------------------------------------------------------
 * Warning: Initial charge and total charge of the system are inconsistent.
 * Selected charge in control.in:     1.0000* Sum of initial charges in geometry.in:     0.0000
 * Warning! You did not set the 'relativistic' flag in input file 'control.in'.
 * Since you are not attempting to treat any elements beyond Ca(Z=20), FHI-aims
 * will default to 'relativistic none'.
 * You must ensure that this is really what you want!!
 * For example, DO NOT compute total-energy differences between results from
 * different settings of the 'relativistic' flag.
  Input structure read successfully.
  The structure contains        4 atoms,  and a total of         10.000 electrons.

  Input geometry:
  | No unit cell requested.
  | Atomic structure:
  |       Atom                x [A]            y [A]            z [A]
  |    1: Species O             0.00000000        0.00000000        0.00000000
  |    2: Species H             0.92000000       -0.53000000        0.00000000
  |    3: Species H            -0.92000000       -0.53000000        0.00000000
  |    4: Species H             0.00000000        1.06000000        0.00000000
  |

  | The smallest distance between any two atoms is         1.06000000 AA.
  |
  | The first atom of this pair is atom number                      1 .
  | The second atom of this pair is atom number                     4 .

  Number of empty states per atom not set in control.in - providing a guess from actual geometry.
  | Total number of empty states used during s.c.f. cycle:        8
  If you use a very high smearing, use empty_states (per atom!) in control.in to increase this value.

  Structure-dependent array size parameters: 
  | Maximum number of distinct radial functions  :        9
  | Maximum number of basis functions            :       29
  | Number of Kohn-Sham states (occupied + empty):       13
------------------------------------------------------------

------------------------------------------------------------
          Preparing all fixed parts of the calculation.
------------------------------------------------------------
  Determining machine precision:
     2.2250738585072014E-308
  Setting up grids for atomic and cluster calculations.

  Creating wave function, potential, and density for free atoms.

  Species: H

  List of occupied orbitals and eigenvalues:
    n    l              occ      energy [Ha]    energy [eV]
    1    0           1.0000        -0.232375        -6.3233


  Species: O

  List of occupied orbitals and eigenvalues:
    n    l              occ      energy [Ha]    energy [eV]
    1    0           2.0000       -18.757744      -510.4242
    2    0           2.0000        -0.870917       -23.6989
    2    1           4.0000        -0.337950        -9.1961

  Creating fixed part of basis set: Ionic, confined, hydrogenic.

  H                    hydrogenic:

  List of hydrogenic basis orbitals: 
    n    l      effective z      eigenvalue [eV]  inner max. [A]     outer max. [A]     outer radius [A]   
    2    0         2.100000       -14.9728           0.193243           1.317208           4.583499
    2    1         3.500000       -41.6669           0.602369           0.602369           3.723403


  O                    hydrogenic:

  List of hydrogenic basis orbitals: 
    n    l      effective z      eigenvalue [eV]  inner max. [A]     outer max. [A]     outer radius [A]   
    2    1         1.800000       -10.9749           1.164242           1.164242           4.578029
    3    2         7.600000       -87.3180           0.624125           0.624125           3.251020
    3    0         6.400000       -61.9207           0.061167           1.081902           4.001998


  Adding cutoff potential to free-atom effective potential.
  Creating atomic-like basis functions for current effective potential.

  Species H                   :

  List of atomic basis orbitals and eigenvalues:
    n    l      energy [Ha]    energy [eV]    outer radius [A]
    1    0        -0.232375        -6.3233       4.527807


  Species O                   :

  List of atomic basis orbitals and eigenvalues:
    n    l      energy [Ha]    energy [eV]    outer radius [A]
    1    0       -18.757744      -510.4242       1.433179
    2    0        -0.870917       -23.6989       4.413171
    2    1        -0.337950        -9.1961       4.522403

  Assembling full basis from fixed parts.
  | Species H :   atomic orbital   1 s accepted.
  | Species H :    hydro orbital   2 s accepted.
  | Species H :    hydro orbital   2 p accepted.
  | Species O :   atomic orbital   1 s accepted.
  | Species O :    hydro orbital   3 s accepted.
  | Species O :   atomic orbital   2 s accepted.
  | Species O :   atomic orbital   2 p accepted.
  | Species O :    hydro orbital   2 p accepted.
  | Species O :    hydro orbital   3 d accepted.

  Basis size parameters after reduction:
  | Total number of radial functions:        9
  | Total number of basis functions :       29

  Per-task memory consumption for arrays in subroutine allocate_ext:
  |           2.249476MB.
  Testing on-site integration grid accuracy.
  |  Species  Function  <phi|h_atom|phi> (log., in eV)  <phi|h_atom|phi> (rad., in eV)
           1        1                 -6.3245358373                 -6.3232436907
           1        2                 14.1326137532                 14.1384481100
           1        3                 25.3627025200                 25.3628451197
           2        4               -510.4241781769               -510.4240769412
           2        5                 14.9072942218                 14.9072945276
           2        6                -21.2004736467                -21.2005650544
           2        7                 -9.1962086499                 -9.1963509828
           2        8                  8.1896755011                  8.1702200086
           2        9                 45.7920584945                 45.7920228528

  Preparing densities etc. for the partition functions (integrals / Hartree potential).

  Preparations completed.
  max(cpu_time)          :      0.047 s.
  Wall clock time (cpu1) :      0.047 s.
------------------------------------------------------------

------------------------------------------------------------
          Begin self-consistency loop: Initialization.

          Date     :  20190508, Time     :  162414.239
------------------------------------------------------------

  Initializing index lists of integration centers etc. from given atomic structure:
  | Number of centers in hartree potential         :         4
  | Number of centers in hartree multipole         :         4
  | Number of centers in electron density summation:         4
  | Number of centers in basis integrals           :         4
  | Number of centers in integrals                 :         4
  | Number of centers in hamiltonian               :         4
  Initializing relaxation algorithms.
  Partitioning the integration grid into batches with maxmin method.
  | Maximal weight for a single point:     1.000
  | Minimal weight for a single point:     0.000
  | Number of batches:      256
  | Maximal batch size:      90
  | Minimal batch size:      72
  | Average batch size:      80.719
  | Standard deviation of batch sizes:       6.450
  Initializing partition tables, free-atom densities, potentials, etc. across the integration grid (initialize_grid_storage).
  | initialize_grid_storage: Actual outermost partition radius vs. multipole_radius_free
  | (-- VB: in principle, multipole_radius_free should be larger, hence this output)
  | Species        1: Confinement radius =              4.999999999999999 AA, multipole_radius_free =              5.054417573612229 AA.
  | Species        1: outer_partition_radius set to              5.054417573612229 AA .
  | Species        2: Confinement radius =              4.999999999999999 AA, multipole_radius_free =              5.048384829883283 AA.
  | Species        2: outer_partition_radius set to              5.048384829883283 AA .
  | Original list of interatomic distances with           4 x          4 entries is created.
  | Net number of integration points:    20664
  | of which are non-zero points    :    18597
  Renormalizing the initial density to the exact electron count on the 3D integration grid.
  | Initial density: Formal number of electrons (from input files) :      11.0000000000
  | Integrated number of electrons on 3D grid     :      10.9999963872
  | Charge integration error                      :      -0.0000036128
  | Normalization factor for density and gradient :       1.0000003284
  Obtaining max. number of non-zero basis functions in each batch (get_n_compute_maxes).
  | Maximal number of non-zero basis functions:       29 in task     0
  Selecting the method for density update.
  Loop over occupied states selected for charge density update.
  Allocating        0.003 MB for KS_eigenvector
  Integrating Hamiltonian matrix: batch-based integration.
  Time summed over all CPUs for integration: real work        0.029 s, elapsed        0.029 s
  Integrating overlap matrix.
  Time summed over all CPUs for integration: real work        0.016 s, elapsed        0.016 s

  Updating Kohn-Sham eigenvalues, eigenvectors, occupation numbers, and Fermi level.
  Solving generalized eigenproblem
  Updating Kohn-Sham eigenvalues and eigenfunctions.
  Transforming overlap matrix and checking for singularities.
  Overlap matrix is nonsingular:
  | Lowest eigenvalue:  0.155108E-01
  Solving real generalised eigenvalue problem by standard LAPACK (fast)

  Obtaining occupation numbers and chemical potential using ELSI.
  | Chemical potential (Fermi level):    -7.15705343eV
  Writing Kohn-Sham eigenvalues.

  State    Occupation    Eigenvalue [Ha]    Eigenvalue [eV]
      1       2.00000         -18.877664         -513.68738
      2       2.00000          -1.094329          -29.77822
      3       2.00000          -0.631478          -17.18340
      4       2.00000          -0.631287          -17.17819
      5       2.00000          -0.462340          -12.58091
      6       0.00000          -0.110370           -3.00332
      7       0.00000          -0.015144           -0.41208
      8       0.00000          -0.014755           -0.40150
      9       0.00000           0.219323            5.96807
     10       0.00000           0.286064            7.78419
     11       0.00000           0.286839            7.80527
     12       0.00000           0.413778           11.25948
     13       0.00000           0.652458           17.75427

  Highest occupied state (VBM) at    -12.58090706 eV
  | Occupation number:      2.00000000

  Lowest unoccupied state (CBM) at    -3.00332297 eV
  | Occupation number:      0.00000000

  Overall HOMO-LUMO gap:      9.57758410 eV.
  Calculating total energy contributions from superposition of free atom densities.

  Total energy components:
  | Sum of eigenvalues            :         -43.39419716 Ha       -1180.81618407 eV
  | XC energy correction          :          -8.81626014 Ha        -239.90264458 eV
  | XC potential correction       :          11.60892769 Ha         315.89499496 eV
  | Free-atom electrostatic energy:         -35.69321364 Ha        -971.26176038 eV
  | Hartree energy correction     :          -0.00000000 Ha          -0.00000000 eV
  | Entropy correction            :          -0.00000000 Ha          -0.00000000 eV
  | ---------------------------
  | Total energy                  :         -76.29474326 Ha       -2076.08559407 eV
  | Total energy, T -> 0          :         -76.29474326 Ha       -2076.08559407 eV  <-- do not rely on this value for anything but (periodic) metals
  | Electronic free energy        :         -76.29474326 Ha       -2076.08559407 eV

  Derived energy quantities:
  | Kinetic energy                :          75.59705710 Ha        2057.10058787 eV
  | Electrostatic energy          :        -143.07554022 Ha       -3893.28353735 eV
  | Energy correction for multipole
  | error in Hartree potential    :           0.00000000 Ha           0.00000000 eV
  | Sum of eigenvalues per atom                           :        -295.20404602 eV
  | Total energy (T->0) per atom                          :        -519.02139852 eV  <-- do not rely on this value for anything but (periodic) metals
  | Electronic free energy per atom                       :        -519.02139852 eV
  Initialize hartree_potential_storage
  Max. number of atoms included in rho_multipole:            4

  End scf initialization - timings             :  max(cpu_time)    wall_clock(cpu1)
  | Time for scf. initialization               :        0.088 s           0.088 s
  | Boundary condition initialization          :        0.000 s           0.000 s
  | Relaxation initialization                  :        0.000 s           0.000 s
  | Integration                                :        0.046 s           0.045 s
  | Solution of K.-S. eqns.                    :        0.001 s           0.001 s
  | Grid partitioning                          :        0.014 s           0.014 s
  | Preloading free-atom quantities on grid    :        0.001 s           0.000 s
  | Free-atom superposition energy             :        0.012 s           0.013 s
  | Total energy evaluation                    :        0.000 s           0.000 s

  Partial memory accounting:
  | Current value for overall tracked memory usage on task 0  :           0.017 MB
  | Peak value for overall tracked memory usage on task 0     :           0.080 MB after allocating wave
  | Largest tracked array allocation on task 0 so far         :           0.021 MB  when allocating H_times_psi
  Note:  These values currently only include a subset of arrays which are explicitly tracked.
  The "true" memory usage will be greater.
------------------------------------------------------------

------------------------------------------------------------
          Begin self-consistency iteration #    1

  Date     :  20190508, Time     :  162414.327
------------------------------------------------------------
  Evaluating new KS density.
  Integration grid: deviation in total charge (<rho> - N_e) =   3.019807E-14
  Pulay mixing of updated and previous charge densities.

  Evaluating partitioned Hartree potential by multipole expansion.
  | Analytical far-field extrapolation by fixed multipoles:
  | Hartree multipole sum: apparent total charge =   0.499760E-01
  Summing up the Hartree potential.
  Time summed over all CPUs for potential: real work        0.017 s, elapsed        0.017 s
  | RMS charge density error from multipole expansion :   0.444458E-03

  Integrating Hamiltonian matrix: batch-based integration.
  Time summed over all CPUs for integration: real work        0.029 s, elapsed        0.029 s

  Updating Kohn-Sham eigenvalues, eigenvectors, occupation numbers, and Fermi level.
  Solving generalized eigenproblem
  Updating Kohn-Sham eigenvalues and eigenfunctions.
  Solving real generalised eigenvalue problem by standard LAPACK (fast)

  Obtaining occupation numbers and chemical potential using ELSI.
  | Chemical potential (Fermi level):    -7.37855360eV
  Writing Kohn-Sham eigenvalues.

  State    Occupation    Eigenvalue [Ha]    Eigenvalue [eV]
      1       2.00000         -18.868796         -513.44607
      2       2.00000          -1.098224          -29.88419
      3       2.00000          -0.637216          -17.33952
      4       2.00000          -0.637036          -17.33463
      5       2.00000          -0.464969          -12.65246
      6       0.00000          -0.120710           -3.28470
      7       0.00000          -0.024601           -0.66944
      8       0.00000          -0.024204           -0.65862
      9       0.00000           0.212324            5.77763
     10       0.00000           0.275925            7.50830
     11       0.00000           0.276702            7.52945
     12       0.00000           0.402973           10.96547
     13       0.00000           0.643481           17.51001

  Highest occupied state (VBM) at    -12.65245757 eV
  | Occupation number:      2.00000000

  Lowest unoccupied state (CBM) at    -3.28469504 eV
  | Occupation number:      0.00000000

  Overall HOMO-LUMO gap:      9.36776253 eV.

  Total energy components:
  | Sum of eigenvalues            :         -43.41248187 Ha       -1181.31373617 eV
  | XC energy correction          :          -8.81823507 Ha        -239.95638508 eV
  | XC potential correction       :          11.61174535 Ha         315.97166739 eV
  | Free-atom electrostatic energy:         -35.69321364 Ha        -971.26176038 eV
  | Hartree energy correction     :           0.03471693 Ha           0.94469561 eV
  | Entropy correction            :          -0.00000000 Ha          -0.00000000 eV
  | ---------------------------
  | Total energy                  :         -76.27746830 Ha       -2075.61551863 eV
  | Total energy, T -> 0          :         -76.27746830 Ha       -2075.61551863 eV  <-- do not rely on this value for anything but (periodic) metals
  | Electronic free energy        :         -76.27746830 Ha       -2075.61551863 eV

  Derived energy quantities:
  | Kinetic energy                :          75.67265146 Ha        2059.15761510 eV
  | Electrostatic energy          :        -143.13188469 Ha       -3894.81674864 eV
  | Energy correction for multipole
  | error in Hartree potential    :           0.00044660 Ha           0.01215262 eV
  | Sum of eigenvalues per atom                           :        -295.32843404 eV
  | Total energy (T->0) per atom                          :        -518.90387966 eV  <-- do not rely on this value for anything but (periodic) metals
  | Electronic free energy per atom                       :        -518.90387966 eV

  Self-consistency convergence accuracy:
  | Change of charge density      :  0.2520E+00
  | Change of sum of eigenvalues  : -0.4976E+00 eV
  | Change of total energy        :  0.4701E+00 eV

  End self-consistency iteration #     1       :  max(cpu_time)    wall_clock(cpu1)
  | Time for this iteration                    :        0.063 s           0.063 s
  | Charge density update                      :        0.013 s           0.014 s
  | Density mixing                             :        0.000 s           0.000 s
  | Hartree multipole update                   :        0.002 s           0.001 s
  | Hartree multipole summation                :        0.018 s           0.018 s
  | Integration                                :        0.029 s           0.029 s
  | Solution of K.-S. eqns.                    :        0.000 s           0.001 s
  | Total energy evaluation                    :        0.000 s           0.000 s

  Partial memory accounting:
  | Current value for overall tracked memory usage on task 0  :           0.017 MB
  | Peak value for overall tracked memory usage on task 0     :           0.086 MB after allocating wave
  | Largest tracked array allocation on task 0 so far         :           0.021 MB  when allocating H_times_psi
  Note:  These values currently only include a subset of arrays which are explicitly tracked.
  The "true" memory usage will be greater.
------------------------------------------------------------

------------------------------------------------------------
          Begin self-consistency iteration #    2

  Date     :  20190508, Time     :  162414.390
------------------------------------------------------------
  Evaluating new KS density.
  Integration grid: deviation in total charge (<rho> - N_e) =  -2.664535E-14
  Pulay mixing of updated and previous charge densities.

  Evaluating partitioned Hartree potential by multipole expansion.
  | Analytical far-field extrapolation by fixed multipoles:
  | Hartree multipole sum: apparent total charge =   0.420415E+00
  Summing up the Hartree potential.
  Time summed over all CPUs for potential: real work        0.017 s, elapsed        0.017 s
  | RMS charge density error from multipole expansion :   0.370335E-02

  Integrating Hamiltonian matrix: batch-based integration.
  Time summed over all CPUs for integration: real work        0.029 s, elapsed        0.029 s

  Updating Kohn-Sham eigenvalues, eigenvectors, occupation numbers, and Fermi level.
  Solving generalized eigenproblem
  Updating Kohn-Sham eigenvalues and eigenfunctions.
  Solving real generalised eigenvalue problem by standard LAPACK (fast)

  Obtaining occupation numbers and chemical potential using ELSI.
  | Chemical potential (Fermi level):    -9.05185266eV
  Highest occupied state (VBM) at    -13.41264256 eV
  | Occupation number:      2.00000000

  Lowest unoccupied state (CBM) at    -5.34906802 eV
  | Occupation number:      0.00000000

  Overall HOMO-LUMO gap:      8.06357455 eV.

  Checking to see if s.c.f. parameters should be adjusted.
  The system likely has a gap. Increased the default Pulay mixing parameter (charge_mix_param). Value:   0.200000 .
  Kept the default occupation width. Value:   0.010000 eV.

  Total energy components:
  | Sum of eigenvalues            :         -43.64486588 Ha       -1187.63722686 eV
  | XC energy correction          :          -8.83063112 Ha        -240.29369875 eV
  | XC potential correction       :          11.62960247 Ha         316.45758442 eV
  | Free-atom electrostatic energy:         -35.69321364 Ha        -971.26176038 eV
  | Hartree energy correction     :           0.34353628 Ha           9.34809784 eV
  | Entropy correction            :          -0.00000000 Ha          -0.00000000 eV
  | ---------------------------
  | Total energy                  :         -76.19557188 Ha       -2073.38700372 eV
  | Total energy, T -> 0          :         -76.19557188 Ha       -2073.38700372 eV  <-- do not rely on this value for anything but (periodic) metals
  | Electronic free energy        :         -76.19557188 Ha       -2073.38700372 eV

  Derived energy quantities:
  | Kinetic energy                :          76.08752191 Ha        2070.44681448 eV
  | Electrostatic energy          :        -143.45246268 Ha       -3903.54011945 eV
  | Energy correction for multipole
  | error in Hartree potential    :           0.00349992 Ha           0.09523778 eV
  | Sum of eigenvalues per atom                           :        -296.90930671 eV
  | Total energy (T->0) per atom                          :        -518.34675093 eV  <-- do not rely on this value for anything but (periodic) metals
  | Electronic free energy per atom                       :        -518.34675093 eV

  Self-consistency convergence accuracy:
  | Change of charge density      :  0.2270E+00
  | Change of sum of eigenvalues  : -0.6323E+01 eV
  | Change of total energy        :  0.2229E+01 eV

  End self-consistency iteration #     2       :  max(cpu_time)    wall_clock(cpu1)
  | Time for this iteration                    :        0.060 s           0.060 s
  | Charge density update                      :        0.011 s           0.011 s
  | Density mixing                             :        0.000 s           0.001 s
  | Hartree multipole update                   :        0.001 s           0.001 s
  | Hartree multipole summation                :        0.017 s           0.018 s
  | Integration                                :        0.030 s           0.029 s
  | Solution of K.-S. eqns.                    :        0.000 s           0.000 s
  | Total energy evaluation                    :        0.000 s           0.000 s

  Partial memory accounting:
  | Current value for overall tracked memory usage on task 0  :           0.018 MB
  | Peak value for overall tracked memory usage on task 0     :           0.087 MB after allocating wave
  | Largest tracked array allocation on task 0 so far         :           0.021 MB  when allocating H_times_psi
  Note:  These values currently only include a subset of arrays which are explicitly tracked.
  The "true" memory usage will be greater.
------------------------------------------------------------

------------------------------------------------------------
          Begin self-consistency iteration #    3

  Date     :  20190508, Time     :  162414.450
------------------------------------------------------------
  Evaluating new KS density.
  Integration grid: deviation in total charge (<rho> - N_e) =   3.552714E-15
  Pulay mixing of updated and previous charge densities.

  Evaluating partitioned Hartree potential by multipole expansion.
  | Analytical far-field extrapolation by fixed multipoles:
  | Hartree multipole sum: apparent total charge =   0.858022E+00
  Summing up the Hartree potential.
  Time summed over all CPUs for potential: real work        0.017 s, elapsed        0.017 s
  | RMS charge density error from multipole expansion :   0.741847E-02

  Integrating Hamiltonian matrix: batch-based integration.
  Time summed over all CPUs for integration: real work        0.029 s, elapsed        0.029 s

  Updating Kohn-Sham eigenvalues, eigenvectors, occupation numbers, and Fermi level.
  Solving generalized eigenproblem
  Updating Kohn-Sham eigenvalues and eigenfunctions.
  Solving real generalised eigenvalue problem by standard LAPACK (fast)

  Obtaining occupation numbers and chemical potential using ELSI.
  | Chemical potential (Fermi level):   -12.09349194eV
  Highest occupied state (VBM) at    -17.01370711 eV
  | Occupation number:      2.00000000

  Lowest unoccupied state (CBM) at    -8.24295423 eV
  | Occupation number:      0.00000000

  Overall HOMO-LUMO gap:      8.77075288 eV.

  Total energy components:
  | Sum of eigenvalues            :         -45.08578105 Ha       -1226.84652360 eV
  | XC energy correction          :          -8.72322744 Ha        -237.37109595 eV
  | XC potential correction       :          11.48924767 Ha         312.63833603 eV
  | Free-atom electrostatic energy:         -35.69321364 Ha        -971.26176038 eV
  | Hartree energy correction     :           1.85151976 Ha          50.38241607 eV
  | Entropy correction            :          -0.00000000 Ha          -0.00000000 eV
  | ---------------------------
  | Total energy                  :         -76.16145470 Ha       -2072.45862783 eV
  | Total energy, T -> 0          :         -76.16145470 Ha       -2072.45862783 eV  <-- do not rely on this value for anything but (periodic) metals
  | Electronic free energy        :         -76.16145470 Ha       -2072.45862783 eV

  Derived energy quantities:
  | Kinetic energy                :          75.52638814 Ha        2055.17758760 eV
  | Electrostatic energy          :        -142.96461540 Ha       -3890.26511948 eV
  | Energy correction for multipole
  | error in Hartree potential    :           0.00438766 Ha           0.11939426 eV
  | Sum of eigenvalues per atom                           :        -306.71163090 eV
  | Total energy (T->0) per atom                          :        -518.11465696 eV  <-- do not rely on this value for anything but (periodic) metals
  | Electronic free energy per atom                       :        -518.11465696 eV

  Self-consistency convergence accuracy:
  | Change of charge density      :  0.1094E+00
  | Change of sum of eigenvalues  : -0.3921E+02 eV
  | Change of total energy        :  0.9284E+00 eV

  End self-consistency iteration #     3       :  max(cpu_time)    wall_clock(cpu1)
  | Time for this iteration                    :        0.061 s           0.061 s
  | Charge density update                      :        0.012 s           0.012 s
  | Density mixing                             :        0.000 s           0.000 s
  | Hartree multipole update                   :        0.001 s           0.002 s
  | Hartree multipole summation                :        0.017 s           0.017 s
  | Integration                                :        0.029 s           0.029 s
  | Solution of K.-S. eqns.                    :        0.000 s           0.000 s
  | Total energy evaluation                    :        0.000 s           0.000 s

  Partial memory accounting:
  | Current value for overall tracked memory usage on task 0  :           0.018 MB
  | Peak value for overall tracked memory usage on task 0     :           0.088 MB after allocating wave
  | Largest tracked array allocation on task 0 so far         :           0.021 MB  when allocating H_times_psi
  Note:  These values currently only include a subset of arrays which are explicitly tracked.
  The "true" memory usage will be greater.
------------------------------------------------------------

------------------------------------------------------------
          Begin self-consistency iteration #    4

  Date     :  20190508, Time     :  162414.511
------------------------------------------------------------
  Evaluating new KS density.
  Integration grid: deviation in total charge (<rho> - N_e) =  -1.598721E-14
  Pulay mixing of updated and previous charge densities.

  Evaluating partitioned Hartree potential by multipole expansion.
  | Analytical far-field extrapolation by fixed multipoles:
  | Hartree multipole sum: apparent total charge =   0.101578E+01
  Summing up the Hartree potential.
  Time summed over all CPUs for potential: real work        0.017 s, elapsed        0.017 s
  | RMS charge density error from multipole expansion :   0.882182E-02

  Integrating Hamiltonian matrix: batch-based integration.
  Time summed over all CPUs for integration: real work        0.029 s, elapsed        0.029 s

  Updating Kohn-Sham eigenvalues, eigenvectors, occupation numbers, and Fermi level.
  Solving generalized eigenproblem
  Updating Kohn-Sham eigenvalues and eigenfunctions.
  Solving real generalised eigenvalue problem by standard LAPACK (fast)

  Obtaining occupation numbers and chemical potential using ELSI.
  | Chemical potential (Fermi level):   -12.79534616eV
  Highest occupied state (VBM) at    -17.76208048 eV
  | Occupation number:      2.00000000

  Lowest unoccupied state (CBM) at    -9.04771734 eV
  | Occupation number:      0.00000000

  Overall HOMO-LUMO gap:      8.71436314 eV.

  Total energy components:
  | Sum of eigenvalues            :         -45.36919075 Ha       -1234.55849398 eV
  | XC energy correction          :          -8.71725598 Ha        -237.20860415 eV
  | XC potential correction       :          11.48184604 Ha         312.43692746 eV
  | Free-atom electrostatic energy:         -35.69321364 Ha        -971.26176038 eV
  | Hartree energy correction     :           2.13860466 Ha          58.19439379 eV
  | Entropy correction            :          -0.00000000 Ha          -0.00000000 eV
  | ---------------------------
  | Total energy                  :         -76.15920966 Ha       -2072.39753726 eV
  | Total energy, T -> 0          :         -76.15920966 Ha       -2072.39753726 eV  <-- do not rely on this value for anything but (periodic) metals
  | Electronic free energy        :         -76.15920966 Ha       -2072.39753726 eV

  Derived energy quantities:
  | Kinetic energy                :          75.48560621 Ha        2054.06785474 eV
  | Electrostatic energy          :        -142.92755989 Ha       -3889.25678785 eV
  | Energy correction for multipole
  | error in Hartree potential    :           0.00520907 Ha           0.14174608 eV
  | Sum of eigenvalues per atom                           :        -308.63962349 eV
  | Total energy (T->0) per atom                          :        -518.09938431 eV  <-- do not rely on this value for anything but (periodic) metals
  | Electronic free energy per atom                       :        -518.09938431 eV

  Self-consistency convergence accuracy:
  | Change of charge density      :  0.4649E-01
  | Change of sum of eigenvalues  : -0.7712E+01 eV
  | Change of total energy        :  0.6109E-01 eV

  End self-consistency iteration #     4       :  max(cpu_time)    wall_clock(cpu1)
  | Time for this iteration                    :        0.060 s           0.061 s
  | Charge density update                      :        0.012 s           0.012 s
  | Density mixing                             :        0.001 s           0.000 s
  | Hartree multipole update                   :        0.001 s           0.002 s
  | Hartree multipole summation                :        0.017 s           0.017 s
  | Integration                                :        0.029 s           0.029 s
  | Solution of K.-S. eqns.                    :        0.000 s           0.001 s
  | Total energy evaluation                    :        0.000 s           0.000 s

  Partial memory accounting:
  | Current value for overall tracked memory usage on task 0  :           0.019 MB
  | Peak value for overall tracked memory usage on task 0     :           0.088 MB after allocating wave
  | Largest tracked array allocation on task 0 so far         :           0.021 MB  when allocating H_times_psi
  Note:  These values currently only include a subset of arrays which are explicitly tracked.
  The "true" memory usage will be greater.
------------------------------------------------------------

------------------------------------------------------------
          Begin self-consistency iteration #    5

  Date     :  20190508, Time     :  162414.572
------------------------------------------------------------
  Evaluating new KS density.
  Integration grid: deviation in total charge (<rho> - N_e) =  -2.486900E-14
  Pulay mixing of updated and previous charge densities.

  Evaluating partitioned Hartree potential by multipole expansion.
  | Analytical far-field extrapolation by fixed multipoles:
  | Hartree multipole sum: apparent total charge =   0.100578E+01
  Summing up the Hartree potential.
  Time summed over all CPUs for potential: real work        0.017 s, elapsed        0.017 s
  | RMS charge density error from multipole expansion :   0.889754E-02

  Integrating Hamiltonian matrix: batch-based integration.
  Time summed over all CPUs for integration: real work        0.030 s, elapsed        0.030 s

  Updating Kohn-Sham eigenvalues, eigenvectors, occupation numbers, and Fermi level.
  Solving generalized eigenproblem
  Updating Kohn-Sham eigenvalues and eigenfunctions.
  Solving real generalised eigenvalue problem by standard LAPACK (fast)

  Obtaining occupation numbers and chemical potential using ELSI.
  | Chemical potential (Fermi level):   -12.56496160eV
  Highest occupied state (VBM) at    -17.41063107 eV
  | Occupation number:      2.00000000

  Lowest unoccupied state (CBM) at    -8.85128020 eV
  | Occupation number:      0.00000000

  Overall HOMO-LUMO gap:      8.55935086 eV.

  Total energy components:
  | Sum of eigenvalues            :         -45.22751781 Ha       -1230.70337716 eV
  | XC energy correction          :          -8.73455964 Ha        -237.67946089 eV
  | XC potential correction       :          11.50460097 Ha         313.05612061 eV
  | Free-atom electrostatic energy:         -35.69321364 Ha        -971.26176038 eV
  | Hartree energy correction     :           1.99158051 Ha          54.19366309 eV
  | Entropy correction            :          -0.00000000 Ha          -0.00000000 eV
  | ---------------------------
  | Total energy                  :         -76.15910961 Ha       -2072.39481473 eV
  | Total energy, T -> 0          :         -76.15910961 Ha       -2072.39481473 eV  <-- do not rely on this value for anything but (periodic) metals
  | Electronic free energy        :         -76.15910961 Ha       -2072.39481473 eV

  Derived energy quantities:
  | Kinetic energy                :          75.55117434 Ha        2055.85205437 eV
  | Electrostatic energy          :        -142.97572430 Ha       -3890.56740821 eV
  | Energy correction for multipole
  | error in Hartree potential    :           0.00524950 Ha           0.14284618 eV
  | Sum of eigenvalues per atom                           :        -307.67584429 eV
  | Total energy (T->0) per atom                          :        -518.09870368 eV  <-- do not rely on this value for anything but (periodic) metals
  | Electronic free energy per atom                       :        -518.09870368 eV

  Self-consistency convergence accuracy:
  | Change of charge density      :  0.9218E-02
  | Change of sum of eigenvalues  :  0.3855E+01 eV
  | Change of total energy        :  0.2723E-02 eV

  End self-consistency iteration #     5       :  max(cpu_time)    wall_clock(cpu1)
  | Time for this iteration                    :        0.060 s           0.060 s
  | Charge density update                      :        0.011 s           0.011 s
  | Density mixing                             :        0.001 s           0.001 s
  | Hartree multipole update                   :        0.002 s           0.001 s
  | Hartree multipole summation                :        0.017 s           0.017 s
  | Integration                                :        0.029 s           0.030 s
  | Solution of K.-S. eqns.                    :        0.000 s           0.000 s
  | Total energy evaluation                    :        0.000 s           0.000 s

  Partial memory accounting:
  | Current value for overall tracked memory usage on task 0  :           0.019 MB
  | Peak value for overall tracked memory usage on task 0     :           0.088 MB after allocating wave
  | Largest tracked array allocation on task 0 so far         :           0.021 MB  when allocating H_times_psi
  Note:  These values currently only include a subset of arrays which are explicitly tracked.
  The "true" memory usage will be greater.
------------------------------------------------------------

------------------------------------------------------------
          Begin self-consistency iteration #    6

  Date     :  20190508, Time     :  162414.632
------------------------------------------------------------
  Evaluating new KS density.
  Integration grid: deviation in total charge (<rho> - N_e) =   7.105427E-15
  Pulay mixing of updated and previous charge densities.

  Evaluating partitioned Hartree potential by multipole expansion.
  | Analytical far-field extrapolation by fixed multipoles:
  | Hartree multipole sum: apparent total charge =   0.999023E+00
  Summing up the Hartree potential.
  Time summed over all CPUs for potential: real work        0.017 s, elapsed        0.017 s
  | RMS charge density error from multipole expansion :   0.883753E-02

  Integrating Hamiltonian matrix: batch-based integration.
  Time summed over all CPUs for integration: real work        0.029 s, elapsed        0.029 s

  Updating Kohn-Sham eigenvalues, eigenvectors, occupation numbers, and Fermi level.
  Solving generalized eigenproblem
  Updating Kohn-Sham eigenvalues and eigenfunctions.
  Solving real generalised eigenvalue problem by standard LAPACK (fast)

  Obtaining occupation numbers and chemical potential using ELSI.
  | Chemical potential (Fermi level):   -12.58679489eV
  Highest occupied state (VBM) at    -17.46749126 eV
  | Occupation number:      2.00000000

  Lowest unoccupied state (CBM) at    -8.84623386 eV
  | Occupation number:      0.00000000

  Overall HOMO-LUMO gap:      8.62125741 eV.

  Total energy components:
  | Sum of eigenvalues            :         -45.25394957 Ha       -1231.42262198 eV
  | XC energy correction          :          -8.73001099 Ha        -237.55568578 eV
  | XC potential correction       :          11.49857237 Ha         312.89207409 eV
  | Free-atom electrostatic energy:         -35.69321364 Ha        -971.26176038 eV
  | Hartree energy correction     :           2.01954674 Ha          54.95466277 eV
  | Entropy correction            :          -0.00000000 Ha          -0.00000000 eV
  | ---------------------------
  | Total energy                  :         -76.15905509 Ha       -2072.39333126 eV
  | Total energy, T -> 0          :         -76.15905509 Ha       -2072.39333126 eV  <-- do not rely on this value for anything but (periodic) metals
  | Electronic free energy        :         -76.15905509 Ha       -2072.39333126 eV

  Derived energy quantities:
  | Kinetic energy                :          75.52182117 Ha        2055.05331399 eV
  | Electrostatic energy          :        -142.95086527 Ha       -3889.89095948 eV
  | Energy correction for multipole
  | error in Hartree potential    :           0.00511494 Ha           0.13918462 eV
  | Sum of eigenvalues per atom                           :        -307.85565549 eV
  | Total energy (T->0) per atom                          :        -518.09833282 eV  <-- do not rely on this value for anything but (periodic) metals
  | Electronic free energy per atom                       :        -518.09833282 eV

  Self-consistency convergence accuracy:
  | Change of charge density      :  0.1013E-01
  | Change of sum of eigenvalues  : -0.7192E+00 eV
  | Change of total energy        :  0.1483E-02 eV

  End self-consistency iteration #     6       :  max(cpu_time)    wall_clock(cpu1)
  | Time for this iteration                    :        0.060 s           0.061 s
  | Charge density update                      :        0.011 s           0.012 s
  | Density mixing                             :        0.001 s           0.000 s
  | Hartree multipole update                   :        0.001 s           0.002 s
  | Hartree multipole summation                :        0.017 s           0.017 s
  | Integration                                :        0.029 s           0.029 s
  | Solution of K.-S. eqns.                    :        0.000 s           0.000 s
  | Total energy evaluation                    :        0.000 s           0.000 s

  Partial memory accounting:
  | Current value for overall tracked memory usage on task 0  :           0.019 MB
  | Peak value for overall tracked memory usage on task 0     :           0.089 MB after allocating wave
  | Largest tracked array allocation on task 0 so far         :           0.021 MB  when allocating H_times_psi
  Note:  These values currently only include a subset of arrays which are explicitly tracked.
  The "true" memory usage will be greater.
------------------------------------------------------------

------------------------------------------------------------
          Begin self-consistency iteration #    7

  Date     :  20190508, Time     :  162414.693
------------------------------------------------------------
  Evaluating new KS density.
  Integration grid: deviation in total charge (<rho> - N_e) =  -1.065814E-14
  Pulay mixing of updated and previous charge densities.

  Evaluating partitioned Hartree potential by multipole expansion.
  | Analytical far-field extrapolation by fixed multipoles:
  | Hartree multipole sum: apparent total charge =   0.999373E+00
  Summing up the Hartree potential.
  Time summed over all CPUs for potential: real work        0.017 s, elapsed        0.017 s
  | RMS charge density error from multipole expansion :   0.883282E-02

  Integrating Hamiltonian matrix: batch-based integration.
  Time summed over all CPUs for integration: real work        0.037 s, elapsed        0.037 s

  Updating Kohn-Sham eigenvalues, eigenvectors, occupation numbers, and Fermi level.
  Solving generalized eigenproblem
  Updating Kohn-Sham eigenvalues and eigenfunctions.
  Solving real generalised eigenvalue problem by standard LAPACK (fast)

  Obtaining occupation numbers and chemical potential using ELSI.
  | Chemical potential (Fermi level):   -12.58775993eV
  Highest occupied state (VBM) at    -17.46781533 eV
  | Occupation number:      2.00000000

  Lowest unoccupied state (CBM) at    -8.84681788 eV
  | Occupation number:      0.00000000

  Overall HOMO-LUMO gap:      8.62099745 eV.

  Total energy components:
  | Sum of eigenvalues            :         -45.25514618 Ha       -1231.45518344 eV
  | XC energy correction          :          -8.72986987 Ha        -237.55184576 eV
  | XC potential correction       :          11.49838493 Ha         312.88697345 eV
  | Free-atom electrostatic energy:         -35.69321364 Ha        -971.26176038 eV
  | Hartree energy correction     :           2.02079061 Ha          54.98851016 eV
  | Entropy correction            :          -0.00000000 Ha          -0.00000000 eV
  | ---------------------------
  | Total energy                  :         -76.15905416 Ha       -2072.39330597 eV
  | Total energy, T -> 0          :         -76.15905416 Ha       -2072.39330597 eV  <-- do not rely on this value for anything but (periodic) metals
  | Electronic free energy        :         -76.15905416 Ha       -2072.39330597 eV

  Derived energy quantities:
  | Kinetic energy                :          75.51878541 Ha        2054.97070686 eV
  | Electrostatic energy          :        -142.94796970 Ha       -3889.81216707 eV
  | Energy correction for multipole
  | error in Hartree potential    :           0.00507520 Ha           0.13810323 eV
  | Sum of eigenvalues per atom                           :        -307.86379586 eV
  | Total energy (T->0) per atom                          :        -518.09832649 eV  <-- do not rely on this value for anything but (periodic) metals
  | Electronic free energy per atom                       :        -518.09832649 eV

  Self-consistency convergence accuracy:
  | Change of charge density      :  0.8449E-03
  | Change of sum of eigenvalues  : -0.3256E-01 eV
  | Change of total energy        :  0.2529E-04 eV

  End self-consistency iteration #     7       :  max(cpu_time)    wall_clock(cpu1)
  | Time for this iteration                    :        0.069 s           0.069 s
  | Charge density update                      :        0.012 s           0.011 s
  | Density mixing                             :        0.001 s           0.001 s
  | Hartree multipole update                   :        0.001 s           0.002 s
  | Hartree multipole summation                :        0.017 s           0.017 s
  | Integration                                :        0.037 s           0.037 s
  | Solution of K.-S. eqns.                    :        0.000 s           0.001 s
  | Total energy evaluation                    :        0.000 s           0.000 s

  Partial memory accounting:
  | Current value for overall tracked memory usage on task 0  :           0.019 MB
  | Peak value for overall tracked memory usage on task 0     :           0.089 MB after allocating wave
  | Largest tracked array allocation on task 0 so far         :           0.021 MB  when allocating H_times_psi
  Note:  These values currently only include a subset of arrays which are explicitly tracked.
  The "true" memory usage will be greater.
------------------------------------------------------------

------------------------------------------------------------
          Begin self-consistency iteration #    8

  Date     :  20190508, Time     :  162414.762
------------------------------------------------------------
  Evaluating new KS density.
  Integration grid: deviation in total charge (<rho> - N_e) =  -1.776357E-14
  Pulay mixing of updated and previous charge densities.

  Evaluating partitioned Hartree potential by multipole expansion.
  | Analytical far-field extrapolation by fixed multipoles:
  | Hartree multipole sum: apparent total charge =   0.999548E+00
  Summing up the Hartree potential.
  Time summed over all CPUs for potential: real work        0.019 s, elapsed        0.019 s
  | RMS charge density error from multipole expansion :   0.883752E-02

  Integrating Hamiltonian matrix: batch-based integration.
  Time summed over all CPUs for integration: real work        0.032 s, elapsed        0.032 s

  Updating Kohn-Sham eigenvalues, eigenvectors, occupation numbers, and Fermi level.
  Solving generalized eigenproblem
  Updating Kohn-Sham eigenvalues and eigenfunctions.
  Solving real generalised eigenvalue problem by standard LAPACK (fast)

  Obtaining occupation numbers and chemical potential using ELSI.
  | Chemical potential (Fermi level):   -12.58242372eV
  Highest occupied state (VBM) at    -17.45946636 eV
  | Occupation number:      2.00000000

  Lowest unoccupied state (CBM) at    -8.84280742 eV
  | Occupation number:      0.00000000

  Overall HOMO-LUMO gap:      8.61665894 eV.

  Total energy components:
  | Sum of eigenvalues            :         -45.25206402 Ha       -1231.37131354 eV
  | XC energy correction          :          -8.73032281 Ha        -237.56417066 eV
  | XC potential correction       :          11.49898087 Ha         312.90318976 eV
  | Free-atom electrostatic energy:         -35.69321364 Ha        -971.26176038 eV
  | Hartree energy correction     :           2.01756564 Ha          54.90075428 eV
  | Entropy correction            :          -0.00000000 Ha          -0.00000000 eV
  | ---------------------------
  | Total energy                  :         -76.15905396 Ha       -2072.39330054 eV
  | Total energy, T -> 0          :         -76.15905396 Ha       -2072.39330054 eV  <-- do not rely on this value for anything but (periodic) metals
  | Electronic free energy        :         -76.15905396 Ha       -2072.39330054 eV

  Derived energy quantities:
  | Kinetic energy                :          75.51961350 Ha        2054.99324034 eV
  | Electrostatic energy          :        -142.94834466 Ha       -3889.82237022 eV
  | Energy correction for multipole
  | error in Hartree potential    :           0.00506639 Ha           0.13786340 eV
  | Sum of eigenvalues per atom                           :        -307.84282838 eV
  | Total energy (T->0) per atom                          :        -518.09832513 eV  <-- do not rely on this value for anything but (periodic) metals
  | Electronic free energy per atom                       :        -518.09832513 eV

  Self-consistency convergence accuracy:
  | Change of charge density      :  0.5745E-03
  | Change of sum of eigenvalues  :  0.8387E-01 eV
  | Change of total energy        :  0.5433E-05 eV

  End self-consistency iteration #     8       :  max(cpu_time)    wall_clock(cpu1)
  | Time for this iteration                    :        0.069 s           0.069 s
  | Charge density update                      :        0.014 s           0.014 s
  | Density mixing                             :        0.001 s           0.001 s
  | Hartree multipole update                   :        0.002 s           0.002 s
  | Hartree multipole summation                :        0.019 s           0.019 s
  | Integration                                :        0.032 s           0.032 s
  | Solution of K.-S. eqns.                    :        0.000 s           0.000 s
  | Total energy evaluation                    :        0.000 s           0.001 s

  Partial memory accounting:
  | Current value for overall tracked memory usage on task 0  :           0.020 MB
  | Peak value for overall tracked memory usage on task 0     :           0.089 MB after allocating wave
  | Largest tracked array allocation on task 0 so far         :           0.021 MB  when allocating H_times_psi
  Note:  These values currently only include a subset of arrays which are explicitly tracked.
  The "true" memory usage will be greater.
------------------------------------------------------------

------------------------------------------------------------
          Begin self-consistency iteration #    9

  Date     :  20190508, Time     :  162414.831
------------------------------------------------------------
  Evaluating new KS density.
  Integration grid: deviation in total charge (<rho> - N_e) =  -3.552714E-15
  Pulay mixing of updated and previous charge densities.

  Evaluating partitioned Hartree potential by multipole expansion.
  | Analytical far-field extrapolation by fixed multipoles:
  | Hartree multipole sum: apparent total charge =   0.999603E+00
  Summing up the Hartree potential.
  Time summed over all CPUs for potential: real work        0.021 s, elapsed        0.021 s
  | RMS charge density error from multipole expansion :   0.883845E-02

  Integrating Hamiltonian matrix: batch-based integration.
  Time summed over all CPUs for integration: real work        0.035 s, elapsed        0.035 s

  Updating Kohn-Sham eigenvalues, eigenvectors, occupation numbers, and Fermi level.
  Solving generalized eigenproblem
  Updating Kohn-Sham eigenvalues and eigenfunctions.
  Solving real generalised eigenvalue problem by standard LAPACK (fast)

  Obtaining occupation numbers and chemical potential using ELSI.
  | Chemical potential (Fermi level):   -12.58218124eV
  Highest occupied state (VBM) at    -17.45915264 eV
  | Occupation number:      2.00000000

  Lowest unoccupied state (CBM) at    -8.84268607 eV
  | Occupation number:      0.00000000

  Overall HOMO-LUMO gap:      8.61646657 eV.

  Total energy components:
  | Sum of eigenvalues            :         -45.25199558 Ha       -1231.36945120 eV
  | XC energy correction          :          -8.73034540 Ha        -237.56478556 eV
  | XC potential correction       :          11.49901058 Ha         312.90399815 eV
  | Free-atom electrostatic energy:         -35.69321364 Ha        -971.26176038 eV
  | Hartree energy correction     :           2.01749011 Ha          54.89869910 eV
  | Entropy correction            :          -0.00000000 Ha          -0.00000000 eV
  | ---------------------------
  | Total energy                  :         -76.15905394 Ha       -2072.39329989 eV
  | Total energy, T -> 0          :         -76.15905394 Ha       -2072.39329989 eV  <-- do not rely on this value for anything but (periodic) metals
  | Electronic free energy        :         -76.15905394 Ha       -2072.39329989 eV

  Derived energy quantities:
  | Kinetic energy                :          75.51954803 Ha        2054.99145871 eV
  | Electrostatic energy          :        -142.94825657 Ha       -3889.81997304 eV
  | Energy correction for multipole
  | error in Hartree potential    :           0.00506500 Ha           0.13782562 eV
  | Sum of eigenvalues per atom                           :        -307.84236280 eV
  | Total energy (T->0) per atom                          :        -518.09832497 eV  <-- do not rely on this value for anything but (periodic) metals
  | Electronic free energy per atom                       :        -518.09832497 eV

  Self-consistency convergence accuracy:
  | Change of charge density      :  0.5809E-04
  | Change of sum of eigenvalues  :  0.1862E-02 eV
  | Change of total energy        :  0.6494E-06 eV

  End self-consistency iteration #     9       :  max(cpu_time)    wall_clock(cpu1)
  | Time for this iteration                    :        0.074 s           0.074 s
  | Charge density update                      :        0.013 s           0.013 s
  | Density mixing                             :        0.002 s           0.002 s
  | Hartree multipole update                   :        0.003 s           0.003 s
  | Hartree multipole summation                :        0.021 s           0.021 s
  | Integration                                :        0.034 s           0.035 s
  | Solution of K.-S. eqns.                    :        0.000 s           0.000 s
  | Total energy evaluation                    :        0.000 s           0.000 s

  Partial memory accounting:
  | Current value for overall tracked memory usage on task 0  :           0.020 MB
  | Peak value for overall tracked memory usage on task 0     :           0.089 MB after allocating wave
  | Largest tracked array allocation on task 0 so far         :           0.021 MB  when allocating H_times_psi
  Note:  These values currently only include a subset of arrays which are explicitly tracked.
  The "true" memory usage will be greater.
------------------------------------------------------------

------------------------------------------------------------
          Begin self-consistency iteration #   10

  Date     :  20190508, Time     :  162414.905
------------------------------------------------------------
  Evaluating new KS density.
  Integration grid: deviation in total charge (<rho> - N_e) =  -1.953993E-14
  Pulay mixing of updated and previous charge densities.

  Evaluating partitioned Hartree potential by multipole expansion.
  | Analytical far-field extrapolation by fixed multipoles:
  | Hartree multipole sum: apparent total charge =   0.999611E+00
  Summing up the Hartree potential.
  Time summed over all CPUs for potential: real work        0.017 s, elapsed        0.017 s
  | RMS charge density error from multipole expansion :   0.883864E-02

  Integrating Hamiltonian matrix: batch-based integration.
  Time summed over all CPUs for integration: real work        0.033 s, elapsed        0.033 s

  Updating Kohn-Sham eigenvalues, eigenvectors, occupation numbers, and Fermi level.
  Solving generalized eigenproblem
  Updating Kohn-Sham eigenvalues and eigenfunctions.
  Solving real generalised eigenvalue problem by standard LAPACK (fast)

  Obtaining occupation numbers and chemical potential using ELSI.
  | Chemical potential (Fermi level):   -12.58215448eV
  Highest occupied state (VBM) at    -17.45913260 eV
  | Occupation number:      2.00000000

  Lowest unoccupied state (CBM) at    -8.84266944 eV
  | Occupation number:      0.00000000

  Overall HOMO-LUMO gap:      8.61646316 eV.

  Total energy components:
  | Sum of eigenvalues            :         -45.25199650 Ha       -1231.36947626 eV
  | XC energy correction          :          -8.73034777 Ha        -237.56484994 eV
  | XC potential correction       :          11.49901367 Ha         312.90408247 eV
  | Free-atom electrostatic energy:         -35.69321364 Ha        -971.26176038 eV
  | Hartree energy correction     :           2.01749030 Ha          54.89870429 eV
  | Entropy correction            :          -0.00000000 Ha          -0.00000000 eV
  | ---------------------------
  | Total energy                  :         -76.15905394 Ha       -2072.39329982 eV
  | Total energy, T -> 0          :         -76.15905394 Ha       -2072.39329982 eV  <-- do not rely on this value for anything but (periodic) metals
  | Electronic free energy        :         -76.15905394 Ha       -2072.39329982 eV

  Derived energy quantities:
  | Kinetic energy                :          75.51953026 Ha        2054.99097528 eV
  | Electrostatic energy          :        -142.94823643 Ha       -3889.81942516 eV
  | Energy correction for multipole
  | error in Hartree potential    :           0.00506481 Ha           0.13782061 eV
  | Sum of eigenvalues per atom                           :        -307.84236907 eV
  | Total energy (T->0) per atom                          :        -518.09832496 eV  <-- do not rely on this value for anything but (periodic) metals
  | Electronic free energy per atom                       :        -518.09832496 eV

  Self-consistency convergence accuracy:
  | Change of charge density      :  0.9701E-05
  | Change of sum of eigenvalues  : -0.2507E-04 eV
  | Change of total energy        :  0.6424E-07 eV

  End self-consistency iteration #    10       :  max(cpu_time)    wall_clock(cpu1)
  | Time for this iteration                    :        0.066 s           0.067 s
  | Charge density update                      :        0.013 s           0.013 s
  | Density mixing                             :        0.001 s           0.001 s
  | Hartree multipole update                   :        0.002 s           0.002 s
  | Hartree multipole summation                :        0.017 s           0.017 s
  | Integration                                :        0.033 s           0.033 s
  | Solution of K.-S. eqns.                    :        0.000 s           0.000 s
  | Total energy evaluation                    :        0.000 s           0.000 s

  Partial memory accounting:
  | Current value for overall tracked memory usage on task 0  :           0.020 MB
  | Peak value for overall tracked memory usage on task 0     :           0.089 MB after allocating wave
  | Largest tracked array allocation on task 0 so far         :           0.021 MB  when allocating H_times_psi
  Note:  These values currently only include a subset of arrays which are explicitly tracked.
  The "true" memory usage will be greater.
------------------------------------------------------------

------------------------------------------------------------
          Begin self-consistency iteration #   11

  Date     :  20190508, Time     :  162414.972
------------------------------------------------------------
  Evaluating new KS density.
  Integration grid: deviation in total charge (<rho> - N_e) =   5.329071E-15
  Pulay mixing of updated and previous charge densities.

  Evaluating partitioned Hartree potential by multipole expansion.
  | Analytical far-field extrapolation by fixed multipoles:
  | Hartree multipole sum: apparent total charge =   0.999614E+00
  Summing up the Hartree potential.
  Time summed over all CPUs for potential: real work        0.017 s, elapsed        0.017 s
  | RMS charge density error from multipole expansion :   0.883867E-02

  Integrating Hamiltonian matrix: batch-based integration.
  Time summed over all CPUs for integration: real work        0.031 s, elapsed        0.031 s

  Updating Kohn-Sham eigenvalues, eigenvectors, occupation numbers, and Fermi level.
  Solving generalized eigenproblem
  Updating Kohn-Sham eigenvalues and eigenfunctions.
  Solving real generalised eigenvalue problem by standard LAPACK (fast)

  Obtaining occupation numbers and chemical potential using ELSI.
  | Chemical potential (Fermi level):   -12.58215157eV
  Highest occupied state (VBM) at    -17.45912240 eV
  | Occupation number:      2.00000000

  Lowest unoccupied state (CBM) at    -8.84267209 eV
  | Occupation number:      0.00000000

[...]
  Summing up the Hartree potential.
  Time summed over all CPUs for potential: real work        0.018 s, elapsed        0.018 s
  | RMS charge density error from multipole expansion :   0.103718E-01

  Integrating Hamiltonian matrix: batch-based integration.
  Time summed over all CPUs for integration: real work        0.030 s, elapsed        0.030 s

  Updating Kohn-Sham eigenvalues, eigenvectors, occupation numbers, and Fermi level.
  Solving generalized eigenproblem
  Updating Kohn-Sham eigenvalues and eigenfunctions.
  Solving real generalised eigenvalue problem by standard LAPACK (fast)

  Obtaining occupation numbers and chemical potential using ELSI.
  | Chemical potential (Fermi level):   -11.76360840eV
  Highest occupied state (VBM) at    -18.10802036 eV
  | Occupation number:      2.00000000

  Lowest unoccupied state (CBM) at    -8.11842388 eV
  | Occupation number:      0.00000000

  Overall HOMO-LUMO gap:      9.98959648 eV.

  Total energy components:
  | Sum of eigenvalues            :         -45.58613815 Ha       -1240.46193320 eV
  | XC energy correction          :          -8.81064152 Ha        -239.74975402 eV
  | XC potential correction       :          11.60491201 Ha         315.78572279 eV
  | Free-atom electrostatic energy:         -35.26805982 Ha        -959.69273631 eV
  | Hartree energy correction     :           1.88879162 Ha          51.39663506 eV
  | Entropy correction            :          -0.00000000 Ha          -0.00000000 eV
  | ---------------------------
  | Total energy                  :         -76.17113586 Ha       -2072.72206569 eV
  | Total energy, T -> 0          :         -76.17113586 Ha       -2072.72206569 eV  <-- do not rely on this value for anything but (periodic) metals
  | Electronic free energy        :         -76.17113586 Ha       -2072.72206569 eV

  Derived energy quantities:
  | Kinetic energy                :          75.82052452 Ha        2063.18144560 eV
  | Electrostatic energy          :        -143.18101886 Ha       -3896.15375727 eV
  | Energy correction for multipole
  | error in Hartree potential    :           0.00670746 Ha           0.18251931 eV
  | Sum of eigenvalues per atom                           :        -310.11548330 eV
  | Total energy (T->0) per atom                          :        -518.18051642 eV  <-- do not rely on this value for anything but (periodic) metals
  | Electronic free energy per atom                       :        -518.18051642 eV

  Self-consistency convergence accuracy:
  | Change of charge density      :  0.4112E-06
  | Change of sum of eigenvalues  : -0.3898E-04 eV
  | Change of total energy        :  0.5261E-08 eV

  Electronic self-consistency reached - switching on the force computation.

  End self-consistency iteration #     6       :  max(cpu_time)    wall_clock(cpu1)
  | Time for this iteration                    :        0.062 s           0.062 s
  | Charge density & force component update    :        0.012 s           0.012 s
  | Density mixing                             :        0.001 s           0.001 s
  | Hartree multipole update                   :        0.002 s           0.001 s
  | Hartree multipole summation                :        0.017 s           0.018 s
  | Integration                                :        0.030 s           0.030 s
  | Solution of K.-S. eqns.                    :        0.000 s           0.000 s
  | Total energy evaluation                    :        0.000 s           0.000 s

  Partial memory accounting:
  | Current value for overall tracked memory usage on task 0  :           0.023 MB
  | Peak value for overall tracked memory usage on task 0     :           0.124 MB after allocating h_times_wave
  | Largest tracked array allocation on task 0 so far         :           0.063 MB  when allocating gradient_basis_wave
  Note:  These values currently only include a subset of arrays which are explicitly tracked.
  The "true" memory usage will be greater.
------------------------------------------------------------

------------------------------------------------------------
          Begin self-consistency iteration #    7

  Date     :  20190508, Time     :  162418.058
------------------------------------------------------------
  Evaluating new KS density and force components.
  Integration grid: deviation in total charge (<rho> - N_e) =   3.197442E-14
  Pulay mixing of updated and previous charge densities.

  Evaluating partitioned Hartree potential by multipole expansion.
  | Analytical far-field extrapolation by fixed multipoles:
  | Hartree multipole sum: apparent total charge =   0.999557E+00
  Summing up the Hartree potential.
  Time summed over all CPUs for potential: real work        0.052 s, elapsed        0.052 s
  | RMS charge density error from multipole expansion :   0.103718E-01

  Integrating Hamiltonian matrix: batch-based integration.
  Time summed over all CPUs for integration: real work        0.028 s, elapsed        0.028 s

  Updating Kohn-Sham eigenvalues, eigenvectors, occupation numbers, and Fermi level.
  Solving generalized eigenproblem
  Updating Kohn-Sham eigenvalues and eigenfunctions.
  Solving real generalised eigenvalue problem by standard LAPACK (fast)

  Obtaining occupation numbers and chemical potential using ELSI.
  | Chemical potential (Fermi level):   -11.76360739eV
  Highest occupied state (VBM) at    -18.10801841 eV
  | Occupation number:      2.00000000

  Lowest unoccupied state (CBM) at    -8.11842322 eV
  | Occupation number:      0.00000000

  Overall HOMO-LUMO gap:      9.98959520 eV.

  Total energy components:
  | Sum of eigenvalues            :         -45.58613725 Ha       -1240.46190853 eV
  | XC energy correction          :          -8.81064164 Ha        -239.74975747 eV
  | XC potential correction       :          11.60491218 Ha         315.78572734 eV
  | Free-atom electrostatic energy:         -35.26805982 Ha        -959.69273631 eV
  | Hartree energy correction     :           1.88879067 Ha          51.39660928 eV
  | Entropy correction            :          -0.00000000 Ha          -0.00000000 eV
  | ---------------------------
  | Total energy                  :         -76.17113586 Ha       -2072.72206569 eV
  | Total energy, T -> 0          :         -76.17113586 Ha       -2072.72206569 eV  <-- do not rely on this value for anything but (periodic) metals
  | Electronic free energy        :         -76.17113586 Ha       -2072.72206569 eV

  Derived energy quantities:
  | Kinetic energy                :          75.82052545 Ha        2063.18147089 eV
  | Electrostatic energy          :        -143.18101966 Ha       -3896.15377912 eV
  | Energy correction for multipole
  | error in Hartree potential    :           0.00670747 Ha           0.18251948 eV
  | Sum of eigenvalues per atom                           :        -310.11547713 eV
  | Total energy (T->0) per atom                          :        -518.18051642 eV  <-- do not rely on this value for anything but (periodic) metals
  | Electronic free energy per atom                       :        -518.18051642 eV

  atomic forces [eV/Ang]:
  -----------------------
  atom #    1
   Hellmann-Feynman              :  0.154446E-11  0.194948E-02  0.766656E-09
   Ionic forces                  :  0.000000E+00  0.000000E+00  0.000000E+00
   Multipole                     :  0.112115E-12 -0.371624E-03  0.117511E-10
   Pulay                         : -0.967602E-12 -0.855976E-03 -0.707963E-09
   ----------------------------------------------------------------
   Total forces(   1)            :  0.688971E-12  0.721876E-03  0.704441E-10
  atom #    2
   Hellmann-Feynman              :  0.260035E+00 -0.150751E+00 -0.337981E-10
   Ionic forces                  :  0.000000E+00  0.000000E+00  0.000000E+00
   Multipole                     :  0.778469E-01 -0.449359E-01 -0.522478E-11
   Pulay                         : -0.338716E+00  0.195507E+00  0.152508E-10
   ----------------------------------------------------------------
   Total forces(   2)            : -0.833838E-03 -0.180395E-03 -0.237721E-10
  atom #    3
   Hellmann-Feynman              : -0.260035E+00 -0.150751E+00 -0.337921E-10
   Ionic forces                  :  0.000000E+00  0.000000E+00  0.000000E+00
   Multipole                     : -0.778469E-01 -0.449359E-01 -0.522589E-11
   Pulay                         :  0.338716E+00  0.195507E+00  0.152727E-10
   ----------------------------------------------------------------
   Total forces(   3)            :  0.833838E-03 -0.180395E-03 -0.237453E-10
  atom #    4
   Hellmann-Feynman              : -0.634655E-13  0.300619E+00 -0.337758E-10
   Ionic forces                  :  0.000000E+00  0.000000E+00  0.000000E+00
   Multipole                     : -0.167243E-14  0.898763E-01 -0.521665E-11
   Pulay                         :  0.111227E-12 -0.391098E+00  0.152573E-10
   ----------------------------------------------------------------
   Total forces(   4)            :  0.460886E-13 -0.602644E-03 -0.237351E-10


  Self-consistency convergence accuracy:
  | Change of charge density      :  0.1911E-06
  | Change of sum of eigenvalues  :  0.2467E-04 eV
  | Change of total energy        : -0.3036E-08 eV
  | Change of forces              :  0.3382E+00 eV/A

  Writing Kohn-Sham eigenvalues.

  State    Occupation    Eigenvalue [Ha]    Eigenvalue [eV]
      1       2.00000         -19.013719         -517.38962
      2       2.00000          -1.337113          -36.38470
      3       2.00000          -0.888401          -24.17463
      4       2.00000          -0.888378          -24.17398
      5       2.00000          -0.665457          -18.10802
      6       0.00000          -0.298347           -8.11842
      7       0.00000          -0.197293           -5.36861
      8       0.00000          -0.197282           -5.36833
      9       0.00000           0.025511            0.69418
     10       0.00000           0.048575            1.32178
     11       0.00000           0.048600            1.32246
     12       0.00000           0.207464            5.64538
     13       0.00000           0.481535           13.10325

  Highest occupied state (VBM) at    -18.10801841 eV
  | Occupation number:      2.00000000

  Lowest unoccupied state (CBM) at    -8.11842322 eV
  | Occupation number:      0.00000000

  Overall HOMO-LUMO gap:      9.98959520 eV.

  Self-consistency cycle converged.

  End self-consistency iteration #     7       :  max(cpu_time)    wall_clock(cpu1)
  | Time for this iteration                    :        0.126 s           0.126 s
  | Charge density & force component update    :        0.042 s           0.042 s
  | Density mixing                             :        0.001 s           0.001 s
  | Hartree multipole update                   :        0.002 s           0.001 s
  | Hartree multipole summation                :        0.052 s           0.053 s
  | Integration                                :        0.028 s           0.028 s
  | Solution of K.-S. eqns.                    :        0.000 s           0.000 s
  | Total energy evaluation                    :        0.000 s           0.000 s

  Partial memory accounting:
  | Current value for overall tracked memory usage on task 0  :           0.023 MB
  | Peak value for overall tracked memory usage on task 0     :           0.124 MB after allocating h_times_wave
  | Largest tracked array allocation on task 0 so far         :           0.063 MB  when allocating gradient_basis_wave
  Note:  These values currently only include a subset of arrays which are explicitly tracked.
  The "true" memory usage will be greater.
------------------------------------------------------------
  Removing unitary transformations (pure translations, rotations) from forces on atoms.
  Atomic forces before filtering:
  | Net force on center of mass :   0.422147E-12 -0.241558E-03 -0.808378E-12 eV/A
  | Net torque on center of mass:   0.481560E-14  0.229211E-13 -0.313043E-13 eV
  Atomic forces after filtering:
  | Net force on center of mass :   0.790603E-19  0.871124E-19  0.000000E+00 eV/A
  | Net torque on center of mass:   0.460647E-26 -0.774878E-26  0.109839E-18 eV

  Energy and forces in a compact form:
  | Total energy uncorrected      :         -0.207272206569436E+04 eV
  | Total energy corrected        :         -0.207272206569436E+04 eV  <-- do not rely on this value for anything but (periodic) metals
  | Electronic free energy        :         -0.207272206569436E+04 eV
  Total atomic forces (unitary forces cleaned) [eV/Ang]:
  |   1          0.583434913123091E-12          0.782265223584922E-03          0.706461592609311E-10
  |   2         -0.833838167770578E-03         -0.120005237418546E-03         -0.235549544991270E-10
  |   3          0.833838167257162E-03         -0.120005237634079E-03         -0.235549544991409E-10
  |   4         -0.700189236925036E-13         -0.542254748532296E-03         -0.235362502626633E-10

  ------------------------------------ 
  Start decomposition of the XC Energy 
  ------------------------------------ 
  X and C from original XC functional choice 
  Hartree-Fock Energy :          0.000000000 Ha              0.000000000 eV
  X Energy            :         -8.146714112 Ha           -221.683370109 eV
  C Energy            :         -0.663927532 Ha            -18.066387361 eV
  Total XC Energy     :         -8.810641644 Ha           -239.749757469 eV
  ------------------------------------ 
  LDA X and C from self-consistent density 
  X Energy LDA        :         -8.146714112 Ha           -221.683370109 eV
  C Energy LDA        :         -0.663927532 Ha            -18.066387361 eV
  ------------------------------------ 
  End decomposition of the XC Energy 
  ------------------------------------ 

------------------------------------------------------------
  Relaxation / MD: End force evaluation.       :  max(cpu_time)    wall_clock(cpu1)
  | Time for this force evaluation             :        0.560 s           0.561 s

------------------------------------------------------------
  Geometry optimization: Attempting to predict improved coordinates.

  Removing unitary transformations (pure translations, rotations) from forces on atoms.
  Atomic forces before filtering:
  | Net force on center of mass :   0.790603E-19  0.871124E-19  0.000000E+00 eV/A
  | Net torque on center of mass:   0.460647E-26 -0.774878E-26  0.109839E-18 eV
  Atomic forces after filtering:
  | Net force on center of mass :   0.609400E-19  0.000000E+00  0.519230E-26 eV/A
  | Net torque on center of mass:  -0.638412E-26  0.494255E-27  0.127726E-18 eV
  Net remaining forces (excluding translations, rotations) in present geometry:
  Maximum force component is  0.833838E-03 eV/A.
  Present geometry is converged.

------------------------------------------------------------
  Final atomic structure:
                         x [A]             y [A]             z [A]
            atom        -0.00000000       -0.00002910        0.00000000  O
            atom         0.85488761       -0.49352200       -0.00000000  H
            atom        -0.85488761       -0.49352200       -0.00000000  H
            atom        -0.00000000        0.98707310       -0.00000000  H
------------------------------------------------------------

------------------------------------------------------------------------------
  Final output of selected total energy values:

  The following output summarizes some interesting total energy values
  at the end of a run (AFTER all relaxation, molecular dynamics, etc.).

  | Total energy of the DFT / Hartree-Fock s.c.f. calculation      :          -2072.722065694 eV
  | Final zero-broadening corrected energy (caution - metals only) :          -2072.722065694 eV
  | For reference only, the value of 1 Hartree used in FHI-aims is :             27.211384500 eV

  Before relying on these values, please be sure to understand exactly which
  total energy value is referred to by a given number. Different objects may
  all carry the same name 'total energy'. Definitions:

  Total energy of the DFT / Hartree-Fock s.c.f. calculation:
  | Note that this energy does not include ANY quantities calculated after the
  | s.c.f. cycle, in particular not ANY RPA, MP2, etc. many-body perturbation terms.

  Final zero-broadening corrected energy:
  | For metallic systems only, a broadening of the occupation numbers at the Fermi
  | level can be extrapolated back to zero broadening by an electron-gas inspired
  | formula. For all systems that are not real metals, this value can be
  | meaningless and should be avoided.

------------------------------------------------------------------------------
  Methods described in the following list of references were used in this FHI-aims run.
  If you publish the results, please make sure to cite these reference if they apply.
  FHI-aims is an academic code, and for our developers (often, Ph.D. students
  and postdocs), scientific credit in the community is essential.
  Thank you for helping us!

  For any use of FHI-aims, please cite:

    Volker Blum, Ralf Gehrke, Felix Hanke, Paula Havu, Ville Havu,
    Xinguo Ren, Karsten Reuter, and Matthias Scheffler
    'Ab initio molecular simulations with numeric atom-centered orbitals'
    Computer Physics Communications 180, 2175-2196 (2009)
    http://dx.doi.org/10.1016/j.cpc.2009.06.022


  For the real-space grid partitioning and parallelization used in this calculation, please cite:

    Ville Havu, Volker Blum, Paula Havu, and Matthias Scheffler,
    'Efficient O(N) integration for all-electron electronic structure calculation'
    'using numerically tabulated basis functions'
    Journal of Computational Physics 228, 8367-8379 (2009).
    http://dx.doi.org/10.1016/j.jcp.2009.08.008

  Of course, there are many other important community references, e.g., those cited in the
  above references. Our list is limited to references that describe implementations in the
  FHI-aims code. The reason is purely practical (length of this list) - please credit others as well.

------------------------------------------------------------
          Leaving FHI-aims.
          Date     :  20190508, Time     :  162418.198

          Computational steps:
          | Number of self-consistency cycles          :           49
          | Number of SCF (re)initializations          :            5
          | Number of relaxation steps                 :            4

          Detailed time accounting                     :  max(cpu_time)    wall_clock(cpu1)
          | Total time                                 :        4.008 s           4.008 s
          | Preparation time                           :        0.047 s           0.047 s
          | Boundary condition initalization           :        0.000 s           0.001 s
          | Grid partitioning                          :        0.076 s           0.075 s
          | Preloading free-atom quantities on grid    :        0.056 s           0.054 s
          | Free-atom superposition energy             :        0.062 s           0.064 s
          | Total time for integrations                :        1.672 s           1.669 s
          | Total time for solution of K.-S. equations :        0.012 s           0.014 s
          | Total time for EV reorthonormalization     :        0.000 s           0.000 s
          | Total time for density & force components  :        0.772 s           0.774 s
          | Total time for mixing                      :        0.034 s           0.034 s
          | Total time for Hartree multipole update    :        0.085 s           0.082 s
          | Total time for Hartree multipole sum       :        1.082 s           1.085 s
          | Total time for total energy evaluation     :        0.006 s           0.004 s

 This is a stub MPI_ALLREDUCE call.
 You should not be here. Check your
 setting on the use_mpi variable, or
 link against true MPI-libraries.
