------------------------------------------------------------
          Invoking FHI-aims ...
          Version 171221_1
          Compiled on 2019/05/06 at 14:26:40 on host ffph0xx.

          When using FHI-aims, please cite the following reference:

          Volker Blum, Ralf Gehrke, Felix Hanke, Paula Havu,
          Ville Havu, Xinguo Ren, Karsten Reuter, and Matthias Scheffler,
          'Ab Initio Molecular Simulations with Numeric Atom-Centered Orbitals',
          Computer Physics Communications 180, 2175-2196 (2009)

          For any questions about FHI-aims, please visit the aimsclub website
          with its forums and wiki. Contributions to both the forums and the
          wiki are warmly encouraged - they are for you, and everyone is welcome there.

------------------------------------------------------------



  Date     :  20190509, Time     :  114709.903
  Time zero on CPU 1             :   0.634000000000000E-03  s.
  Internal wall clock time zero  :           326634429.903  s.

  FHI-aims created a unique identifier for this run for later identification
  aims_uuid : DCA6A489-F88E-434E-A64B-C431FFFDC6AA


  Performing system and environment tests:
  *** Environment variable OMP_NUM_THREADS is not set
  *** For performance reasons you might want to set it to 1
  | Stacksize not measured: no C compiler

  Obtaining array dimensions for all initial allocations:
  
  -----------------------------------------------------------------------
  Parsing control.in (first pass over file, find array dimensions only).
  The contents of control.in will be repeated verbatim below
  unless switched off by setting 'verbatim_writeout .false.' .
  in the first line of control.in .
  -----------------------------------------------------------------------
  
  # Sample input file for the relaxation
  # of the H3O+ molecule
  #######################################
    xc  pw-lda
    charge 1.0
    spin none
  
  #######Iteration limit####################
    sc_iter_limit 100
  
  #######Relaxation######################
    ###########relax_geometry trm 1E-3
  
  #######Species#########################
  ################################################################################
  #
  #  FHI-aims code project
  #  VB, Fritz-Haber Institut, 2009
  #
  #  Suggested "light" defaults for H atom (to be pasted into control.in file)
  #  Be sure to double-check any results obtained with these settings for post-processing,
  #  e.g., with the "tight" defaults and larger basis sets.
  #
  ################################################################################
    species        H
  #     global species definitions
      nucleus             1
      mass                1.00794
  #
      l_hartree           4
  #
      cut_pot             3.5  1.5  1.0
      basis_dep_cutoff    1e-4
  #
      radial_base         24 5.0
      radial_multiplier   1
      angular_grids       specified
        division   0.2421   50
        division   0.3822  110
        division   0.4799  194
        division   0.5341  302
  #      division   0.5626  434
  #      division   0.5922  590
  #      division   0.6542  770
  #      division   0.6868 1202
  #      outer_grid  770
        outer_grid  302
  ################################################################################
  #
  #  Definition of "minimal" basis
  #
  ################################################################################
  #     valence basis states
      valence      1  s   1.
  #     ion occupancy
      ion_occ      1  s   0.5
  ################################################################################
  #
  #  Suggested additional basis functions. For production calculations,
  #  uncomment them one after another (the most important basis functions are
  #  listed first).
  #
  #  Basis constructed for dimers: 0.5 A, 0.7 A, 1.0 A, 1.5 A, 2.5 A
  #
  ################################################################################
  #  "First tier" - improvements: -1014.90 meV to -62.69 meV
       hydro 2 s 2.1
       hydro 2 p 3.5
  #  "Second tier" - improvements: -12.89 meV to -1.83 meV
  #     hydro 1 s 0.85
  #     hydro 2 p 3.7
  #     hydro 2 s 1.2
  #     hydro 3 d 7
  #  "Third tier" - improvements: -0.25 meV to -0.12 meV
  #     hydro 4 f 11.2
  #     hydro 3 p 4.8
  #     hydro 4 d 9
  #     hydro 3 s 3.2
  ################################################################################
  #
  #  FHI-aims code project
  #  VB, Fritz-Haber Institut, 2009
  #
  #  Suggested "light" defaults for O atom (to be pasted into control.in file)
  #  Be sure to double-check any results obtained with these settings for post-processing,
  #  e.g., with the "tight" defaults and larger basis sets.
  #
  ################################################################################
    species        O
  #     global species definitions
      nucleus             8
      mass                15.9994
  #
      l_hartree           4
  #
      cut_pot             3.5  1.5  1.0
      basis_dep_cutoff    1e-4
  #
      radial_base         36 5.0
      radial_multiplier   1
       angular_grids specified
        division   0.2659   50
        division   0.4451  110
        division   0.6052  194
        division   0.7543  302
  #      division   0.8014  434
  #      division   0.8507  590
  #      division   0.8762  770
  #      division   0.9023  974
  #      division   1.2339 1202
  #      outer_grid 974
        outer_grid 302
  ################################################################################
  #
  #  Definition of "minimal" basis
  #
  ################################################################################
  #     valence basis states
      valence      2  s   2.
      valence      2  p   4.
  #     ion occupancy
      ion_occ      2  s   1.
      ion_occ      2  p   3.
  ################################################################################
  #
  #  Suggested additional basis functions. For production calculations,
  #  uncomment them one after another (the most important basis functions are
  #  listed first).
  #
  #  Constructed for dimers: 1.0 A, 1.208 A, 1.5 A, 2.0 A, 3.0 A
  #
  ################################################################################
  #  "First tier" - improvements: -699.05 meV to -159.38 meV
       hydro 2 p 1.8
       hydro 3 d 7.6
       hydro 3 s 6.4
  #  "Second tier" - improvements: -49.91 meV to -5.39 meV
  #     hydro 4 f 11.6
  #     hydro 3 p 6.2
  #     hydro 3 d 5.6
  #     hydro 5 g 17.6
  #     hydro 1 s 0.75
  #  "Third tier" - improvements: -2.83 meV to -0.50 meV
  #     ionic 2 p auto
  #     hydro 4 f 10.8
  #     hydro 4 d 4.7
  #     hydro 2 s 6.8
  #  "Fourth tier" - improvements: -0.40 meV to -0.12 meV
  #     hydro 3 p 5
  #     hydro 3 s 3.3
  #     hydro 5 g 15.6
  #     hydro 4 f 17.6
  #     hydro 4 d 14
  # Further basis functions - -0.08 meV and below
  #     hydro 3 s 2.1
  #     hydro 4 d 11.6
  #     hydro 3 p 16
  #     hydro 2 s 17.2
  /afs/ictp.it/public/shared/smr2475/fhi-aims/species_defaults/light/01_H_default
  compute_forces .true.
  final_forces_cleaned .true.
  output dipole
  
  -----------------------------------------------------------------------
  Completed first pass over input file control.in .
  -----------------------------------------------------------------------
  
  
  -----------------------------------------------------------------------
  Parsing geometry.in (first pass over file, find array dimensions only).
  The contents of geometry.in will be repeated verbatim below
  unless switched off by setting 'verbatim_writeout .false.' .
  in the first line of geometry.in .
  -----------------------------------------------------------------------
  
  #
  # temporary structure-file for finite-difference calculation of forces
  # displacement  -0.0020 of \# atom     1 direction     2
  #
  atom    0.00000000    0.00001836    0.19077151   O
  atom    0.82425584   -0.47587261    0.47223563   H
  atom   -0.82425584   -0.47587261    0.47423563   H
  atom   -0.00000000    0.95172688    0.47446636   H
  
  -----------------------------------------------------------------------
  Completed first pass over input file geometry.in .
  -----------------------------------------------------------------------
  

  Basic array size parameters:
  | Number of species                 :        2
  | Number of atoms                   :        4
  | Max. basis fn. angular momentum   :        2
  | Max. atomic/ionic basis occupied n:        2
  | Max. number of basis fn. types    :        2
  | Max. radial fns per species/type  :        3
  | Max. logarithmic grid size        :     1301
  | Max. radial integration grid size :       36
  | Max. angular integration grid size:      302
  | Max. angular grid division number :        8
  | Radial grid for Hartree potential :     1301
  | Number of spin channels           :        1

------------------------------------------------------------
          Reading file control.in.
------------------------------------------------------------
  XC: Using Perdew-Wang parametrisation of Ceperley-Alder LDA.
  Charged system requested: Charge =   0.100000E+01.
  Spin treatment: No spin polarisation.
  Maximum number of s.-c. iterations  :   100

  Reading configuration options for species H                   .
  | Found nuclear charge :   1.0000
  | Found atomic mass :    1.0079400000000001      amu
  | Found l_max for Hartree potential  :   4
  | Found cutoff potl. onset [A], width [A], scale factor :    3.50000    1.50000    1.00000
  | Threshold for basis-dependent cutoff potential is   0.100000E-03
  | Found data for basic radial integration grid :    24 points, outermost radius =    5.000 A
  | Found multiplier for basic radial grid :   1
  | Found angular grid specification: user-specified.
  | Specified grid contains     5 separate shells.
  | Check grid settings after all constraints further below.
  | Found free-atom valence shell :  1 s   1.000
  | No ionic wave fns used. Skipping ion_occ.
  | Found hydrogenic basis function :  2 s   2.100
  | Found hydrogenic basis function :  2 p   3.500
  Species H                   : Missing cutoff potential type.
  Defaulting to exp(1/x)/(1-x)^2 type cutoff potential.
  Species H : No 'logarithmic' tag. Using default grid for free atom:
  | Default logarithmic grid data [bohr] : 0.1000E-03 0.1000E+03 0.1012E+01
  Species H : On-site basis accuracy parameter (for Gram-Schmidt orthonormalisation) not specified.
  Using default value basis_acc =  0.1000000E-03.
  Species H                   : Using default innermost maximum threshold i_radial=  2 for radial functions.
  Species H                   : Default cutoff onset for free atom density etc. : 0.35000000E+01 AA.
  Species H                   : Basic radial grid will be enhanced according to radial_multiplier =   1, to contain    24 grid points.

  Reading configuration options for species O                   .
  | Found nuclear charge :   8.0000
  | Found atomic mass :    15.999400000000000      amu
  | Found l_max for Hartree potential  :   4
  | Found cutoff potl. onset [A], width [A], scale factor :    3.50000    1.50000    1.00000
  | Threshold for basis-dependent cutoff potential is   0.100000E-03
  | Found data for basic radial integration grid :    36 points, outermost radius =    5.000 A
  | Found multiplier for basic radial grid :   1
  | Found angular grid specification: user-specified.
  | Specified grid contains     5 separate shells.
  | Check grid settings after all constraints further below.
  | Found free-atom valence shell :  2 s   2.000
  | Found free-atom valence shell :  2 p   4.000
  | No ionic wave fns used. Skipping ion_occ.
  | No ionic wave fns used. Skipping ion_occ.
  | Found hydrogenic basis function :  2 p   1.800
  | Found hydrogenic basis function :  3 d   7.600
  | Found hydrogenic basis function :  3 s   6.400
  Species O                   : Missing cutoff potential type.
  Defaulting to exp(1/x)/(1-x)^2 type cutoff potential.
  Species O : No 'logarithmic' tag. Using default grid for free atom:
  | Default logarithmic grid data [bohr] : 0.1000E-03 0.1000E+03 0.1012E+01
  Species O : On-site basis accuracy parameter (for Gram-Schmidt orthonormalisation) not specified.
  Using default value basis_acc =  0.1000000E-03.
  Species O                   : Using default innermost maximum threshold i_radial=  2 for radial functions.
  Species O                   : Default cutoff onset for free atom density etc. : 0.35000000E+01 AA.
  Species O                   : Basic radial grid will be enhanced according to radial_multiplier =   1, to contain    36 grid points.
  Forces will be computed.
  Cleaning forces before final output.
  Dipole moment will be written out.

  Finished reading input file 'control.in'. Consistency checks are next.

  MPI_IN_PLACE appears to work with this MPI implementation.
  | Keeping use_mpi_in_place .true. (see manual).
  Target number of points in a grid batch is not set. Defaulting to  100
  Method for grid partitioning is not set. Defaulting to 'maxmin' partitioning.
  Batch size limit is not set. Defaulting to    200
  By default, will store active basis functions for each batch.
  If in need of memory, prune_basis_once .false. can be used to disable this option.
  communication_type for Hartree potential was not specified.
  Defaulting to calc_hartree .
 * Attention: 
 * You may want to set distributed_spline_storage to .true. in order to save memory.
 * This doesn't harm performance and is perfectly ok unless:
 * - you get error messages in postprocessing (about missing atoms in get_rho_multipole_spl)
 * - you need full spline storage in hirshfeld_analysis
  Defaulting to Pulay charge density mixer.
  Pulay mixer: Number of relevant iterations not set.
  Defaulting to    8 iterations.
  Pulay mixer: Number of initial linear mixing iterations not set.
  Defaulting to    0 iterations.
  Work space size for distributed Hartree potential not set.
  Defaulting to   0.200000E+03 MB.
  Mixing parameter for charge density mixing has not been set.
  Using default: charge_mix_param =     0.0500.
  The mixing parameter will be adjusted in iteration number     2 of the first full s.c.f. cycle only.
  Algorithm-dependent basis array size parameters:
  | n_max_pulay                         :        8
 * Notice: The s.c.f. convergence criterion sc_accuracy_rho was not provided.
 * We used to stop in this case, and ask the user to provide reasonable
 * scf convergence criteria. However, this led some users to employ criteria
 * that led to extremely long run times, e.g., for simple relaxation.
 * We now preset a default value for sc_accuracy_rho if it is not set.
 * You may still wish to check if this setting is too tight or too loose for your needs.
 * Based on n_atoms, FHI-aims chose sc_accuracy_rho =  0.100000E-05 .
  Presetting      1001 iterations before the initial mixing cycle
  is restarted anyway using the sc_init_iter criterion / keyword.
  Presetting a factor      1.000 between actual scf density residual
  and density convergence criterion sc_accuracy_rho below which sc_init_iter
  takes no effect.
 * No s.c.f. convergence criteria (sc_accuracy_*) were provided in control.in.
 * The run will proceed with a reasonable default guess, but please check whether.
 * the s.c.f. cycles seem to take too much or too little time.
  Geometry relaxation not requested: no relaxation will be performed.
  Force calculation: scf convergence accuracy of forces not set.
  Defaulting to 'sc_accuracy_forces not_checked'.
  Handling of forces: Unphysical translation and rotation will be removed from forces.
  No accuracy limit for integral partition fn. given. Defaulting to  0.1000E-14.
  No threshold value for u(r) in integrations given. Defaulting to  0.1000E-05.
  No occupation type (smearing scheme) given. Defaulting to Gaussian broadening, width =  0.1000E-01 eV.
  The width will be adjusted in iteration number     2 of the first full s.c.f. cycle only.
  S.C.F. convergence parameters will be adjusted in iteration number     2 of the first full s.c.f. cycle only.
  No accuracy for occupation numbers given. Defaulting to  0.1000E-12.
  No threshold value for occupation numbers given. Defaulting to  0.0000E+00.
  No accuracy for fermi level given. Defaulting to  0.1000E-19.
  Maximum # of iterations to find E_F not set. Defaulting to  200.
  Preferred method for the eigenvalue solver ('KS_method') not specified in 'control.in'.
  Defaulting to serial version, 'lapack_fast'.
  Will not use alltoall communication since running on < 1024 CPUs.
  Threshold for basis singularities not set.
  Default threshold for basis singularities:  0.1000E-04
  partition_type (choice of integration weights) for integrals was not specified.
  | Using a version of the partition function of Stratmann and coworkers ('stratmann_smoother').
  | At each grid point, the set of atoms used to build the partition table is smoothly restricted to
  | only those atoms whose free-atom density would be non-zero at that grid point.
  Partitioning for Hartree potential was not defined. Using partition_type for integrals.
  | Adjusted default value of keyword multip_moments_threshold to:       0.10000000E-11
  | This value may affect high angular momentum components of the Hartree potential in periodic systems.
  No q(lm)/r^(l+1) cutoff set for long-range Hartree potential.
  | Using default value of  0.100000E-09 .
  | Verify using the multipole_threshold keyword.
  Defaulting to new monopole extrapolation.
  Density update method: automatic selection selected.
------------------------------------------------------------


------------------------------------------------------------
          Reading geometry description geometry.in.
------------------------------------------------------------
 * Warning: Initial charge and total charge of the system are inconsistent.
 * Selected charge in control.in:     1.0000* Sum of initial charges in geometry.in:     0.0000
 * Warning! You did not set the 'relativistic' flag in input file 'control.in'.
 * Since you are not attempting to treat any elements beyond Ca(Z=20), FHI-aims
 * will default to 'relativistic none'.
 * You must ensure that this is really what you want!!
 * For example, DO NOT compute total-energy differences between results from
 * different settings of the 'relativistic' flag.
  Input structure read successfully.
  The structure contains        4 atoms,  and a total of         10.000 electrons.

  Input geometry:
  | No unit cell requested.
  | Atomic structure:
  |       Atom                x [A]            y [A]            z [A]
  |    1: Species O             0.00000000        0.00001836        0.19077151
  |    2: Species H             0.82425584       -0.47587261        0.47223563
  |    3: Species H            -0.82425584       -0.47587261        0.47423563
  |    4: Species H            -0.00000000        0.95172688        0.47446636
  |

  | The smallest distance between any two atoms is         0.99251799 AA.
  |
  | The first atom of this pair is atom number                      1 .
  | The second atom of this pair is atom number                     2 .

  Number of empty states per atom not set in control.in - providing a guess from actual geometry.
  | Total number of empty states used during s.c.f. cycle:        8
  If you use a very high smearing, use empty_states (per atom!) in control.in to increase this value.

  Structure-dependent array size parameters: 
  | Maximum number of distinct radial functions  :        9
  | Maximum number of basis functions            :       29
  | Number of Kohn-Sham states (occupied + empty):       13
------------------------------------------------------------

------------------------------------------------------------
          Preparing all fixed parts of the calculation.
------------------------------------------------------------
  Determining machine precision:
     2.2250738585072014E-308
  Setting up grids for atomic and cluster calculations.

  Creating wave function, potential, and density for free atoms.

  Species: H

  List of occupied orbitals and eigenvalues:
    n    l              occ      energy [Ha]    energy [eV]
    1    0           1.0000        -0.232375        -6.3233


  Species: O

  List of occupied orbitals and eigenvalues:
    n    l              occ      energy [Ha]    energy [eV]
    1    0           2.0000       -18.757744      -510.4242
    2    0           2.0000        -0.870917       -23.6989
    2    1           4.0000        -0.337950        -9.1961

  Creating fixed part of basis set: Ionic, confined, hydrogenic.

  H                    hydrogenic:

  List of hydrogenic basis orbitals: 
    n    l      effective z      eigenvalue [eV]  inner max. [A]     outer max. [A]     outer radius [A]   
    2    0         2.100000       -14.9728           0.193243           1.317208           4.583499
    2    1         3.500000       -41.6669           0.602369           0.602369           3.723403


  O                    hydrogenic:

  List of hydrogenic basis orbitals: 
    n    l      effective z      eigenvalue [eV]  inner max. [A]     outer max. [A]     outer radius [A]   
    2    1         1.800000       -10.9749           1.164242           1.164242           4.578029
    3    2         7.600000       -87.3180           0.624125           0.624125           3.251020
    3    0         6.400000       -61.9207           0.061167           1.081902           4.001998


  Adding cutoff potential to free-atom effective potential.
  Creating atomic-like basis functions for current effective potential.

  Species H                   :

  List of atomic basis orbitals and eigenvalues:
    n    l      energy [Ha]    energy [eV]    outer radius [A]
    1    0        -0.232375        -6.3233       4.527807


  Species O                   :

  List of atomic basis orbitals and eigenvalues:
    n    l      energy [Ha]    energy [eV]    outer radius [A]
    1    0       -18.757744      -510.4242       1.433179
    2    0        -0.870917       -23.6989       4.413171
    2    1        -0.337950        -9.1961       4.522403

  Assembling full basis from fixed parts.
  | Species H :   atomic orbital   1 s accepted.
  | Species H :    hydro orbital   2 s accepted.
  | Species H :    hydro orbital   2 p accepted.
  | Species O :   atomic orbital   1 s accepted.
  | Species O :    hydro orbital   3 s accepted.
  | Species O :   atomic orbital   2 s accepted.
  | Species O :   atomic orbital   2 p accepted.
  | Species O :    hydro orbital   2 p accepted.
  | Species O :    hydro orbital   3 d accepted.

  Basis size parameters after reduction:
  | Total number of radial functions:        9
  | Total number of basis functions :       29

  Per-task memory consumption for arrays in subroutine allocate_ext:
  |           2.249476MB.
  Testing on-site integration grid accuracy.
  |  Species  Function  <phi|h_atom|phi> (log., in eV)  <phi|h_atom|phi> (rad., in eV)
           1        1                 -6.3245358373                 -6.3232436907
           1        2                 14.1326137532                 14.1384481100
           1        3                 25.3627025200                 25.3628451197
           2        4               -510.4241781769               -510.4240769412
           2        5                 14.9072942218                 14.9072945276
           2        6                -21.2004736467                -21.2005650544
           2        7                 -9.1962086499                 -9.1963509828
           2        8                  8.1896755011                  8.1702200086
           2        9                 45.7920584945                 45.7920228528

  Preparing densities etc. for the partition functions (integrals / Hartree potential).

  Preparations completed.
  max(cpu_time)          :      0.049 s.
  Wall clock time (cpu1) :      0.049 s.
------------------------------------------------------------

------------------------------------------------------------
          Begin self-consistency loop: Initialization.

          Date     :  20190509, Time     :  114709.953
------------------------------------------------------------

  Initializing index lists of integration centers etc. from given atomic structure:
  | Number of centers in hartree potential         :         4
  | Number of centers in hartree multipole         :         4
  | Number of centers in electron density summation:         4
  | Number of centers in basis integrals           :         4
  | Number of centers in integrals                 :         4
  | Number of centers in hamiltonian               :         4
  Partitioning the integration grid into batches with maxmin method.
  | Maximal weight for a single point:     1.000
  | Minimal weight for a single point:     0.000
  | Number of batches:      256
  | Maximal batch size:      83
  | Minimal batch size:      78
  | Average batch size:      80.719
  | Standard deviation of batch sizes:       1.484
  Initializing partition tables, free-atom densities, potentials, etc. across the integration grid (initialize_grid_storage).
  | initialize_grid_storage: Actual outermost partition radius vs. multipole_radius_free
  | (-- VB: in principle, multipole_radius_free should be larger, hence this output)
  | Species        1: Confinement radius =              4.999999999999999 AA, multipole_radius_free =              5.054417573612229 AA.
  | Species        1: outer_partition_radius set to              5.054417573612229 AA .
  | Species        2: Confinement radius =              4.999999999999999 AA, multipole_radius_free =              5.048384829883283 AA.
  | Species        2: outer_partition_radius set to              5.048384829883283 AA .
  | Original list of interatomic distances with           4 x          4 entries is created.
  | Net number of integration points:    20664
  | of which are non-zero points    :    18385
  Renormalizing the initial density to the exact electron count on the 3D integration grid.
  | Initial density: Formal number of electrons (from input files) :      11.0000000000
  | Integrated number of electrons on 3D grid     :      10.9999413156
  | Charge integration error                      :      -0.0000586844
  | Normalization factor for density and gradient :       1.0000053350
  Obtaining max. number of non-zero basis functions in each batch (get_n_compute_maxes).
  | Maximal number of non-zero basis functions:       29 in task     0
  Selecting the method for density update.
  Loop over occupied states selected for charge density update.
  Allocating        0.003 MB for KS_eigenvector
  Integrating Hamiltonian matrix: batch-based integration.
  Time summed over all CPUs for integration: real work        0.029 s, elapsed        0.029 s
  Integrating overlap matrix.
  Time summed over all CPUs for integration: real work        0.013 s, elapsed        0.013 s

  Updating Kohn-Sham eigenvalues, eigenvectors, occupation numbers, and Fermi level.
  Solving generalized eigenproblem
  Updating Kohn-Sham eigenvalues and eigenfunctions.
  Transforming overlap matrix and checking for singularities.
  Overlap matrix is nonsingular:
  | Lowest eigenvalue:  0.148006E-01
  Solving real generalised eigenvalue problem by standard LAPACK (fast)

  Obtaining occupation numbers and chemical potential using ELSI.
  | Chemical potential (Fermi level):    -6.76574383eV
  Writing Kohn-Sham eigenvalues.

  State    Occupation    Eigenvalue [Ha]    Eigenvalue [eV]
      1       2.00000         -18.911652         -514.61223
      2       2.00000          -1.151056          -31.32182
      3       2.00000          -0.671289          -18.26670
      4       2.00000          -0.671018          -18.25932
      5       2.00000          -0.507513          -13.81012
      6       0.00000          -0.090424           -2.46057
      7       0.00000           0.002413            0.06566
      8       0.00000           0.002591            0.07052
      9       0.00000           0.199745            5.43533
     10       0.00000           0.264709            7.20310
     11       0.00000           0.264732            7.20374
     12       0.00000           0.466788           12.70194
     13       0.00000           0.669217           18.21031

  Highest occupied state (VBM) at    -13.81011840 eV
  | Occupation number:      2.00000000

  Lowest unoccupied state (CBM) at    -2.46057146 eV
  | Occupation number:      0.00000000

  Overall HOMO-LUMO gap:     11.34954695 eV.
  Calculating total energy contributions from superposition of free atom densities.

  Total energy components:
  | Sum of eigenvalues            :         -43.82505374 Ha       -1192.54038814 eV
  | XC energy correction          :          -8.86359004 Ha        -241.19055652 eV
  | XC potential correction       :          11.67128571 Ha         317.59184294 eV
  | Free-atom electrostatic energy:         -35.29589028 Ha        -960.45004157 eV
  | Hartree energy correction     :          -0.00000000 Ha          -0.00000000 eV
  | Entropy correction            :          -0.00000000 Ha          -0.00000000 eV
  | ---------------------------
  | Total energy                  :         -76.31324835 Ha       -2076.58914329 eV
  | Total energy, T -> 0          :         -76.31324835 Ha       -2076.58914329 eV  <-- do not rely on this value for anything but (periodic) metals
  | Electronic free energy        :         -76.31324835 Ha       -2076.58914329 eV

  Derived energy quantities:
  | Kinetic energy                :          75.66398812 Ha        2058.92187345 eV
  | Electrostatic energy          :        -143.11364643 Ha       -3894.32046022 eV
  | Energy correction for multipole
  | error in Hartree potential    :           0.00000000 Ha           0.00000000 eV
  | Sum of eigenvalues per atom                           :        -298.13509704 eV
  | Total energy (T->0) per atom                          :        -519.14728582 eV  <-- do not rely on this value for anything but (periodic) metals
  | Electronic free energy per atom                       :        -519.14728582 eV
  Initialize hartree_potential_storage
  Max. number of atoms included in rho_multipole:            4

  End scf initialization - timings             :  max(cpu_time)    wall_clock(cpu1)
  | Time for scf. initialization               :        0.083 s           0.084 s
  | Boundary condition initialization          :        0.000 s           0.001 s
  | Integration                                :        0.043 s           0.042 s
  | Solution of K.-S. eqns.                    :        0.001 s           0.001 s
  | Grid partitioning                          :        0.015 s           0.014 s
  | Preloading free-atom quantities on grid    :        0.001 s           0.001 s
  | Free-atom superposition energy             :        0.012 s           0.012 s
  | Total energy evaluation                    :        0.000 s           0.000 s

  Partial memory accounting:
  | Current value for overall tracked memory usage on task 0  :           0.017 MB
  | Peak value for overall tracked memory usage on task 0     :           0.075 MB after allocating wave
  | Largest tracked array allocation on task 0 so far         :           0.019 MB  when allocating H_times_psi
  Note:  These values currently only include a subset of arrays which are explicitly tracked.
  The "true" memory usage will be greater.
------------------------------------------------------------

------------------------------------------------------------
          Begin self-consistency iteration #    1

  Date     :  20190509, Time     :  114710.037
------------------------------------------------------------
  Evaluating new KS density.
  Integration grid: deviation in total charge (<rho> - N_e) =   1.065814E-14
  Pulay mixing of updated and previous charge densities.

  Evaluating partitioned Hartree potential by multipole expansion.
  | Analytical far-field extrapolation by fixed multipoles:
  | Hartree multipole sum: apparent total charge =   0.499214E-01
  Summing up the Hartree potential.
  Time summed over all CPUs for potential: real work        0.017 s, elapsed        0.018 s
  | RMS charge density error from multipole expansion :   0.486512E-03

  Integrating Hamiltonian matrix: batch-based integration.
  Time summed over all CPUs for integration: real work        0.028 s, elapsed        0.028 s

  Updating Kohn-Sham eigenvalues, eigenvectors, occupation numbers, and Fermi level.
  Solving generalized eigenproblem
  Updating Kohn-Sham eigenvalues and eigenfunctions.
  Solving real generalised eigenvalue problem by standard LAPACK (fast)

  Obtaining occupation numbers and chemical potential using ELSI.
  | Chemical potential (Fermi level):    -6.98334960eV
  Writing Kohn-Sham eigenvalues.

  State    Occupation    Eigenvalue [Ha]    Eigenvalue [eV]
      1       2.00000         -18.902090         -514.35204
      2       2.00000          -1.155196          -31.43449
      3       2.00000          -0.676719          -18.41446
      4       2.00000          -0.676450          -18.40714
      5       2.00000          -0.510149          -13.88187
      6       0.00000          -0.100725           -2.74088
      7       0.00000          -0.007221           -0.19649
      8       0.00000          -0.007038           -0.19151
      9       0.00000           0.192619            5.24144
     10       0.00000           0.254843            6.93462
     11       0.00000           0.254863            6.93519
     12       0.00000           0.456152           12.41253
     13       0.00000           0.660356           17.96921

  Highest occupied state (VBM) at    -13.88186795 eV
  | Occupation number:      2.00000000

  Lowest unoccupied state (CBM) at    -2.74087820 eV
  | Occupation number:      0.00000000

  Overall HOMO-LUMO gap:     11.14098975 eV.

  Total energy components:
  | Sum of eigenvalues            :         -43.84120796 Ha       -1192.97996663 eV
  | XC energy correction          :          -8.86674323 Ha        -241.27635918 eV
  | XC potential correction       :          11.67566101 Ha         317.71090113 eV
  | Free-atom electrostatic energy:         -35.29589028 Ha        -960.45004157 eV
  | Hartree energy correction     :           0.03273496 Ha           0.89076349 eV
  | Entropy correction            :          -0.00000000 Ha          -0.00000000 eV
  | ---------------------------
  | Total energy                  :         -76.29544549 Ha       -2076.10470277 eV
  | Total energy, T -> 0          :         -76.29544549 Ha       -2076.10470277 eV  <-- do not rely on this value for anything but (periodic) metals
  | Electronic free energy        :         -76.29544549 Ha       -2076.10470277 eV

  Derived energy quantities:
  | Kinetic energy                :          75.75313838 Ha        2061.34777545 eV
  | Electrostatic energy          :        -143.18184064 Ha       -3896.17611903 eV
  | Energy correction for multipole
  | error in Hartree potential    :           0.00050789 Ha           0.01382038 eV
  | Sum of eigenvalues per atom                           :        -298.24499166 eV
  | Total energy (T->0) per atom                          :        -519.02617569 eV  <-- do not rely on this value for anything but (periodic) metals
  | Electronic free energy per atom                       :        -519.02617569 eV

  Self-consistency convergence accuracy:
  | Change of charge density      :  0.2574E+00
  | Change of sum of eigenvalues  : -0.4396E+00 eV
  | Change of total energy        :  0.4844E+00 eV

  End self-consistency iteration #     1       :  max(cpu_time)    wall_clock(cpu1)
  | Time for this iteration                    :        0.062 s           0.062 s
  | Charge density update                      :        0.013 s           0.013 s
  | Density mixing                             :        0.000 s           0.000 s
  | Hartree multipole update                   :        0.002 s           0.002 s
  | Hartree multipole summation                :        0.018 s           0.018 s
  | Integration                                :        0.029 s           0.028 s
  | Solution of K.-S. eqns.                    :        0.000 s           0.000 s
  | Total energy evaluation                    :        0.000 s           0.000 s

  Partial memory accounting:
  | Current value for overall tracked memory usage on task 0  :           0.017 MB
  | Peak value for overall tracked memory usage on task 0     :           0.082 MB after allocating wave
  | Largest tracked array allocation on task 0 so far         :           0.019 MB  when allocating H_times_psi
  Note:  These values currently only include a subset of arrays which are explicitly tracked.
  The "true" memory usage will be greater.
------------------------------------------------------------

------------------------------------------------------------
          Begin self-consistency iteration #    2

  Date     :  20190509, Time     :  114710.099
------------------------------------------------------------
  Evaluating new KS density.
  Integration grid: deviation in total charge (<rho> - N_e) =   0.000000E+00
  Pulay mixing of updated and previous charge densities.

  Evaluating partitioned Hartree potential by multipole expansion.
  | Analytical far-field extrapolation by fixed multipoles:
  | Hartree multipole sum: apparent total charge =   0.436542E+00
  Summing up the Hartree potential.
  Time summed over all CPUs for potential: real work        0.017 s, elapsed        0.017 s
  | RMS charge density error from multipole expansion :   0.419458E-02

  Integrating Hamiltonian matrix: batch-based integration.
  Time summed over all CPUs for integration: real work        0.030 s, elapsed        0.030 s

  Updating Kohn-Sham eigenvalues, eigenvectors, occupation numbers, and Fermi level.
  Solving generalized eigenproblem
  Updating Kohn-Sham eigenvalues and eigenfunctions.
  Solving real generalised eigenvalue problem by standard LAPACK (fast)

  Obtaining occupation numbers and chemical potential using ELSI.
  | Chemical potential (Fermi level):    -8.70229190eV
  Highest occupied state (VBM) at    -14.66953348 eV
  | Occupation number:      2.00000000

  Lowest unoccupied state (CBM) at    -4.87921445 eV
  | Occupation number:      0.00000000

  Overall HOMO-LUMO gap:      9.79031904 eV.

  Checking to see if s.c.f. parameters should be adjusted.
  The system likely has a gap. Increased the default Pulay mixing parameter (charge_mix_param). Value:   0.200000 .
  Kept the default occupation width. Value:   0.010000 eV.

  Total energy components:
  | Sum of eigenvalues            :         -44.06532555 Ha       -1199.07851673 eV
  | XC energy correction          :          -8.89008220 Ha        -241.91144510 eV
  | XC potential correction       :          11.70804201 Ha         318.59203293 eV
  | Free-atom electrostatic energy:         -35.29589028 Ha        -960.45004157 eV
  | Hartree energy correction     :           0.33485938 Ha           9.11198746 eV
  | Entropy correction            :          -0.00000000 Ha          -0.00000000 eV
  | ---------------------------
  | Total energy                  :         -76.20839664 Ha       -2073.73598301 eV
  | Total energy, T -> 0          :         -76.20839664 Ha       -2073.73598301 eV  <-- do not rely on this value for anything but (periodic) metals
  | Electronic free energy        :         -76.20839664 Ha       -2073.73598301 eV

  Derived energy quantities:
  | Kinetic energy                :          76.28605980 Ha        2075.84930514 eV
  | Electrostatic energy          :        -143.60437423 Ha       -3907.67384305 eV
  | Energy correction for multipole
  | error in Hartree potential    :           0.00419087 Ha           0.11403935 eV
  | Sum of eigenvalues per atom                           :        -299.76962918 eV
  | Total energy (T->0) per atom                          :        -518.43399575 eV  <-- do not rely on this value for anything but (periodic) metals
  | Electronic free energy per atom                       :        -518.43399575 eV

  Self-consistency convergence accuracy:
  | Change of charge density      :  0.2325E+00
  | Change of sum of eigenvalues  : -0.6099E+01 eV
  | Change of total energy        :  0.2369E+01 eV

  End self-consistency iteration #     2       :  max(cpu_time)    wall_clock(cpu1)
  | Time for this iteration                    :        0.061 s           0.061 s
  | Charge density update                      :        0.013 s           0.012 s
  | Density mixing                             :        0.000 s           0.001 s
  | Hartree multipole update                   :        0.001 s           0.001 s
  | Hartree multipole summation                :        0.017 s           0.017 s
  | Integration                                :        0.030 s           0.030 s
  | Solution of K.-S. eqns.                    :        0.000 s           0.000 s
  | Total energy evaluation                    :        0.000 s           0.000 s

  Partial memory accounting:
  | Current value for overall tracked memory usage on task 0  :           0.018 MB
  | Peak value for overall tracked memory usage on task 0     :           0.083 MB after allocating wave
  | Largest tracked array allocation on task 0 so far         :           0.019 MB  when allocating H_times_psi
  Note:  These values currently only include a subset of arrays which are explicitly tracked.
  The "true" memory usage will be greater.
------------------------------------------------------------

------------------------------------------------------------
          Begin self-consistency iteration #    3

  Date     :  20190509, Time     :  114710.160
------------------------------------------------------------
  Evaluating new KS density.
  Integration grid: deviation in total charge (<rho> - N_e) =   1.776357E-14
  Pulay mixing of updated and previous charge densities.

  Evaluating partitioned Hartree potential by multipole expansion.
  | Analytical far-field extrapolation by fixed multipoles:
  | Hartree multipole sum: apparent total charge =   0.853493E+00
  Summing up the Hartree potential.
  Time summed over all CPUs for potential: real work        0.018 s, elapsed        0.018 s
  | RMS charge density error from multipole expansion :   0.783382E-02

  Integrating Hamiltonian matrix: batch-based integration.
  Time summed over all CPUs for integration: real work        0.029 s, elapsed        0.029 s

  Updating Kohn-Sham eigenvalues, eigenvectors, occupation numbers, and Fermi level.
  Solving generalized eigenproblem
  Updating Kohn-Sham eigenvalues and eigenfunctions.
  Solving real generalised eigenvalue problem by standard LAPACK (fast)

  Obtaining occupation numbers and chemical potential using ELSI.
  | Chemical potential (Fermi level):   -11.61125303eV
  Highest occupied state (VBM) at    -18.15593502 eV
  | Occupation number:      2.00000000

  Lowest unoccupied state (CBM) at    -7.59255861 eV
  | Occupation number:      0.00000000

  Overall HOMO-LUMO gap:     10.56337641 eV.

  Total energy components:
  | Sum of eigenvalues            :         -45.45122716 Ha       -1236.79081822 eV
  | XC energy correction          :          -8.79554979 Ha        -239.33908721 eV
  | XC potential correction       :          11.58460024 Ha         315.23301142 eV
  | Free-atom electrostatic energy:         -35.29589028 Ha        -960.45004157 eV
  | Hartree energy correction     :           1.78184976 Ha          48.48659894 eV
  | Entropy correction            :          -0.00000000 Ha          -0.00000000 eV
  | ---------------------------
  | Total energy                  :         -76.17621722 Ha       -2072.86033664 eV
  | Total energy, T -> 0          :         -76.17621722 Ha       -2072.86033664 eV  <-- do not rely on this value for anything but (periodic) metals
  | Electronic free energy        :         -76.17621722 Ha       -2072.86033664 eV

  Derived energy quantities:
  | Kinetic energy                :          75.81971478 Ha        2063.15941150 eV
  | Electrostatic energy          :        -143.20038221 Ha       -3896.68066093 eV
  | Energy correction for multipole
  | error in Hartree potential    :           0.00575219 Ha           0.15652504 eV
  | Sum of eigenvalues per atom                           :        -309.19770455 eV
  | Total energy (T->0) per atom                          :        -518.21508416 eV  <-- do not rely on this value for anything but (periodic) metals
  | Electronic free energy per atom                       :        -518.21508416 eV

  Self-consistency convergence accuracy:
  | Change of charge density      :  0.1082E+00
  | Change of sum of eigenvalues  : -0.3771E+02 eV
  | Change of total energy        :  0.8756E+00 eV

  End self-consistency iteration #     3       :  max(cpu_time)    wall_clock(cpu1)
  | Time for this iteration                    :        0.061 s           0.061 s
  | Charge density update                      :        0.012 s           0.012 s
  | Density mixing                             :        0.000 s           0.000 s
  | Hartree multipole update                   :        0.002 s           0.002 s
  | Hartree multipole summation                :        0.017 s           0.018 s
  | Integration                                :        0.029 s           0.029 s
  | Solution of K.-S. eqns.                    :        0.000 s           0.000 s
  | Total energy evaluation                    :        0.000 s           0.000 s

  Partial memory accounting:
  | Current value for overall tracked memory usage on task 0  :           0.018 MB
  | Peak value for overall tracked memory usage on task 0     :           0.083 MB after allocating wave
  | Largest tracked array allocation on task 0 so far         :           0.019 MB  when allocating H_times_psi
  Note:  These values currently only include a subset of arrays which are explicitly tracked.
  The "true" memory usage will be greater.
------------------------------------------------------------

------------------------------------------------------------
          Begin self-consistency iteration #    4

  Date     :  20190509, Time     :  114710.221
------------------------------------------------------------
  Evaluating new KS density.
  Integration grid: deviation in total charge (<rho> - N_e) =   3.552714E-15
  Pulay mixing of updated and previous charge densities.

  Evaluating partitioned Hartree potential by multipole expansion.
  | Analytical far-field extrapolation by fixed multipoles:
  | Hartree multipole sum: apparent total charge =   0.100711E+01
  Summing up the Hartree potential.
  Time summed over all CPUs for potential: real work        0.016 s, elapsed        0.016 s
  | RMS charge density error from multipole expansion :   0.926058E-02

  Integrating Hamiltonian matrix: batch-based integration.
  Time summed over all CPUs for integration: real work        0.029 s, elapsed        0.029 s

  Updating Kohn-Sham eigenvalues, eigenvectors, occupation numbers, and Fermi level.
  Solving generalized eigenproblem
  Updating Kohn-Sham eigenvalues and eigenfunctions.
  Solving real generalised eigenvalue problem by standard LAPACK (fast)

  Obtaining occupation numbers and chemical potential using ELSI.
  | Chemical potential (Fermi level):   -12.32847892eV
  Highest occupied state (VBM) at    -18.92539586 eV
  | Occupation number:      2.00000000

  Lowest unoccupied state (CBM) at    -8.35657751 eV
  | Occupation number:      0.00000000

  Overall HOMO-LUMO gap:     10.56881835 eV.

  Total energy components:
  | Sum of eigenvalues            :         -45.73866681 Ha       -1244.61244912 eV
  | XC energy correction          :          -8.79167139 Ha        -239.23355058 eV
  | XC potential correction       :          11.57994873 Ha         315.10643725 eV
  | Free-atom electrostatic energy:         -35.29589028 Ha        -960.45004157 eV
  | Hartree energy correction     :           2.07239716 Ha          56.39279599 eV
  | Entropy correction            :          -0.00000000 Ha          -0.00000000 eV
  | ---------------------------
  | Total energy                  :         -76.17388259 Ha       -2072.79680804 eV
  | Total energy, T -> 0          :         -76.17388259 Ha       -2072.79680804 eV  <-- do not rely on this value for anything but (periodic) metals
  | Electronic free energy        :         -76.17388259 Ha       -2072.79680804 eV

  Derived energy quantities:
  | Kinetic energy                :          75.80150047 Ha        2062.66377508 eV
  | Electrostatic energy          :        -143.18371168 Ha       -3896.22703254 eV
  | Energy correction for multipole
  | error in Hartree potential    :           0.00666856 Ha           0.18146076 eV
  | Sum of eigenvalues per atom                           :        -311.15311228 eV
  | Total energy (T->0) per atom                          :        -518.19920201 eV  <-- do not rely on this value for anything but (periodic) metals
  | Electronic free energy per atom                       :        -518.19920201 eV

  Self-consistency convergence accuracy:
  | Change of charge density      :  0.4486E-01
  | Change of sum of eigenvalues  : -0.7822E+01 eV
  | Change of total energy        :  0.6353E-01 eV

  End self-consistency iteration #     4       :  max(cpu_time)    wall_clock(cpu1)
  | Time for this iteration                    :        0.059 s           0.059 s
  | Charge density update                      :        0.011 s           0.012 s
  | Density mixing                             :        0.000 s           0.000 s
  | Hartree multipole update                   :        0.001 s           0.001 s
  | Hartree multipole summation                :        0.017 s           0.017 s
  | Integration                                :        0.029 s           0.029 s
  | Solution of K.-S. eqns.                    :        0.000 s           0.000 s
  | Total energy evaluation                    :        0.000 s           0.000 s

  Partial memory accounting:
  | Current value for overall tracked memory usage on task 0  :           0.019 MB
  | Peak value for overall tracked memory usage on task 0     :           0.083 MB after allocating wave
  | Largest tracked array allocation on task 0 so far         :           0.019 MB  when allocating H_times_psi
  Note:  These values currently only include a subset of arrays which are explicitly tracked.
  The "true" memory usage will be greater.
------------------------------------------------------------

------------------------------------------------------------
          Begin self-consistency iteration #    5

  Date     :  20190509, Time     :  114710.280
------------------------------------------------------------
  Evaluating new KS density.
  Integration grid: deviation in total charge (<rho> - N_e) =  -1.776357E-15
  Pulay mixing of updated and previous charge densities.

  Evaluating partitioned Hartree potential by multipole expansion.
  | Analytical far-field extrapolation by fixed multipoles:
  | Hartree multipole sum: apparent total charge =   0.101049E+01
  Summing up the Hartree potential.
  Time summed over all CPUs for potential: real work        0.016 s, elapsed        0.016 s
  | RMS charge density error from multipole expansion :   0.935904E-02

  Integrating Hamiltonian matrix: batch-based integration.
  Time summed over all CPUs for integration: real work        0.028 s, elapsed        0.028 s

  Updating Kohn-Sham eigenvalues, eigenvectors, occupation numbers, and Fermi level.
  Solving generalized eigenproblem
  Updating Kohn-Sham eigenvalues and eigenfunctions.
  Solving real generalised eigenvalue problem by standard LAPACK (fast)

  Obtaining occupation numbers and chemical potential using ELSI.
  | Chemical potential (Fermi level):   -12.16746208eV
  Highest occupied state (VBM) at    -18.70738367 eV
  | Occupation number:      2.00000000

  Lowest unoccupied state (CBM) at    -8.23562702 eV
  | Occupation number:      0.00000000

  Overall HOMO-LUMO gap:     10.47175666 eV.

  Total energy components:
  | Sum of eigenvalues            :         -45.64429404 Ha       -1242.04443546 eV
  | XC energy correction          :          -8.80525039 Ha        -239.60305399 eV
  | XC potential correction       :          11.59783846 Ha         315.59324171 eV
  | Free-atom electrostatic energy:         -35.29589028 Ha        -960.45004157 eV
  | Hartree energy correction     :           1.97381388 Ha          53.71020848 eV
  | Entropy correction            :          -0.00000000 Ha          -0.00000000 eV
  | ---------------------------
  | Total energy                  :         -76.17378237 Ha       -2072.79408083 eV
  | Total energy, T -> 0          :         -76.17378237 Ha       -2072.79408083 eV  <-- do not rely on this value for anything but (periodic) metals
  | Electronic free energy        :         -76.17378237 Ha       -2072.79408083 eV

  Derived energy quantities:
  | Kinetic energy                :          75.84919959 Ha        2063.96173403 eV
  | Electrostatic energy          :        -143.21773157 Ha       -3897.15276087 eV
  | Energy correction for multipole
  | error in Hartree potential    :           0.00646716 Ha           0.17598050 eV
  | Sum of eigenvalues per atom                           :        -310.51110886 eV
  | Total energy (T->0) per atom                          :        -518.19852021 eV  <-- do not rely on this value for anything but (periodic) metals
  | Electronic free energy per atom                       :        -518.19852021 eV

  Self-consistency convergence accuracy:
  | Change of charge density      :  0.1073E-01
  | Change of sum of eigenvalues  :  0.2568E+01 eV
  | Change of total energy        :  0.2727E-02 eV

  End self-consistency iteration #     5       :  max(cpu_time)    wall_clock(cpu1)
  | Time for this iteration                    :        0.059 s           0.059 s
  | Charge density update                      :        0.012 s           0.012 s
  | Density mixing                             :        0.001 s           0.000 s
  | Hartree multipole update                   :        0.001 s           0.002 s
  | Hartree multipole summation                :        0.017 s           0.016 s
  | Integration                                :        0.028 s           0.028 s
  | Solution of K.-S. eqns.                    :        0.000 s           0.000 s
  | Total energy evaluation                    :        0.000 s           0.000 s

  Partial memory accounting:
  | Current value for overall tracked memory usage on task 0  :           0.019 MB
  | Peak value for overall tracked memory usage on task 0     :           0.083 MB after allocating wave
  | Largest tracked array allocation on task 0 so far         :           0.019 MB  when allocating H_times_psi
  Note:  These values currently only include a subset of arrays which are explicitly tracked.
  The "true" memory usage will be greater.
------------------------------------------------------------

------------------------------------------------------------
          Begin self-consistency iteration #    6

  Date     :  20190509, Time     :  114710.339
------------------------------------------------------------
  Evaluating new KS density.
  Integration grid: deviation in total charge (<rho> - N_e) =  -7.105427E-15
  Pulay mixing of updated and previous charge densities.

  Evaluating partitioned Hartree potential by multipole expansion.
  | Analytical far-field extrapolation by fixed multipoles:
  | Hartree multipole sum: apparent total charge =   0.100143E+01
  Summing up the Hartree potential.
  Time summed over all CPUs for potential: real work        0.017 s, elapsed        0.017 s
  | RMS charge density error from multipole expansion :   0.926575E-02

  Integrating Hamiltonian matrix: batch-based integration.
  Time summed over all CPUs for integration: real work        0.029 s, elapsed        0.029 s

  Updating Kohn-Sham eigenvalues, eigenvectors, occupation numbers, and Fermi level.
  Solving generalized eigenproblem
  Updating Kohn-Sham eigenvalues and eigenfunctions.
  Solving real generalised eigenvalue problem by standard LAPACK (fast)

  Obtaining occupation numbers and chemical potential using ELSI.
  | Chemical potential (Fermi level):   -12.19707960eV
  Highest occupied state (VBM) at    -18.75748588 eV
  | Occupation number:      2.00000000

  Lowest unoccupied state (CBM) at    -8.23592605 eV
  | Occupation number:      0.00000000

  Overall HOMO-LUMO gap:     10.52155983 eV.

  Total energy components:
  | Sum of eigenvalues            :         -45.66972243 Ha       -1242.73637700 eV
  | XC energy correction          :          -8.80005867 Ha        -239.46177998 eV
  | XC potential correction       :          11.59095868 Ha         315.40603336 eV
  | Free-atom electrostatic energy:         -35.29589028 Ha        -960.45004157 eV
  | Hartree energy correction     :           2.00095362 Ha          54.44871834 eV
  | Entropy correction            :          -0.00000000 Ha          -0.00000000 eV
  | ---------------------------
  | Total energy                  :         -76.17375907 Ha       -2072.79344685 eV
  | Total energy, T -> 0          :         -76.17375907 Ha       -2072.79344685 eV  <-- do not rely on this value for anything but (periodic) metals
  | Electronic free energy        :         -76.17375907 Ha       -2072.79344685 eV

  Derived energy quantities:
  | Kinetic energy                :          75.81875172 Ha        2063.13320548 eV
  | Electrostatic energy          :        -143.19245213 Ha       -3896.46487235 eV
  | Energy correction for multipole
  | error in Hartree potential    :           0.00636112 Ha           0.17309489 eV
  | Sum of eigenvalues per atom                           :        -310.68409425 eV
  | Total energy (T->0) per atom                          :        -518.19836171 eV  <-- do not rely on this value for anything but (periodic) metals
  | Electronic free energy per atom                       :        -518.19836171 eV

  Self-consistency convergence accuracy:
  | Change of charge density      :  0.7272E-02
  | Change of sum of eigenvalues  : -0.6919E+00 eV
  | Change of total energy        :  0.6340E-03 eV

  End self-consistency iteration #     6       :  max(cpu_time)    wall_clock(cpu1)
  | Time for this iteration                    :        0.059 s           0.059 s
  | Charge density update                      :        0.011 s           0.011 s
  | Density mixing                             :        0.001 s           0.001 s
  | Hartree multipole update                   :        0.001 s           0.001 s
  | Hartree multipole summation                :        0.017 s           0.017 s
  | Integration                                :        0.029 s           0.029 s
  | Solution of K.-S. eqns.                    :        0.000 s           0.000 s
  | Total energy evaluation                    :        0.000 s           0.000 s

  Partial memory accounting:
  | Current value for overall tracked memory usage on task 0  :           0.019 MB
  | Peak value for overall tracked memory usage on task 0     :           0.084 MB after allocating wave
  | Largest tracked array allocation on task 0 so far         :           0.019 MB  when allocating H_times_psi
  Note:  These values currently only include a subset of arrays which are explicitly tracked.
  The "true" memory usage will be greater.
------------------------------------------------------------

------------------------------------------------------------
          Begin self-consistency iteration #    7

  Date     :  20190509, Time     :  114710.398
------------------------------------------------------------
  Evaluating new KS density.
  Integration grid: deviation in total charge (<rho> - N_e) =   3.552714E-15
  Pulay mixing of updated and previous charge densities.

  Evaluating partitioned Hartree potential by multipole expansion.
  | Analytical far-field extrapolation by fixed multipoles:
  | Hartree multipole sum: apparent total charge =   0.999108E+00
  Summing up the Hartree potential.
  Time summed over all CPUs for potential: real work        0.016 s, elapsed        0.016 s
  | RMS charge density error from multipole expansion :   0.925965E-02

  Integrating Hamiltonian matrix: batch-based integration.
  Time summed over all CPUs for integration: real work        0.029 s, elapsed        0.029 s

  Updating Kohn-Sham eigenvalues, eigenvectors, occupation numbers, and Fermi level.
  Solving generalized eigenproblem
  Updating Kohn-Sham eigenvalues and eigenfunctions.
  Solving real generalised eigenvalue problem by standard LAPACK (fast)

  Obtaining occupation numbers and chemical potential using ELSI.
  | Chemical potential (Fermi level):   -12.14483269eV
  Highest occupied state (VBM) at    -18.67826847 eV
  | Occupation number:      2.00000000

  Lowest unoccupied state (CBM) at    -8.19193617 eV
  | Occupation number:      0.00000000

  Overall HOMO-LUMO gap:     10.48633230 eV.

  Total energy components:
  | Sum of eigenvalues            :         -45.63931067 Ha       -1241.90883091 eV
  | XC energy correction          :          -8.80359864 Ha        -239.55810758 eV
  | XC potential correction       :          11.59561008 Ha         315.53260431 eV
  | Free-atom electrostatic energy:         -35.29589028 Ha        -960.45004157 eV
  | Hartree energy correction     :           1.96944506 Ha          53.59132673 eV
  | Entropy correction            :          -0.00000000 Ha          -0.00000000 eV
  | ---------------------------
  | Total energy                  :         -76.17374445 Ha       -2072.79304901 eV
  | Total energy, T -> 0          :         -76.17374445 Ha       -2072.79304901 eV  <-- do not rely on this value for anything but (periodic) metals
  | Electronic free energy        :         -76.17374445 Ha       -2072.79304901 eV

  Derived energy quantities:
  | Kinetic energy                :          75.82846024 Ha        2063.39738774 eV
  | Electrostatic energy          :        -143.19860605 Ha       -3896.63232918 eV
  | Energy correction for multipole
  | error in Hartree potential    :           0.00625123 Ha           0.17010467 eV
  | Sum of eigenvalues per atom                           :        -310.47720773 eV
  | Total energy (T->0) per atom                          :        -518.19826225 eV  <-- do not rely on this value for anything but (periodic) metals
  | Electronic free energy per atom                       :        -518.19826225 eV

  Self-consistency convergence accuracy:
  | Change of charge density      :  0.3744E-02
  | Change of sum of eigenvalues  :  0.8275E+00 eV
  | Change of total energy        :  0.3978E-03 eV

  End self-consistency iteration #     7       :  max(cpu_time)    wall_clock(cpu1)
  | Time for this iteration                    :        0.059 s           0.059 s
  | Charge density update                      :        0.011 s           0.011 s
  | Density mixing                             :        0.001 s           0.001 s
  | Hartree multipole update                   :        0.002 s           0.002 s
  | Hartree multipole summation                :        0.017 s           0.016 s
  | Integration                                :        0.029 s           0.029 s
  | Solution of K.-S. eqns.                    :        0.000 s           0.000 s
  | Total energy evaluation                    :        0.000 s           0.000 s

  Partial memory accounting:
  | Current value for overall tracked memory usage on task 0  :           0.019 MB
  | Peak value for overall tracked memory usage on task 0     :           0.084 MB after allocating wave
  | Largest tracked array allocation on task 0 so far         :           0.019 MB  when allocating H_times_psi
  Note:  These values currently only include a subset of arrays which are explicitly tracked.
  The "true" memory usage will be greater.
------------------------------------------------------------

------------------------------------------------------------
          Begin self-consistency iteration #    8

  Date     :  20190509, Time     :  114710.457
------------------------------------------------------------
  Evaluating new KS density.
  Integration grid: deviation in total charge (<rho> - N_e) =   7.105427E-15
  Pulay mixing of updated and previous charge densities.

  Evaluating partitioned Hartree potential by multipole expansion.
  | Analytical far-field extrapolation by fixed multipoles:
  | Hartree multipole sum: apparent total charge =   0.999325E+00
  Summing up the Hartree potential.
  Time summed over all CPUs for potential: real work        0.017 s, elapsed        0.017 s
  | RMS charge density error from multipole expansion :   0.926281E-02

  Integrating Hamiltonian matrix: batch-based integration.
  Time summed over all CPUs for integration: real work        0.029 s, elapsed        0.029 s

  Updating Kohn-Sham eigenvalues, eigenvectors, occupation numbers, and Fermi level.
  Solving generalized eigenproblem
  Updating Kohn-Sham eigenvalues and eigenfunctions.
  Solving real generalised eigenvalue problem by standard LAPACK (fast)

  Obtaining occupation numbers and chemical potential using ELSI.
  | Chemical potential (Fermi level):   -12.14077983eV
  Highest occupied state (VBM) at    -18.67254440 eV
  | Occupation number:      2.00000000

  Lowest unoccupied state (CBM) at    -8.18895435 eV
  | Occupation number:      0.00000000

  Overall HOMO-LUMO gap:     10.48359005 eV.

  Total energy components:
  | Sum of eigenvalues            :         -45.63719385 Ha       -1241.85122928 eV
  | XC energy correction          :          -8.80393648 Ha        -239.56730066 eV
  | XC potential correction       :          11.59605472 Ha         315.54470367 eV
  | Free-atom electrostatic energy:         -35.29589028 Ha        -960.45004157 eV
  | Hartree energy correction     :           1.96722162 Ha          53.53082387 eV
  | Entropy correction            :          -0.00000000 Ha          -0.00000000 eV
  | ---------------------------
  | Total energy                  :         -76.17374426 Ha       -2072.79304397 eV
  | Total energy, T -> 0          :         -76.17374426 Ha       -2072.79304397 eV  <-- do not rely on this value for anything but (periodic) metals
  | Electronic free energy        :         -76.17374426 Ha       -2072.79304397 eV

  Derived energy quantities:
  | Kinetic energy                :          75.82892289 Ha        2063.40997693 eV
  | Electrostatic energy          :        -143.19873067 Ha       -3896.63572024 eV
  | Energy correction for multipole
  | error in Hartree potential    :           0.00623679 Ha           0.16971167 eV
  | Sum of eigenvalues per atom                           :        -310.46280732 eV
  | Total energy (T->0) per atom                          :        -518.19826099 eV  <-- do not rely on this value for anything but (periodic) metals
  | Electronic free energy per atom                       :        -518.19826099 eV

  Self-consistency convergence accuracy:
  | Change of charge density      :  0.5262E-03
  | Change of sum of eigenvalues  :  0.5760E-01 eV
  | Change of total energy        :  0.5044E-05 eV

  End self-consistency iteration #     8       :  max(cpu_time)    wall_clock(cpu1)
  | Time for this iteration                    :        0.061 s           0.061 s
  | Charge density update                      :        0.011 s           0.011 s
  | Density mixing                             :        0.001 s           0.001 s
  | Hartree multipole update                   :        0.001 s           0.002 s
  | Hartree multipole summation                :        0.017 s           0.017 s
  | Integration                                :        0.030 s           0.029 s
  | Solution of K.-S. eqns.                    :        0.000 s           0.001 s
  | Total energy evaluation                    :        0.000 s           0.000 s

  Partial memory accounting:
  | Current value for overall tracked memory usage on task 0  :           0.020 MB
  | Peak value for overall tracked memory usage on task 0     :           0.084 MB after allocating wave
  | Largest tracked array allocation on task 0 so far         :           0.019 MB  when allocating H_times_psi
  Note:  These values currently only include a subset of arrays which are explicitly tracked.
  The "true" memory usage will be greater.
------------------------------------------------------------

------------------------------------------------------------
          Begin self-consistency iteration #    9

  Date     :  20190509, Time     :  114710.518
------------------------------------------------------------
  Evaluating new KS density.
  Integration grid: deviation in total charge (<rho> - N_e) =   1.243450E-14
  Pulay mixing of updated and previous charge densities.

  Evaluating partitioned Hartree potential by multipole expansion.
  | Analytical far-field extrapolation by fixed multipoles:
  | Hartree multipole sum: apparent total charge =   0.999549E+00
  Summing up the Hartree potential.
  Time summed over all CPUs for potential: real work        0.017 s, elapsed        0.017 s
  | RMS charge density error from multipole expansion :   0.926306E-02

  Integrating Hamiltonian matrix: batch-based integration.
  Time summed over all CPUs for integration: real work        0.029 s, elapsed        0.029 s

  Updating Kohn-Sham eigenvalues, eigenvectors, occupation numbers, and Fermi level.
  Solving generalized eigenproblem
  Updating Kohn-Sham eigenvalues and eigenfunctions.
  Solving real generalised eigenvalue problem by standard LAPACK (fast)

  Obtaining occupation numbers and chemical potential using ELSI.
  | Chemical potential (Fermi level):   -12.13988181eV
  Highest occupied state (VBM) at    -18.67149091 eV
  | Occupation number:      2.00000000

  Lowest unoccupied state (CBM) at    -8.18834716 eV
  | Occupation number:      0.00000000

  Overall HOMO-LUMO gap:     10.48314375 eV.

  Total energy components:
  | Sum of eigenvalues            :         -45.63712347 Ha       -1241.84931414 eV
  | XC energy correction          :          -8.80398528 Ha        -239.56862850 eV
  | XC potential correction       :          11.59611851 Ha         315.54643960 eV
  | Free-atom electrostatic energy:         -35.29589028 Ha        -960.45004157 eV
  | Hartree energy correction     :           1.96713656 Ha          53.52850931 eV
  | Entropy correction            :          -0.00000000 Ha          -0.00000000 eV
  | ---------------------------
  | Total energy                  :         -76.17374394 Ha       -2072.79303529 eV
  | Total energy, T -> 0          :         -76.17374394 Ha       -2072.79303529 eV  <-- do not rely on this value for anything but (periodic) metals
  | Electronic free energy        :         -76.17374394 Ha       -2072.79303529 eV

  Derived energy quantities:
  | Kinetic energy                :          75.82810511 Ha        2063.38772410 eV
  | Electrostatic energy          :        -143.19786378 Ha       -3896.61213089 eV
  | Energy correction for multipole
  | error in Hartree potential    :           0.00622020 Ha           0.16926019 eV
  | Sum of eigenvalues per atom                           :        -310.46232853 eV
  | Total energy (T->0) per atom                          :        -518.19825882 eV  <-- do not rely on this value for anything but (periodic) metals
  | Electronic free energy per atom                       :        -518.19825882 eV

  Self-consistency convergence accuracy:
  | Change of charge density      :  0.2098E-03
  | Change of sum of eigenvalues  :  0.1915E-02 eV
  | Change of total energy        :  0.8680E-05 eV

  End self-consistency iteration #     9       :  max(cpu_time)    wall_clock(cpu1)
  | Time for this iteration                    :        0.061 s           0.061 s
  | Charge density update                      :        0.012 s           0.012 s
  | Density mixing                             :        0.001 s           0.001 s
  | Hartree multipole update                   :        0.002 s           0.001 s
  | Hartree multipole summation                :        0.017 s           0.017 s
  | Integration                                :        0.029 s           0.029 s
  | Solution of K.-S. eqns.                    :        0.000 s           0.000 s
  | Total energy evaluation                    :        0.000 s           0.001 s

  Partial memory accounting:
  | Current value for overall tracked memory usage on task 0  :           0.020 MB
  | Peak value for overall tracked memory usage on task 0     :           0.085 MB after allocating wave
  | Largest tracked array allocation on task 0 so far         :           0.019 MB  when allocating H_times_psi
  Note:  These values currently only include a subset of arrays which are explicitly tracked.
  The "true" memory usage will be greater.
------------------------------------------------------------

------------------------------------------------------------
          Begin self-consistency iteration #   10

  Date     :  20190509, Time     :  114710.579
------------------------------------------------------------
  Evaluating new KS density.
  Integration grid: deviation in total charge (<rho> - N_e) =  -7.105427E-15
  Pulay mixing of updated and previous charge densities.

  Evaluating partitioned Hartree potential by multipole expansion.
  | Analytical far-field extrapolation by fixed multipoles:
  | Hartree multipole sum: apparent total charge =   0.999556E+00
  Summing up the Hartree potential.
  Time summed over all CPUs for potential: real work        0.017 s, elapsed        0.017 s
  | RMS charge density error from multipole expansion :   0.926317E-02

  Integrating Hamiltonian matrix: batch-based integration.
  Time summed over all CPUs for integration: real work        0.028 s, elapsed        0.028 s

  Updating Kohn-Sham eigenvalues, eigenvectors, occupation numbers, and Fermi level.
  Solving generalized eigenproblem
  Updating Kohn-Sham eigenvalues and eigenfunctions.
  Solving real generalised eigenvalue problem by standard LAPACK (fast)

  Obtaining occupation numbers and chemical potential using ELSI.
  | Chemical potential (Fermi level):   -12.13995990eV
  Highest occupied state (VBM) at    -18.67169493 eV
  | Occupation number:      2.00000000

  Lowest unoccupied state (CBM) at    -8.18840435 eV
  | Occupation number:      0.00000000

  Overall HOMO-LUMO gap:     10.48329058 eV.

  Total energy components:
  | Sum of eigenvalues            :         -45.63721654 Ha       -1241.85184674 eV
  | XC energy correction          :          -8.80397593 Ha        -239.56837409 eV
  | XC potential correction       :          11.59610617 Ha         315.54610368 eV
  | Free-atom electrostatic energy:         -35.29589028 Ha        -960.45004157 eV
  | Hartree energy correction     :           1.96723263 Ha          53.53112362 eV
  | Entropy correction            :          -0.00000000 Ha          -0.00000000 eV
  | ---------------------------
  | Total energy                  :         -76.17374394 Ha       -2072.79303510 eV
  | Total energy, T -> 0          :         -76.17374394 Ha       -2072.79303510 eV  <-- do not rely on this value for anything but (periodic) metals
  | Electronic free energy        :         -76.17374394 Ha       -2072.79303510 eV

  Derived energy quantities:
  | Kinetic energy                :          75.82804769 Ha        2063.38616156 eV
  | Electrostatic energy          :        -143.19781570 Ha       -3896.61082257 eV
  | Energy correction for multipole
  | error in Hartree potential    :           0.00621992 Ha           0.16925253 eV
  | Sum of eigenvalues per atom                           :        -310.46296168 eV
  | Total energy (T->0) per atom                          :        -518.19825878 eV  <-- do not rely on this value for anything but (periodic) metals
  | Electronic free energy per atom                       :        -518.19825878 eV

  Self-consistency convergence accuracy:
  | Change of charge density      :  0.2313E-04
  | Change of sum of eigenvalues  : -0.2533E-02 eV
  | Change of total energy        :  0.1901E-06 eV

  End self-consistency iteration #    10       :  max(cpu_time)    wall_clock(cpu1)
  | Time for this iteration                    :        0.061 s           0.061 s
  | Charge density update                      :        0.012 s           0.012 s
  | Density mixing                             :        0.001 s           0.001 s
  | Hartree multipole update                   :        0.001 s           0.001 s
  | Hartree multipole summation                :        0.018 s           0.018 s
  | Integration                                :        0.028 s           0.028 s
  | Solution of K.-S. eqns.                    :        0.000 s           0.001 s
  | Total energy evaluation                    :        0.000 s           0.000 s

  Partial memory accounting:
  | Current value for overall tracked memory usage on task 0  :           0.020 MB
  | Peak value for overall tracked memory usage on task 0     :           0.085 MB after allocating wave
  | Largest tracked array allocation on task 0 so far         :           0.019 MB  when allocating H_times_psi
  Note:  These values currently only include a subset of arrays which are explicitly tracked.
  The "true" memory usage will be greater.
------------------------------------------------------------

------------------------------------------------------------
          Begin self-consistency iteration #   11

  Date     :  20190509, Time     :  114710.640
------------------------------------------------------------
  Evaluating new KS density.
  Integration grid: deviation in total charge (<rho> - N_e) =  -1.065814E-14
  Pulay mixing of updated and previous charge densities.

  Evaluating partitioned Hartree potential by multipole expansion.
  | Analytical far-field extrapolation by fixed multipoles:
  | Hartree multipole sum: apparent total charge =   0.999566E+00
  Summing up the Hartree potential.
  Time summed over all CPUs for potential: real work        0.017 s, elapsed        0.017 s
  | RMS charge density error from multipole expansion :   0.926320E-02

  Integrating Hamiltonian matrix: batch-based integration.
  Time summed over all CPUs for integration: real work        0.028 s, elapsed        0.028 s

  Updating Kohn-Sham eigenvalues, eigenvectors, occupation numbers, and Fermi level.
  Solving generalized eigenproblem
  Updating Kohn-Sham eigenvalues and eigenfunctions.
  Solving real generalised eigenvalue problem by standard LAPACK (fast)

  Obtaining occupation numbers and chemical potential using ELSI.
  | Chemical potential (Fermi level):   -12.13997053eV
  Highest occupied state (VBM) at    -18.67172980 eV
  | Occupation number:      2.00000000

  Lowest unoccupied state (CBM) at    -8.18841854 eV
  | Occupation number:      0.00000000

  Overall HOMO-LUMO gap:     10.48331126 eV.

  Total energy components:
  | Sum of eigenvalues            :         -45.63724039 Ha       -1241.85249587 eV
  | XC energy correction          :          -8.80397472 Ha        -239.56834132 eV
  | XC potential correction       :          11.59610458 Ha         315.54606035 eV
  | Free-atom electrostatic energy:         -35.29589028 Ha        -960.45004157 eV
  | Hartree energy correction     :           1.96725689 Ha          53.53178358 eV
  | Entropy correction            :          -0.00000000 Ha          -0.00000000 eV
  | ---------------------------
[...]
  | Largest tracked array allocation on task 0 so far         :           0.019 MB  when allocating H_times_psi
  Note:  These values currently only include a subset of arrays which are explicitly tracked.
  The "true" memory usage will be greater.
------------------------------------------------------------

------------------------------------------------------------
          Begin self-consistency iteration #   12

  Date     :  20190509, Time     :  114710.699
------------------------------------------------------------
  Evaluating new KS density.
  Integration grid: deviation in total charge (<rho> - N_e) =   5.329071E-15
  Pulay mixing of updated and previous charge densities.

  Evaluating partitioned Hartree potential by multipole expansion.
  | Analytical far-field extrapolation by fixed multipoles:
  | Hartree multipole sum: apparent total charge =   0.999566E+00
  Summing up the Hartree potential.
  Time summed over all CPUs for potential: real work        0.016 s, elapsed        0.016 s
  | RMS charge density error from multipole expansion :   0.926321E-02

  Integrating Hamiltonian matrix: batch-based integration.
  Time summed over all CPUs for integration: real work        0.028 s, elapsed        0.028 s

  Updating Kohn-Sham eigenvalues, eigenvectors, occupation numbers, and Fermi level.
  Solving generalized eigenproblem
  Updating Kohn-Sham eigenvalues and eigenfunctions.
  Solving real generalised eigenvalue problem by standard LAPACK (fast)

  Obtaining occupation numbers and chemical potential using ELSI.
  | Chemical potential (Fermi level):   -12.13996558eV
  Highest occupied state (VBM) at    -18.67172413 eV
  | Occupation number:      2.00000000

  Lowest unoccupied state (CBM) at    -8.18841578 eV
  | Occupation number:      0.00000000

  Overall HOMO-LUMO gap:     10.48330835 eV.

  Total energy components:
  | Sum of eigenvalues            :         -45.63723751 Ha       -1241.85241730 eV
  | XC energy correction          :          -8.80397522 Ha        -239.56835491 eV
  | XC potential correction       :          11.59610524 Ha         315.54607828 eV
  | Free-atom electrostatic energy:         -35.29589028 Ha        -960.45004157 eV
  | Hartree energy correction     :           1.96725384 Ha          53.53170065 eV
  | Entropy correction            :          -0.00000000 Ha          -0.00000000 eV
  | ---------------------------
  | Total energy                  :         -76.17374393 Ha       -2072.79303485 eV
  | Total energy, T -> 0          :         -76.17374393 Ha       -2072.79303485 eV  <-- do not rely on this value for anything but (periodic) metals
  | Electronic free energy        :         -76.17374393 Ha       -2072.79303485 eV

  Derived energy quantities:
  | Kinetic energy                :          75.82801684 Ha        2063.38532206 eV
  | Electrostatic energy          :        -143.19778554 Ha       -3896.61000201 eV
  | Energy correction for multipole
  | error in Hartree potential    :           0.00621946 Ha           0.16924025 eV
  | Sum of eigenvalues per atom                           :        -310.46310433 eV
  | Total energy (T->0) per atom                          :        -518.19825871 eV  <-- do not rely on this value for anything but (periodic) metals
  | Electronic free energy per atom                       :        -518.19825871 eV

  Self-consistency convergence accuracy:
  | Change of charge density      :  0.6946E-06
  | Change of sum of eigenvalues  :  0.7857E-04 eV
  | Change of total energy        : -0.2392E-07 eV

  Electronic self-consistency reached - switching on the force computation.

  End self-consistency iteration #    12       :  max(cpu_time)    wall_clock(cpu1)
  | Time for this iteration                    :        0.059 s           0.059 s
  | Charge density & force component update    :        0.012 s           0.012 s
  | Density mixing                             :        0.001 s           0.001 s
  | Hartree multipole update                   :        0.001 s           0.002 s
  | Hartree multipole summation                :        0.016 s           0.016 s
  | Integration                                :        0.028 s           0.028 s
  | Solution of K.-S. eqns.                    :        0.000 s           0.000 s
  | Total energy evaluation                    :        0.000 s           0.000 s

  Partial memory accounting:
  | Current value for overall tracked memory usage on task 0  :           0.020 MB
  | Peak value for overall tracked memory usage on task 0     :           0.085 MB after allocating wave
  | Largest tracked array allocation on task 0 so far         :           0.019 MB  when allocating H_times_psi
  Note:  These values currently only include a subset of arrays which are explicitly tracked.
  The "true" memory usage will be greater.
------------------------------------------------------------

------------------------------------------------------------
          Begin self-consistency iteration #   13

  Date     :  20190509, Time     :  114710.758
------------------------------------------------------------
  Evaluating new KS density and force components.
  Integration grid: deviation in total charge (<rho> - N_e) =  -8.881784E-15
  Pulay mixing of updated and previous charge densities.

  Evaluating partitioned Hartree potential by multipole expansion.
  | Analytical far-field extrapolation by fixed multipoles:
  | Hartree multipole sum: apparent total charge =   0.999566E+00
  Summing up the Hartree potential.
  Time summed over all CPUs for potential: real work        0.051 s, elapsed        0.051 s
  | RMS charge density error from multipole expansion :   0.926321E-02

  Integrating Hamiltonian matrix: batch-based integration.
  Time summed over all CPUs for integration: real work        0.028 s, elapsed        0.028 s

  Updating Kohn-Sham eigenvalues, eigenvectors, occupation numbers, and Fermi level.
  Solving generalized eigenproblem
  Updating Kohn-Sham eigenvalues and eigenfunctions.
  Solving real generalised eigenvalue problem by standard LAPACK (fast)

  Obtaining occupation numbers and chemical potential using ELSI.
  | Chemical potential (Fermi level):   -12.13996523eV
  Highest occupied state (VBM) at    -18.67172357 eV
  | Occupation number:      2.00000000

  Lowest unoccupied state (CBM) at    -8.18841550 eV
  | Occupation number:      0.00000000

  Overall HOMO-LUMO gap:     10.48330807 eV.

  Total energy components:
  | Sum of eigenvalues            :         -45.63723724 Ha       -1241.85241015 eV
  | XC energy correction          :          -8.80397525 Ha        -239.56835579 eV
  | XC potential correction       :          11.59610528 Ha         315.54607944 eV
  | Free-atom electrostatic energy:         -35.29589028 Ha        -960.45004157 eV
  | Hartree energy correction     :           1.96725357 Ha          53.53169322 eV
  | Entropy correction            :          -0.00000000 Ha          -0.00000000 eV
  | ---------------------------
  | Total energy                  :         -76.17374393 Ha       -2072.79303486 eV
  | Total energy, T -> 0          :         -76.17374393 Ha       -2072.79303486 eV  <-- do not rely on this value for anything but (periodic) metals
  | Electronic free energy        :         -76.17374393 Ha       -2072.79303486 eV

  Derived energy quantities:
  | Kinetic energy                :          75.82801702 Ha        2063.38532706 eV
  | Electrostatic energy          :        -143.19778570 Ha       -3896.61000613 eV
  | Energy correction for multipole
  | error in Hartree potential    :           0.00621947 Ha           0.16924027 eV
  | Sum of eigenvalues per atom                           :        -310.46310254 eV
  | Total energy (T->0) per atom                          :        -518.19825871 eV  <-- do not rely on this value for anything but (periodic) metals
  | Electronic free energy per atom                       :        -518.19825871 eV

  atomic forces [eV/Ang]:
  -----------------------
  atom #    1
   Hellmann-Feynman              : -0.337379E-01  0.207710E-01 -0.882551E+01
   Ionic forces                  :  0.000000E+00  0.000000E+00  0.000000E+00
   Multipole                     :  0.179096E-03 -0.957947E-04 -0.324471E+00
   Pulay                         :  0.961811E-02 -0.608138E-02  0.914056E+01
   ----------------------------------------------------------------
   Total forces(   1)            : -0.239407E-01  0.145938E-01 -0.941964E-02
  atom #    2
   Hellmann-Feynman              :  0.227642E+00 -0.131787E+00  0.142457E+00
   Ionic forces                  :  0.000000E+00  0.000000E+00  0.000000E+00
   Multipole                     :  0.500846E-01 -0.289112E-01  0.627441E-01
   Pulay                         : -0.258504E+00  0.149272E+00 -0.195904E+00
   ----------------------------------------------------------------
   Total forces(   2)            :  0.192231E-01 -0.114262E-01  0.929718E-02
  atom #    3
   Hellmann-Feynman              : -0.205395E+00 -0.121694E+00  0.134642E+00
   Ionic forces                  :  0.000000E+00  0.000000E+00  0.000000E+00
   Multipole                     : -0.498575E-01 -0.288649E-01  0.626946E-01
   Pulay                         :  0.257535E+00  0.148734E+00 -0.196222E+00
   ----------------------------------------------------------------
   Total forces(   3)            :  0.228215E-02 -0.182508E-02  0.111476E-02
  atom #    4
   Hellmann-Feynman              :  0.238464E-02  0.238556E+00  0.134528E+00
   Ionic forces                  :  0.000000E+00  0.000000E+00  0.000000E+00
   Multipole                     :  0.745361E-04  0.575628E-01  0.626483E-01
   Pulay                         : -0.201955E-04 -0.297309E+00 -0.196255E+00
   ----------------------------------------------------------------
   Total forces(   4)            :  0.243898E-02 -0.118978E-02  0.920808E-03


  Self-consistency convergence accuracy:
  | Change of charge density      :  0.3487E-07
  | Change of sum of eigenvalues  :  0.7151E-05 eV
  | Change of total energy        : -0.1263E-08 eV
  | Change of forces              :  0.4586E+01 eV/A

  Writing Kohn-Sham eigenvalues.

  State    Occupation    Eigenvalue [Ha]    Eigenvalue [eV]
      1       2.00000         -19.024201         -517.67485
      2       2.00000          -1.348611          -36.69757
      3       2.00000          -0.879934          -23.94423
      4       2.00000          -0.879699          -23.93783
      5       2.00000          -0.686173          -18.67172
      6       0.00000          -0.300919           -8.18842
      7       0.00000          -0.207051           -5.63415
      8       0.00000          -0.206796           -5.62720
      9       0.00000           0.016582            0.45123
     10       0.00000           0.052395            1.42574
     11       0.00000           0.052410            1.42614
     12       0.00000           0.240533            6.54524
     13       0.00000           0.467540           12.72241

  Highest occupied state (VBM) at    -18.67172357 eV
  | Occupation number:      2.00000000

  Lowest unoccupied state (CBM) at    -8.18841550 eV
  | Occupation number:      0.00000000

  Overall HOMO-LUMO gap:     10.48330807 eV.

  Self-consistency cycle converged.

  End self-consistency iteration #    13       :  max(cpu_time)    wall_clock(cpu1)
  | Time for this iteration                    :        0.123 s           0.123 s
  | Charge density & force component update    :        0.041 s           0.041 s
  | Density mixing                             :        0.001 s           0.001 s
  | Hartree multipole update                   :        0.002 s           0.002 s
  | Hartree multipole summation                :        0.051 s           0.051 s
  | Integration                                :        0.028 s           0.028 s
  | Solution of K.-S. eqns.                    :        0.000 s           0.000 s
  | Total energy evaluation                    :        0.000 s           0.000 s

  Partial memory accounting:
  | Current value for overall tracked memory usage on task 0  :           0.020 MB
  | Peak value for overall tracked memory usage on task 0     :           0.116 MB after allocating h_times_wave
  | Largest tracked array allocation on task 0 so far         :           0.058 MB  when allocating gradient_basis_wave
  Note:  These values currently only include a subset of arrays which are explicitly tracked.
  The "true" memory usage will be greater.
------------------------------------------------------------
  ------------------------------------------------------------
   Computing monopole / dipole moments for complete molecule:
  | Total electronic charge [e]         :          0.100000000090290E+02
  | Total ionic charge [e]              :          0.110000000000000E+02
  | Total charge [e]                    :          0.999999990971004E+00
 * Warning: The system has a total charge of      0.99999999 .
 * The dipole moment depends on the choice of the origin.
  | Total dipole moment [eAng]          :         -0.355252290849511E-04        -0.841320137084945E-06         0.586765076184102E+00
  | Absolute dipole moment              :          0.586765077260129E+00 eAng              /                   0.281791354114460E+01 Debye  .
  Removing unitary transformations (pure translations, rotations) from forces on atoms.
  Atomic forces before filtering:
  | Net force on center of mass :   0.360113E-05  0.152778E-03  0.191311E-02 eV/A
  | Net torque on center of mass:   0.247818E-04  0.428681E-05 -0.791369E-06 eV
  Atomic forces after filtering:
  | Net force on center of mass :   0.174225E-17  0.104535E-17 -0.174225E-18 eV/A
  | Net torque on center of mass:   0.118702E-17  0.161343E-18 -0.368783E-18 eV

  Energy and forces in a compact form:
  | Total energy uncorrected      :         -0.207279303485519E+04 eV
  | Total energy corrected        :         -0.207279303485519E+04 eV  <-- do not rely on this value for anything but (periodic) metals
  | Electronic free energy        :         -0.207279303485519E+04 eV
  Total atomic forces (unitary forces cleaned) [eV/Ang]:
  |   1         -0.239409290558586E-01          0.145519281018790E-01         -0.989791929300472E-02
  |   2          0.192221712475307E-01         -0.114629202388657E-01          0.882970658429085E-02
  |   3          0.228117697904406E-02         -0.186228119168059E-02          0.642306338111157E-03
  |   4          0.243758082928381E-02         -0.122672667133272E-02          0.425906370602711E-03

  ------------------------------------ 
  Start decomposition of the XC Energy 
  ------------------------------------ 
  X and C from original XC functional choice 
  Hartree-Fock Energy :          0.000000000 Ha              0.000000000 eV
  X Energy            :         -8.140334207 Ha           -221.509764055 eV
  C Energy            :         -0.663641048 Ha            -18.058591732 eV
  Total XC Energy     :         -8.803975255 Ha           -239.568355787 eV
  ------------------------------------ 
  LDA X and C from self-consistent density 
  X Energy LDA        :         -8.140334207 Ha           -221.509764055 eV
  C Energy LDA        :         -0.663641048 Ha            -18.058591732 eV
  ------------------------------------ 
  End decomposition of the XC Energy 
  ------------------------------------ 

------------------------------------------------------------

------------------------------------------------------------------------------
  Final output of selected total energy values:

  The following output summarizes some interesting total energy values
  at the end of a run (AFTER all relaxation, molecular dynamics, etc.).

  | Total energy of the DFT / Hartree-Fock s.c.f. calculation      :          -2072.793034855 eV
  | Final zero-broadening corrected energy (caution - metals only) :          -2072.793034855 eV
  | For reference only, the value of 1 Hartree used in FHI-aims is :             27.211384500 eV

  Before relying on these values, please be sure to understand exactly which
  total energy value is referred to by a given number. Different objects may
  all carry the same name 'total energy'. Definitions:

  Total energy of the DFT / Hartree-Fock s.c.f. calculation:
  | Note that this energy does not include ANY quantities calculated after the
  | s.c.f. cycle, in particular not ANY RPA, MP2, etc. many-body perturbation terms.

  Final zero-broadening corrected energy:
  | For metallic systems only, a broadening of the occupation numbers at the Fermi
  | level can be extrapolated back to zero broadening by an electron-gas inspired
  | formula. For all systems that are not real metals, this value can be
  | meaningless and should be avoided.

------------------------------------------------------------------------------
  Methods described in the following list of references were used in this FHI-aims run.
  If you publish the results, please make sure to cite these reference if they apply.
  FHI-aims is an academic code, and for our developers (often, Ph.D. students
  and postdocs), scientific credit in the community is essential.
  Thank you for helping us!

  For any use of FHI-aims, please cite:

    Volker Blum, Ralf Gehrke, Felix Hanke, Paula Havu, Ville Havu,
    Xinguo Ren, Karsten Reuter, and Matthias Scheffler
    'Ab initio molecular simulations with numeric atom-centered orbitals'
    Computer Physics Communications 180, 2175-2196 (2009)
    http://dx.doi.org/10.1016/j.cpc.2009.06.022


  For the real-space grid partitioning and parallelization used in this calculation, please cite:

    Ville Havu, Volker Blum, Paula Havu, and Matthias Scheffler,
    'Efficient O(N) integration for all-electron electronic structure calculation'
    'using numerically tabulated basis functions'
    Journal of Computational Physics 228, 8367-8379 (2009).
    http://dx.doi.org/10.1016/j.jcp.2009.08.008

  Of course, there are many other important community references, e.g., those cited in the
  above references. Our list is limited to references that describe implementations in the
  FHI-aims code. The reason is purely practical (length of this list) - please credit others as well.

------------------------------------------------------------
          Leaving FHI-aims.
          Date     :  20190509, Time     :  114710.896

          Computational steps:
          | Number of self-consistency cycles          :           13
          | Number of SCF (re)initializations          :            1

          Detailed time accounting                     :  max(cpu_time)    wall_clock(cpu1)
          | Total time                                 :        0.993 s           0.993 s
          | Preparation time                           :        0.049 s           0.049 s
          | Boundary condition initalization           :        0.000 s           0.001 s
          | Grid partitioning                          :        0.015 s           0.014 s
          | Preloading free-atom quantities on grid    :        0.001 s           0.001 s
          | Free-atom superposition energy             :        0.012 s           0.012 s
          | Total time for integrations                :        0.415 s           0.414 s
          | Total time for solution of K.-S. equations :        0.003 s           0.003 s
          | Total time for density & force components  :        0.182 s           0.182 s
          | Total time for mixing                      :        0.009 s           0.009 s
          | Total time for Hartree multipole update    :        0.020 s           0.021 s
          | Total time for Hartree multipole sum       :        0.255 s           0.255 s
          | Total time for total energy evaluation     :        0.001 s           0.001 s

 This is a stub MPI_ALLREDUCE call.
 You should not be here. Check your
 setting on the use_mpi variable, or
 link against true MPI-libraries.
