------------------------------------------------------------
          Invoking FHI-aims ...
          Version 171221_1
          Compiled on 2019/05/06 at 14:26:40 on host ffph0xx.

          When using FHI-aims, please cite the following reference:

          Volker Blum, Ralf Gehrke, Felix Hanke, Paula Havu,
          Ville Havu, Xinguo Ren, Karsten Reuter, and Matthias Scheffler,
          'Ab Initio Molecular Simulations with Numeric Atom-Centered Orbitals',
          Computer Physics Communications 180, 2175-2196 (2009)

          For any questions about FHI-aims, please visit the aimsclub website
          with its forums and wiki. Contributions to both the forums and the
          wiki are warmly encouraged - they are for you, and everyone is welcome there.

------------------------------------------------------------



  Date     :  20190508, Time     :  170407.455
  Time zero on CPU 1             :   0.684000000000000E-03  s.
  Internal wall clock time zero  :           326567047.455  s.

  FHI-aims created a unique identifier for this run for later identification
  aims_uuid : D1693AB7-37D5-4E4B-A097-C49A36C4FCD9


  Performing system and environment tests:
  *** Environment variable OMP_NUM_THREADS is not set
  *** For performance reasons you might want to set it to 1
  | Stacksize not measured: no C compiler

  Obtaining array dimensions for all initial allocations:
  
  -----------------------------------------------------------------------
  Parsing control.in (first pass over file, find array dimensions only).
  The contents of control.in will be repeated verbatim below
  unless switched off by setting 'verbatim_writeout .false.' .
  in the first line of control.in .
  -----------------------------------------------------------------------
  
  # Relaxation of the H3O+ molecule
  #--- Method ---
    xc  pw-lda
    charge 1.0 # this gives the cation
    spin none
  
  #######Iteration limit####################
    sc_iter_limit 100
  
  #######Relaxation######################
    ###################relax_geometry trm 1E-3
  
  #######Species#########################
  ################################################################################
  #
  #  FHI-aims code project
  #  VB, Fritz-Haber Institut, 2009
  #
  #  Suggested "light" defaults for H atom (to be pasted into control.in file)
  #  Be sure to double-check any results obtained with these settings for post-processing,
  #  e.g., with the "tight" defaults and larger basis sets.
  #
  ################################################################################
    species        H
  #     global species definitions
      nucleus             1
      mass                1.00794
  #
      l_hartree           4
  #
      cut_pot             3.5  1.5  1.0
      basis_dep_cutoff    1e-4
  #
      radial_base         24 5.0
      radial_multiplier   1
      angular_grids       specified
        division   0.2421   50
        division   0.3822  110
        division   0.4799  194
        division   0.5341  302
  #      division   0.5626  434
  #      division   0.5922  590
  #      division   0.6542  770
  #      division   0.6868 1202
  #      outer_grid  770
        outer_grid  302
  ################################################################################
  #
  #  Definition of "minimal" basis
  #
  ################################################################################
  #     valence basis states
      valence      1  s   1.
  #     ion occupancy
      ion_occ      1  s   0.5
  ################################################################################
  #
  #  Suggested additional basis functions. For production calculations,
  #  uncomment them one after another (the most important basis functions are
  #  listed first).
  #
  #  Basis constructed for dimers: 0.5 A, 0.7 A, 1.0 A, 1.5 A, 2.5 A
  #
  ################################################################################
  #  "First tier" - improvements: -1014.90 meV to -62.69 meV
       hydro 2 s 2.1
       hydro 2 p 3.5
  #  "Second tier" - improvements: -12.89 meV to -1.83 meV
  #     hydro 1 s 0.85
  #     hydro 2 p 3.7
  #     hydro 2 s 1.2
  #     hydro 3 d 7
  #  "Third tier" - improvements: -0.25 meV to -0.12 meV
  #     hydro 4 f 11.2
  #     hydro 3 p 4.8
  #     hydro 4 d 9
  #     hydro 3 s 3.2
  ################################################################################
  #
  #  FHI-aims code project
  #  VB, Fritz-Haber Institut, 2009
  #
  #  Suggested "light" defaults for O atom (to be pasted into control.in file)
  #  Be sure to double-check any results obtained with these settings for post-processing,
  #  e.g., with the "tight" defaults and larger basis sets.
  #
  ################################################################################
    species        O
  #     global species definitions
      nucleus             8
      mass                15.9994
  #
      l_hartree           4
  #
      cut_pot             3.5  1.5  1.0
      basis_dep_cutoff    1e-4
  #
      radial_base         36 5.0
      radial_multiplier   1
       angular_grids specified
        division   0.2659   50
        division   0.4451  110
        division   0.6052  194
        division   0.7543  302
  #      division   0.8014  434
  #      division   0.8507  590
  #      division   0.8762  770
  #      division   0.9023  974
  #      division   1.2339 1202
  #      outer_grid 974
        outer_grid 302
  ################################################################################
  #
  #  Definition of "minimal" basis
  #
  ################################################################################
  #     valence basis states
      valence      2  s   2.
      valence      2  p   4.
  #     ion occupancy
      ion_occ      2  s   1.
      ion_occ      2  p   3.
  ################################################################################
  #
  #  Suggested additional basis functions. For production calculations,
  #  uncomment them one after another (the most important basis functions are
  #  listed first).
  #
  #  Constructed for dimers: 1.0 A, 1.208 A, 1.5 A, 2.0 A, 3.0 A
  #
  ################################################################################
  #  "First tier" - improvements: -699.05 meV to -159.38 meV
       hydro 2 p 1.8
       hydro 3 d 7.6
       hydro 3 s 6.4
  #  "Second tier" - improvements: -49.91 meV to -5.39 meV
  #     hydro 4 f 11.6
  #     hydro 3 p 6.2
  #     hydro 3 d 5.6
  #     hydro 5 g 17.6
  #     hydro 1 s 0.75
  #  "Third tier" - improvements: -2.83 meV to -0.50 meV
  #     ionic 2 p auto
  #     hydro 4 f 10.8
  #     hydro 4 d 4.7
  #     hydro 2 s 6.8
  #  "Fourth tier" - improvements: -0.40 meV to -0.12 meV
  #     hydro 3 p 5
  #     hydro 3 s 3.3
  #     hydro 5 g 15.6
  #     hydro 4 f 17.6
  #     hydro 4 d 14
  # Further basis functions - -0.08 meV and below
  #     hydro 3 s 2.1
  #     hydro 4 d 11.6
  #     hydro 3 p 16
  #     hydro 2 s 17.2
  /afs/ictp.it/public/shared/smr2475/fhi-aims/species_defaults/light/01_H_default
  compute_forces .true.
  final_forces_cleaned .true.
  output dipole
  
  -----------------------------------------------------------------------
  Completed first pass over input file control.in .
  -----------------------------------------------------------------------
  
  
  -----------------------------------------------------------------------
  Parsing geometry.in (first pass over file, find array dimensions only).
  The contents of geometry.in will be repeated verbatim below
  unless switched off by setting 'verbatim_writeout .false.' .
  in the first line of geometry.in .
  -----------------------------------------------------------------------
  
  #
  # temporary structure-file for finite-difference calculation of forces
  # displacement  -0.0020 of \# atom     3 direction     0
  #
  atom   -0.00000000   -0.00002910    0.00000000   O
  atom    0.85488761   -0.49352200   -0.00000000   H
  atom   -0.85488761   -0.49352200   -0.00000000   H
  atom   -0.00200000    0.98707310   -0.00000000   H
  
  -----------------------------------------------------------------------
  Completed first pass over input file geometry.in .
  -----------------------------------------------------------------------
  

  Basic array size parameters:
  | Number of species                 :        2
  | Number of atoms                   :        4
  | Max. basis fn. angular momentum   :        2
  | Max. atomic/ionic basis occupied n:        2
  | Max. number of basis fn. types    :        2
  | Max. radial fns per species/type  :        3
  | Max. logarithmic grid size        :     1301
  | Max. radial integration grid size :       36
  | Max. angular integration grid size:      302
  | Max. angular grid division number :        8
  | Radial grid for Hartree potential :     1301
  | Number of spin channels           :        1

------------------------------------------------------------
          Reading file control.in.
------------------------------------------------------------
  XC: Using Perdew-Wang parametrisation of Ceperley-Alder LDA.
  Charged system requested: Charge =   0.100000E+01.
  Spin treatment: No spin polarisation.
  Maximum number of s.-c. iterations  :   100

  Reading configuration options for species H                   .
  | Found nuclear charge :   1.0000
  | Found atomic mass :    1.0079400000000001      amu
  | Found l_max for Hartree potential  :   4
  | Found cutoff potl. onset [A], width [A], scale factor :    3.50000    1.50000    1.00000
  | Threshold for basis-dependent cutoff potential is   0.100000E-03
  | Found data for basic radial integration grid :    24 points, outermost radius =    5.000 A
  | Found multiplier for basic radial grid :   1
  | Found angular grid specification: user-specified.
  | Specified grid contains     5 separate shells.
  | Check grid settings after all constraints further below.
  | Found free-atom valence shell :  1 s   1.000
  | No ionic wave fns used. Skipping ion_occ.
  | Found hydrogenic basis function :  2 s   2.100
  | Found hydrogenic basis function :  2 p   3.500
  Species H                   : Missing cutoff potential type.
  Defaulting to exp(1/x)/(1-x)^2 type cutoff potential.
  Species H : No 'logarithmic' tag. Using default grid for free atom:
  | Default logarithmic grid data [bohr] : 0.1000E-03 0.1000E+03 0.1012E+01
  Species H : On-site basis accuracy parameter (for Gram-Schmidt orthonormalisation) not specified.
  Using default value basis_acc =  0.1000000E-03.
  Species H                   : Using default innermost maximum threshold i_radial=  2 for radial functions.
  Species H                   : Default cutoff onset for free atom density etc. : 0.35000000E+01 AA.
  Species H                   : Basic radial grid will be enhanced according to radial_multiplier =   1, to contain    24 grid points.

  Reading configuration options for species O                   .
  | Found nuclear charge :   8.0000
  | Found atomic mass :    15.999400000000000      amu
  | Found l_max for Hartree potential  :   4
  | Found cutoff potl. onset [A], width [A], scale factor :    3.50000    1.50000    1.00000
  | Threshold for basis-dependent cutoff potential is   0.100000E-03
  | Found data for basic radial integration grid :    36 points, outermost radius =    5.000 A
  | Found multiplier for basic radial grid :   1
  | Found angular grid specification: user-specified.
  | Specified grid contains     5 separate shells.
  | Check grid settings after all constraints further below.
  | Found free-atom valence shell :  2 s   2.000
  | Found free-atom valence shell :  2 p   4.000
  | No ionic wave fns used. Skipping ion_occ.
  | No ionic wave fns used. Skipping ion_occ.
  | Found hydrogenic basis function :  2 p   1.800
  | Found hydrogenic basis function :  3 d   7.600
  | Found hydrogenic basis function :  3 s   6.400
  Species O                   : Missing cutoff potential type.
  Defaulting to exp(1/x)/(1-x)^2 type cutoff potential.
  Species O : No 'logarithmic' tag. Using default grid for free atom:
  | Default logarithmic grid data [bohr] : 0.1000E-03 0.1000E+03 0.1012E+01
  Species O : On-site basis accuracy parameter (for Gram-Schmidt orthonormalisation) not specified.
  Using default value basis_acc =  0.1000000E-03.
  Species O                   : Using default innermost maximum threshold i_radial=  2 for radial functions.
  Species O                   : Default cutoff onset for free atom density etc. : 0.35000000E+01 AA.
  Species O                   : Basic radial grid will be enhanced according to radial_multiplier =   1, to contain    36 grid points.
  Forces will be computed.
  Cleaning forces before final output.
  Dipole moment will be written out.

  Finished reading input file 'control.in'. Consistency checks are next.

  MPI_IN_PLACE appears to work with this MPI implementation.
  | Keeping use_mpi_in_place .true. (see manual).
  Target number of points in a grid batch is not set. Defaulting to  100
  Method for grid partitioning is not set. Defaulting to 'maxmin' partitioning.
  Batch size limit is not set. Defaulting to    200
  By default, will store active basis functions for each batch.
  If in need of memory, prune_basis_once .false. can be used to disable this option.
  communication_type for Hartree potential was not specified.
  Defaulting to calc_hartree .
 * Attention: 
 * You may want to set distributed_spline_storage to .true. in order to save memory.
 * This doesn't harm performance and is perfectly ok unless:
 * - you get error messages in postprocessing (about missing atoms in get_rho_multipole_spl)
 * - you need full spline storage in hirshfeld_analysis
  Defaulting to Pulay charge density mixer.
  Pulay mixer: Number of relevant iterations not set.
  Defaulting to    8 iterations.
  Pulay mixer: Number of initial linear mixing iterations not set.
  Defaulting to    0 iterations.
  Work space size for distributed Hartree potential not set.
  Defaulting to   0.200000E+03 MB.
  Mixing parameter for charge density mixing has not been set.
  Using default: charge_mix_param =     0.0500.
  The mixing parameter will be adjusted in iteration number     2 of the first full s.c.f. cycle only.
  Algorithm-dependent basis array size parameters:
  | n_max_pulay                         :        8
 * Notice: The s.c.f. convergence criterion sc_accuracy_rho was not provided.
 * We used to stop in this case, and ask the user to provide reasonable
 * scf convergence criteria. However, this led some users to employ criteria
 * that led to extremely long run times, e.g., for simple relaxation.
 * We now preset a default value for sc_accuracy_rho if it is not set.
 * You may still wish to check if this setting is too tight or too loose for your needs.
 * Based on n_atoms, FHI-aims chose sc_accuracy_rho =  0.100000E-05 .
  Presetting      1001 iterations before the initial mixing cycle
  is restarted anyway using the sc_init_iter criterion / keyword.
  Presetting a factor      1.000 between actual scf density residual
  and density convergence criterion sc_accuracy_rho below which sc_init_iter
  takes no effect.
 * No s.c.f. convergence criteria (sc_accuracy_*) were provided in control.in.
 * The run will proceed with a reasonable default guess, but please check whether.
 * the s.c.f. cycles seem to take too much or too little time.
  Geometry relaxation not requested: no relaxation will be performed.
  Force calculation: scf convergence accuracy of forces not set.
  Defaulting to 'sc_accuracy_forces not_checked'.
  Handling of forces: Unphysical translation and rotation will be removed from forces.
  No accuracy limit for integral partition fn. given. Defaulting to  0.1000E-14.
  No threshold value for u(r) in integrations given. Defaulting to  0.1000E-05.
  No occupation type (smearing scheme) given. Defaulting to Gaussian broadening, width =  0.1000E-01 eV.
  The width will be adjusted in iteration number     2 of the first full s.c.f. cycle only.
  S.C.F. convergence parameters will be adjusted in iteration number     2 of the first full s.c.f. cycle only.
  No accuracy for occupation numbers given. Defaulting to  0.1000E-12.
  No threshold value for occupation numbers given. Defaulting to  0.0000E+00.
  No accuracy for fermi level given. Defaulting to  0.1000E-19.
  Maximum # of iterations to find E_F not set. Defaulting to  200.
  Preferred method for the eigenvalue solver ('KS_method') not specified in 'control.in'.
  Defaulting to serial version, 'lapack_fast'.
  Will not use alltoall communication since running on < 1024 CPUs.
  Threshold for basis singularities not set.
  Default threshold for basis singularities:  0.1000E-04
  partition_type (choice of integration weights) for integrals was not specified.
  | Using a version of the partition function of Stratmann and coworkers ('stratmann_smoother').
  | At each grid point, the set of atoms used to build the partition table is smoothly restricted to
  | only those atoms whose free-atom density would be non-zero at that grid point.
  Partitioning for Hartree potential was not defined. Using partition_type for integrals.
  | Adjusted default value of keyword multip_moments_threshold to:       0.10000000E-11
  | This value may affect high angular momentum components of the Hartree potential in periodic systems.
  No q(lm)/r^(l+1) cutoff set for long-range Hartree potential.
  | Using default value of  0.100000E-09 .
  | Verify using the multipole_threshold keyword.
  Defaulting to new monopole extrapolation.
  Density update method: automatic selection selected.
------------------------------------------------------------


------------------------------------------------------------
          Reading geometry description geometry.in.
------------------------------------------------------------
 * Warning: Initial charge and total charge of the system are inconsistent.
 * Selected charge in control.in:     1.0000* Sum of initial charges in geometry.in:     0.0000
 * Warning! You did not set the 'relativistic' flag in input file 'control.in'.
 * Since you are not attempting to treat any elements beyond Ca(Z=20), FHI-aims
 * will default to 'relativistic none'.
 * You must ensure that this is really what you want!!
 * For example, DO NOT compute total-energy differences between results from
 * different settings of the 'relativistic' flag.
  Input structure read successfully.
  The structure contains        4 atoms,  and a total of         10.000 electrons.

  Input geometry:
  | No unit cell requested.
  | Atomic structure:
  |       Atom                x [A]            y [A]            z [A]
  |    1: Species O            -0.00000000       -0.00002910        0.00000000
  |    2: Species H             0.85488761       -0.49352200       -0.00000000
  |    3: Species H            -0.85488761       -0.49352200       -0.00000000
  |    4: Species H            -0.00200000        0.98707310       -0.00000000
  |

  | The smallest distance between any two atoms is         0.98710084 AA.
  |
  | The first atom of this pair is atom number                      1 .
  | The second atom of this pair is atom number                     2 .

  Number of empty states per atom not set in control.in - providing a guess from actual geometry.
  | Total number of empty states used during s.c.f. cycle:        8
  If you use a very high smearing, use empty_states (per atom!) in control.in to increase this value.

  Structure-dependent array size parameters: 
  | Maximum number of distinct radial functions  :        9
  | Maximum number of basis functions            :       29
  | Number of Kohn-Sham states (occupied + empty):       13
------------------------------------------------------------

------------------------------------------------------------
          Preparing all fixed parts of the calculation.
------------------------------------------------------------
  Determining machine precision:
     2.2250738585072014E-308
  Setting up grids for atomic and cluster calculations.

  Creating wave function, potential, and density for free atoms.

  Species: H

  List of occupied orbitals and eigenvalues:
    n    l              occ      energy [Ha]    energy [eV]
    1    0           1.0000        -0.232375        -6.3233


  Species: O

  List of occupied orbitals and eigenvalues:
    n    l              occ      energy [Ha]    energy [eV]
    1    0           2.0000       -18.757744      -510.4242
    2    0           2.0000        -0.870917       -23.6989
    2    1           4.0000        -0.337950        -9.1961

  Creating fixed part of basis set: Ionic, confined, hydrogenic.

  H                    hydrogenic:

  List of hydrogenic basis orbitals: 
    n    l      effective z      eigenvalue [eV]  inner max. [A]     outer max. [A]     outer radius [A]   
    2    0         2.100000       -14.9728           0.193243           1.317208           4.583499
    2    1         3.500000       -41.6669           0.602369           0.602369           3.723403


  O                    hydrogenic:

  List of hydrogenic basis orbitals: 
    n    l      effective z      eigenvalue [eV]  inner max. [A]     outer max. [A]     outer radius [A]   
    2    1         1.800000       -10.9749           1.164242           1.164242           4.578029
    3    2         7.600000       -87.3180           0.624125           0.624125           3.251020
    3    0         6.400000       -61.9207           0.061167           1.081902           4.001998


  Adding cutoff potential to free-atom effective potential.
  Creating atomic-like basis functions for current effective potential.

  Species H                   :

  List of atomic basis orbitals and eigenvalues:
    n    l      energy [Ha]    energy [eV]    outer radius [A]
    1    0        -0.232375        -6.3233       4.527807


  Species O                   :

  List of atomic basis orbitals and eigenvalues:
    n    l      energy [Ha]    energy [eV]    outer radius [A]
    1    0       -18.757744      -510.4242       1.433179
    2    0        -0.870917       -23.6989       4.413171
    2    1        -0.337950        -9.1961       4.522403

  Assembling full basis from fixed parts.
  | Species H :   atomic orbital   1 s accepted.
  | Species H :    hydro orbital   2 s accepted.
  | Species H :    hydro orbital   2 p accepted.
  | Species O :   atomic orbital   1 s accepted.
  | Species O :    hydro orbital   3 s accepted.
  | Species O :   atomic orbital   2 s accepted.
  | Species O :   atomic orbital   2 p accepted.
  | Species O :    hydro orbital   2 p accepted.
  | Species O :    hydro orbital   3 d accepted.

  Basis size parameters after reduction:
  | Total number of radial functions:        9
  | Total number of basis functions :       29

  Per-task memory consumption for arrays in subroutine allocate_ext:
  |           2.249476MB.
  Testing on-site integration grid accuracy.
  |  Species  Function  <phi|h_atom|phi> (log., in eV)  <phi|h_atom|phi> (rad., in eV)
           1        1                 -6.3245358373                 -6.3232436907
           1        2                 14.1326137532                 14.1384481100
           1        3                 25.3627025200                 25.3628451197
           2        4               -510.4241781769               -510.4240769412
           2        5                 14.9072942218                 14.9072945276
           2        6                -21.2004736467                -21.2005650544
           2        7                 -9.1962086499                 -9.1963509828
           2        8                  8.1896755011                  8.1702200086
           2        9                 45.7920584945                 45.7920228528

  Preparing densities etc. for the partition functions (integrals / Hartree potential).

  Preparations completed.
  max(cpu_time)          :      0.047 s.
  Wall clock time (cpu1) :      0.047 s.
------------------------------------------------------------

------------------------------------------------------------
          Begin self-consistency loop: Initialization.

          Date     :  20190508, Time     :  170407.503
------------------------------------------------------------

  Initializing index lists of integration centers etc. from given atomic structure:
  | Number of centers in hartree potential         :         4
  | Number of centers in hartree multipole         :         4
  | Number of centers in electron density summation:         4
  | Number of centers in basis integrals           :         4
  | Number of centers in integrals                 :         4
  | Number of centers in hamiltonian               :         4
  Partitioning the integration grid into batches with maxmin method.
  | Maximal weight for a single point:     1.000
  | Minimal weight for a single point:     0.000
  | Number of batches:      256
  | Maximal batch size:      89
  | Minimal batch size:      72
  | Average batch size:      80.719
  | Standard deviation of batch sizes:       6.449
  Initializing partition tables, free-atom densities, potentials, etc. across the integration grid (initialize_grid_storage).
  | initialize_grid_storage: Actual outermost partition radius vs. multipole_radius_free
  | (-- VB: in principle, multipole_radius_free should be larger, hence this output)
  | Species        1: Confinement radius =              4.999999999999999 AA, multipole_radius_free =              5.054417573612229 AA.
  | Species        1: outer_partition_radius set to              5.054417573612229 AA .
  | Species        2: Confinement radius =              4.999999999999999 AA, multipole_radius_free =              5.048384829883283 AA.
  | Species        2: outer_partition_radius set to              5.048384829883283 AA .
  | Original list of interatomic distances with           4 x          4 entries is created.
  | Net number of integration points:    20664
  | of which are non-zero points    :    18433
  Renormalizing the initial density to the exact electron count on the 3D integration grid.
  | Initial density: Formal number of electrons (from input files) :      11.0000000000
  | Integrated number of electrons on 3D grid     :      10.9999408063
  | Charge integration error                      :      -0.0000591937
  | Normalization factor for density and gradient :       1.0000053813
  Obtaining max. number of non-zero basis functions in each batch (get_n_compute_maxes).
  | Maximal number of non-zero basis functions:       29 in task     0
  Selecting the method for density update.
  Loop over occupied states selected for charge density update.
  Allocating        0.003 MB for KS_eigenvector
  Integrating Hamiltonian matrix: batch-based integration.
  Time summed over all CPUs for integration: real work        0.028 s, elapsed        0.028 s
  Integrating overlap matrix.
  Time summed over all CPUs for integration: real work        0.015 s, elapsed        0.015 s

  Updating Kohn-Sham eigenvalues, eigenvectors, occupation numbers, and Fermi level.
  Solving generalized eigenproblem
  Updating Kohn-Sham eigenvalues and eigenfunctions.
  Transforming overlap matrix and checking for singularities.
  Overlap matrix is nonsingular:
  | Lowest eigenvalue:  0.120429E-01
  Solving real generalised eigenvalue problem by standard LAPACK (fast)

  Obtaining occupation numbers and chemical potential using ELSI.
  | Chemical potential (Fermi level):    -6.56386006eV
  Writing Kohn-Sham eigenvalues.

  State    Occupation    Eigenvalue [Ha]    Eigenvalue [eV]
      1       2.00000         -18.914966         -514.70242
      2       2.00000          -1.148409          -31.24979
      3       2.00000          -0.685302          -18.64801
      4       2.00000          -0.684924          -18.63772
      5       2.00000          -0.491911          -13.38559
      6       0.00000          -0.091629           -2.49336
      7       0.00000           0.005496            0.14955
      8       0.00000           0.005573            0.15165
      9       0.00000           0.209700            5.70623
     10       0.00000           0.264741            7.20396
     11       0.00000           0.265261            7.21812
     12       0.00000           0.427824           11.64167
     13       0.00000           0.677164           18.42656

  Highest occupied state (VBM) at    -13.38558583 eV
  | Occupation number:      2.00000000

  Lowest unoccupied state (CBM) at    -2.49336176 eV
  | Occupation number:      0.00000000

  Overall HOMO-LUMO gap:     10.89222406 eV.
  Calculating total energy contributions from superposition of free atom densities.

  Total energy components:
  | Sum of eigenvalues            :         -43.85102361 Ha       -1193.24706427 eV
  | XC energy correction          :          -8.86463209 Ha        -241.21891219 eV
  | XC potential correction       :          11.67267551 Ha         317.62966155 eV
  | Free-atom electrostatic energy:         -35.26806404 Ha        -959.69285111 eV
  | Hartree energy correction     :          -0.00000000 Ha          -0.00000000 eV
  | Entropy correction            :          -0.00000000 Ha          -0.00000000 eV
  | ---------------------------
  | Total energy                  :         -76.31104423 Ha       -2076.52916602 eV
  | Total energy, T -> 0          :         -76.31104423 Ha       -2076.52916602 eV  <-- do not rely on this value for anything but (periodic) metals
  | Electronic free energy        :         -76.31104423 Ha       -2076.52916602 eV

  Derived energy quantities:
  | Kinetic energy                :          75.66659590 Ha        2058.99283489 eV
  | Electrostatic energy          :        -143.11300804 Ha       -3894.30308872 eV
  | Energy correction for multipole
  | error in Hartree potential    :           0.00000000 Ha           0.00000000 eV
  | Sum of eigenvalues per atom                           :        -298.31176607 eV
  | Total energy (T->0) per atom                          :        -519.13229150 eV  <-- do not rely on this value for anything but (periodic) metals
  | Electronic free energy per atom                       :        -519.13229150 eV
  Initialize hartree_potential_storage
  Max. number of atoms included in rho_multipole:            4

  End scf initialization - timings             :  max(cpu_time)    wall_clock(cpu1)
  | Time for scf. initialization               :        0.083 s           0.084 s
  | Boundary condition initialization          :        0.000 s           0.000 s
  | Integration                                :        0.043 s           0.043 s
  | Solution of K.-S. eqns.                    :        0.001 s           0.001 s
  | Grid partitioning                          :        0.014 s           0.014 s
  | Preloading free-atom quantities on grid    :        0.001 s           0.001 s
  | Free-atom superposition energy             :        0.013 s           0.012 s
  | Total energy evaluation                    :        0.000 s           0.001 s

  Partial memory accounting:
  | Current value for overall tracked memory usage on task 0  :           0.017 MB
  | Peak value for overall tracked memory usage on task 0     :           0.079 MB after allocating wave
  | Largest tracked array allocation on task 0 so far         :           0.021 MB  when allocating H_times_psi
  Note:  These values currently only include a subset of arrays which are explicitly tracked.
  The "true" memory usage will be greater.
------------------------------------------------------------

------------------------------------------------------------
          Begin self-consistency iteration #    1

  Date     :  20190508, Time     :  170407.587
------------------------------------------------------------
  Evaluating new KS density.
  Integration grid: deviation in total charge (<rho> - N_e) =  -8.881784E-15
  Pulay mixing of updated and previous charge densities.

  Evaluating partitioned Hartree potential by multipole expansion.
  | Analytical far-field extrapolation by fixed multipoles:
  | Hartree multipole sum: apparent total charge =   0.499203E-01
  Summing up the Hartree potential.
  Time summed over all CPUs for potential: real work        0.017 s, elapsed        0.017 s
  | RMS charge density error from multipole expansion :   0.542171E-03

  Integrating Hamiltonian matrix: batch-based integration.
  Time summed over all CPUs for integration: real work        0.028 s, elapsed        0.028 s

  Updating Kohn-Sham eigenvalues, eigenvectors, occupation numbers, and Fermi level.
  Solving generalized eigenproblem
  Updating Kohn-Sham eigenvalues and eigenfunctions.
  Solving real generalised eigenvalue problem by standard LAPACK (fast)

  Obtaining occupation numbers and chemical potential using ELSI.
  | Chemical potential (Fermi level):    -6.76714460eV
  Writing Kohn-Sham eigenvalues.

  State    Occupation    Eigenvalue [Ha]    Eigenvalue [eV]
      1       2.00000         -18.904023         -514.40464
      2       2.00000          -1.151726          -31.34006
      3       2.00000          -0.690202          -18.78136
      4       2.00000          -0.689821          -18.77099
      5       2.00000          -0.493995          -13.44230
      6       0.00000          -0.101669           -2.76656
      7       0.00000          -0.003745           -0.10190
      8       0.00000          -0.003664           -0.09971
      9       0.00000           0.202677            5.51511
     10       0.00000           0.254593            6.92783
     11       0.00000           0.255108            6.94183
     12       0.00000           0.417573           11.36274
     13       0.00000           0.668788           18.19863

  Highest occupied state (VBM) at    -13.44229570 eV
  | Occupation number:      2.00000000

  Lowest unoccupied state (CBM) at    -2.76656251 eV
  | Occupation number:      0.00000000

  Overall HOMO-LUMO gap:     10.67573319 eV.

  Total energy components:
  | Sum of eigenvalues            :         -43.85953644 Ha       -1193.47871019 eV
  | XC energy correction          :          -8.86852544 Ha        -241.32485558 eV
  | XC potential correction       :          11.67802852 Ha         317.77532438 eV
  | Free-atom electrostatic energy:         -35.26806404 Ha        -959.69285111 eV
  | Hartree energy correction     :           0.02511213 Ha           0.68333580 eV
  | Entropy correction            :          -0.00000000 Ha          -0.00000000 eV
  | ---------------------------
  | Total energy                  :         -76.29298527 Ha       -2076.03775670 eV
  | Total energy, T -> 0          :         -76.29298527 Ha       -2076.03775670 eV  <-- do not rely on this value for anything but (periodic) metals
  | Electronic free energy        :         -76.29298527 Ha       -2076.03775670 eV

  Derived energy quantities:
  | Kinetic energy                :          75.76004902 Ha        2061.53582373 eV
  | Electrostatic energy          :        -143.18450885 Ha       -3896.24872485 eV
  | Energy correction for multipole
  | error in Hartree potential    :           0.00057081 Ha           0.01553242 eV
  | Sum of eigenvalues per atom                           :        -298.36967755 eV
  | Total energy (T->0) per atom                          :        -519.00943918 eV  <-- do not rely on this value for anything but (periodic) metals
  | Electronic free energy per atom                       :        -519.00943918 eV

  Self-consistency convergence accuracy:
  | Change of charge density      :  0.2702E+00
  | Change of sum of eigenvalues  : -0.2316E+00 eV
  | Change of total energy        :  0.4914E+00 eV

  End self-consistency iteration #     1       :  max(cpu_time)    wall_clock(cpu1)
  | Time for this iteration                    :        0.060 s           0.060 s
  | Charge density update                      :        0.013 s           0.013 s
  | Density mixing                             :        0.000 s           0.000 s
  | Hartree multipole update                   :        0.001 s           0.001 s
  | Hartree multipole summation                :        0.017 s           0.017 s
  | Integration                                :        0.028 s           0.028 s
  | Solution of K.-S. eqns.                    :        0.000 s           0.001 s
  | Total energy evaluation                    :        0.000 s           0.000 s

  Partial memory accounting:
  | Current value for overall tracked memory usage on task 0  :           0.017 MB
  | Peak value for overall tracked memory usage on task 0     :           0.086 MB after allocating wave
  | Largest tracked array allocation on task 0 so far         :           0.021 MB  when allocating H_times_psi
  Note:  These values currently only include a subset of arrays which are explicitly tracked.
  The "true" memory usage will be greater.
------------------------------------------------------------

------------------------------------------------------------
          Begin self-consistency iteration #    2

  Date     :  20190508, Time     :  170407.647
------------------------------------------------------------
  Evaluating new KS density.
  Integration grid: deviation in total charge (<rho> - N_e) =  -3.552714E-15
  Pulay mixing of updated and previous charge densities.

  Evaluating partitioned Hartree potential by multipole expansion.
  | Analytical far-field extrapolation by fixed multipoles:
  | Hartree multipole sum: apparent total charge =   0.445015E+00
  Summing up the Hartree potential.
  Time summed over all CPUs for potential: real work        0.017 s, elapsed        0.017 s
  | RMS charge density error from multipole expansion :   0.477028E-02

  Integrating Hamiltonian matrix: batch-based integration.
  Time summed over all CPUs for integration: real work        0.029 s, elapsed        0.029 s

  Updating Kohn-Sham eigenvalues, eigenvectors, occupation numbers, and Fermi level.
  Solving generalized eigenproblem
  Updating Kohn-Sham eigenvalues and eigenfunctions.
  Solving real generalised eigenvalue problem by standard LAPACK (fast)

  Obtaining occupation numbers and chemical potential using ELSI.
  | Chemical potential (Fermi level):    -8.41224617eV
  Highest occupied state (VBM) at    -14.14208936 eV
  | Occupation number:      2.00000000

  Lowest unoccupied state (CBM) at    -4.89485533 eV
  | Occupation number:      0.00000000

  Overall HOMO-LUMO gap:      9.24723403 eV.

  Checking to see if s.c.f. parameters should be adjusted.
  The system likely has a gap. Increased the default Pulay mixing parameter (charge_mix_param). Value:   0.200000 .
  Kept the default occupation width. Value:   0.010000 eV.

  Total energy components:
  | Sum of eigenvalues            :         -44.03124499 Ha       -1198.15113734 eV
  | XC energy correction          :          -8.89836731 Ha        -242.13689420 eV
  | XC potential correction       :          11.71903144 Ha         318.89107054 eV
  | Free-atom electrostatic energy:         -35.26806404 Ha        -959.69285111 eV
  | Hartree energy correction     :           0.27434157 Ha           7.46521385 eV
  | Entropy correction            :          -0.00000000 Ha          -0.00000000 eV
  | ---------------------------
  | Total energy                  :         -76.20430332 Ha       -2073.62459826 eV
  | Total energy, T -> 0          :         -76.20430332 Ha       -2073.62459826 eV  <-- do not rely on this value for anything but (periodic) metals
  | Electronic free energy        :         -76.20430332 Ha       -2073.62459826 eV

  Derived energy quantities:
  | Kinetic energy                :          76.33225602 Ha        2077.10636837 eV
  | Electrostatic energy          :        -143.63819204 Ha       -3908.59407243 eV
  | Energy correction for multipole
  | error in Hartree potential    :           0.00478228 Ha           0.13013251 eV
  | Sum of eigenvalues per atom                           :        -299.53778433 eV
  | Total energy (T->0) per atom                          :        -518.40614956 eV  <-- do not rely on this value for anything but (periodic) metals
  | Electronic free energy per atom                       :        -518.40614956 eV

  Self-consistency convergence accuracy:
  | Change of charge density      :  0.2442E+00
  | Change of sum of eigenvalues  : -0.4672E+01 eV
  | Change of total energy        :  0.2413E+01 eV

  End self-consistency iteration #     2       :  max(cpu_time)    wall_clock(cpu1)
  | Time for this iteration                    :        0.059 s           0.059 s
  | Charge density update                      :        0.011 s           0.011 s
  | Density mixing                             :        0.000 s           0.001 s
  | Hartree multipole update                   :        0.001 s           0.001 s
  | Hartree multipole summation                :        0.017 s           0.017 s
  | Integration                                :        0.029 s           0.029 s
  | Solution of K.-S. eqns.                    :        0.000 s           0.000 s
  | Total energy evaluation                    :        0.000 s           0.000 s

  Partial memory accounting:
  | Current value for overall tracked memory usage on task 0  :           0.018 MB
  | Peak value for overall tracked memory usage on task 0     :           0.087 MB after allocating wave
  | Largest tracked array allocation on task 0 so far         :           0.021 MB  when allocating H_times_psi
  Note:  These values currently only include a subset of arrays which are explicitly tracked.
  The "true" memory usage will be greater.
------------------------------------------------------------

------------------------------------------------------------
          Begin self-consistency iteration #    3

  Date     :  20190508, Time     :  170407.706
------------------------------------------------------------
  Evaluating new KS density.
  Integration grid: deviation in total charge (<rho> - N_e) =   1.776357E-15
  Pulay mixing of updated and previous charge densities.

  Evaluating partitioned Hartree potential by multipole expansion.
  | Analytical far-field extrapolation by fixed multipoles:
  | Hartree multipole sum: apparent total charge =   0.845521E+00
  Summing up the Hartree potential.
  Time summed over all CPUs for potential: real work        0.017 s, elapsed        0.017 s
  | RMS charge density error from multipole expansion :   0.869215E-02

  Integrating Hamiltonian matrix: batch-based integration.
  Time summed over all CPUs for integration: real work        0.029 s, elapsed        0.029 s

  Updating Kohn-Sham eigenvalues, eigenvectors, occupation numbers, and Fermi level.
  Solving generalized eigenproblem
  Updating Kohn-Sham eigenvalues and eigenfunctions.
  Solving real generalised eigenvalue problem by standard LAPACK (fast)

  Obtaining occupation numbers and chemical potential using ELSI.
  | Chemical potential (Fermi level):   -11.25438027eV
  Highest occupied state (VBM) at    -17.60639016 eV
  | Occupation number:      2.00000000

  Lowest unoccupied state (CBM) at    -7.50114403 eV
  | Occupation number:      0.00000000

  Overall HOMO-LUMO gap:     10.10524613 eV.

  Total energy components:
  | Sum of eigenvalues            :         -45.40483455 Ha       -1235.52841102 eV
  | XC energy correction          :          -8.80031666 Ha        -239.46880028 eV
  | XC potential correction       :          11.59088052 Ha         315.40390653 eV
  | Free-atom electrostatic energy:         -35.26806404 Ha        -959.69285111 eV
  | Hartree energy correction     :           1.70838021 Ha          46.48739073 eV
  | Entropy correction            :          -0.00000000 Ha          -0.00000000 eV
  | ---------------------------
  | Total energy                  :         -76.17395451 Ha       -2072.79876514 eV
  | Total energy, T -> 0          :         -76.17395451 Ha       -2072.79876514 eV  <-- do not rely on this value for anything but (periodic) metals
  | Electronic free energy        :         -76.17395451 Ha       -2072.79876514 eV

  Derived energy quantities:
  | Kinetic energy                :          75.81008889 Ha        2062.89747772 eV
  | Electrostatic energy          :        -143.18372674 Ha       -3896.22744258 eV
  | Energy correction for multipole
  | error in Hartree potential    :           0.00602891 Ha           0.16405490 eV
  | Sum of eigenvalues per atom                           :        -308.88210275 eV
  | Total energy (T->0) per atom                          :        -518.19969129 eV  <-- do not rely on this value for anything but (periodic) metals
  | Electronic free energy per atom                       :        -518.19969129 eV

  Self-consistency convergence accuracy:
  | Change of charge density      :  0.1100E+00
  | Change of sum of eigenvalues  : -0.3738E+02 eV
  | Change of total energy        :  0.8258E+00 eV

  End self-consistency iteration #     3       :  max(cpu_time)    wall_clock(cpu1)
  | Time for this iteration                    :        0.059 s           0.059 s
  | Charge density update                      :        0.011 s           0.011 s
  | Density mixing                             :        0.000 s           0.001 s
  | Hartree multipole update                   :        0.001 s           0.001 s
  | Hartree multipole summation                :        0.017 s           0.017 s
  | Integration                                :        0.029 s           0.029 s
  | Solution of K.-S. eqns.                    :        0.000 s           0.000 s
  | Total energy evaluation                    :        0.000 s           0.000 s

  Partial memory accounting:
  | Current value for overall tracked memory usage on task 0  :           0.018 MB
  | Peak value for overall tracked memory usage on task 0     :           0.087 MB after allocating wave
  | Largest tracked array allocation on task 0 so far         :           0.021 MB  when allocating H_times_psi
  Note:  These values currently only include a subset of arrays which are explicitly tracked.
  The "true" memory usage will be greater.
------------------------------------------------------------

------------------------------------------------------------
          Begin self-consistency iteration #    4

  Date     :  20190508, Time     :  170407.765
------------------------------------------------------------
  Evaluating new KS density.
  Integration grid: deviation in total charge (<rho> - N_e) =  -7.105427E-15
  Pulay mixing of updated and previous charge densities.

  Evaluating partitioned Hartree potential by multipole expansion.
  | Analytical far-field extrapolation by fixed multipoles:
  | Hartree multipole sum: apparent total charge =   0.101140E+01
  Summing up the Hartree potential.
  Time summed over all CPUs for potential: real work        0.017 s, elapsed        0.017 s
  | RMS charge density error from multipole expansion :   0.104188E-01

  Integrating Hamiltonian matrix: batch-based integration.
  Time summed over all CPUs for integration: real work        0.028 s, elapsed        0.028 s

  Updating Kohn-Sham eigenvalues, eigenvectors, occupation numbers, and Fermi level.
  Solving generalized eigenproblem
  Updating Kohn-Sham eigenvalues and eigenfunctions.
  Solving real generalised eigenvalue problem by standard LAPACK (fast)

  Obtaining occupation numbers and chemical potential using ELSI.
  | Chemical potential (Fermi level):   -11.97594730eV
  Highest occupied state (VBM) at    -18.41928309 eV
  | Occupation number:      2.00000000

  Lowest unoccupied state (CBM) at    -8.30573334 eV
  | Occupation number:      0.00000000

  Overall HOMO-LUMO gap:     10.11354975 eV.

  Total energy components:
  | Sum of eigenvalues            :         -45.70470587 Ha       -1243.68832483 eV
  | XC energy correction          :          -8.79686583 Ha        -239.37489862 eV
  | XC potential correction       :          11.58682951 Ha         315.29367300 eV
  | Free-atom electrostatic energy:         -35.26806404 Ha        -959.69285111 eV
  | Hartree energy correction     :           2.01151005 Ha          54.73597351 eV
  | Entropy correction            :          -0.00000000 Ha          -0.00000000 eV
  | ---------------------------
  | Total energy                  :         -76.17129617 Ha       -2072.72642804 eV
  | Total energy, T -> 0          :         -76.17129617 Ha       -2072.72642804 eV  <-- do not rely on this value for anything but (periodic) metals
  | Electronic free energy        :         -76.17129617 Ha       -2072.72642804 eV

  Derived energy quantities:
  | Kinetic energy                :          75.78756593 Ha        2062.28459692 eV
  | Electrostatic energy          :        -143.16199627 Ha       -3895.63612634 eV
  | Energy correction for multipole
  | error in Hartree potential    :           0.00710318 Ha           0.19328749 eV
  | Sum of eigenvalues per atom                           :        -310.92208121 eV
  | Total energy (T->0) per atom                          :        -518.18160701 eV  <-- do not rely on this value for anything but (periodic) metals
  | Electronic free energy per atom                       :        -518.18160701 eV

  Self-consistency convergence accuracy:
  | Change of charge density      :  0.5027E-01
  | Change of sum of eigenvalues  : -0.8160E+01 eV
  | Change of total energy        :  0.7234E-01 eV

  End self-consistency iteration #     4       :  max(cpu_time)    wall_clock(cpu1)
  | Time for this iteration                    :        0.059 s           0.059 s
  | Charge density update                      :        0.012 s           0.012 s
  | Density mixing                             :        0.000 s           0.000 s
  | Hartree multipole update                   :        0.001 s           0.002 s
  | Hartree multipole summation                :        0.017 s           0.017 s
  | Integration                                :        0.029 s           0.028 s
  | Solution of K.-S. eqns.                    :        0.000 s           0.000 s
  | Total energy evaluation                    :        0.000 s           0.000 s

  Partial memory accounting:
  | Current value for overall tracked memory usage on task 0  :           0.019 MB
  | Peak value for overall tracked memory usage on task 0     :           0.087 MB after allocating wave
  | Largest tracked array allocation on task 0 so far         :           0.021 MB  when allocating H_times_psi
  Note:  These values currently only include a subset of arrays which are explicitly tracked.
  The "true" memory usage will be greater.
------------------------------------------------------------

------------------------------------------------------------
          Begin self-consistency iteration #    5

  Date     :  20190508, Time     :  170407.824
------------------------------------------------------------
  Evaluating new KS density.
  Integration grid: deviation in total charge (<rho> - N_e) =  -5.329071E-15
  Pulay mixing of updated and previous charge densities.

  Evaluating partitioned Hartree potential by multipole expansion.
  | Analytical far-field extrapolation by fixed multipoles:
  | Hartree multipole sum: apparent total charge =   0.100808E+01
  Summing up the Hartree potential.
  Time summed over all CPUs for potential: real work        0.017 s, elapsed        0.017 s
  | RMS charge density error from multipole expansion :   0.104611E-01

  Integrating Hamiltonian matrix: batch-based integration.
  Time summed over all CPUs for integration: real work        0.028 s, elapsed        0.028 s

  Updating Kohn-Sham eigenvalues, eigenvectors, occupation numbers, and Fermi level.
  Solving generalized eigenproblem
  Updating Kohn-Sham eigenvalues and eigenfunctions.
  Solving real generalised eigenvalue problem by standard LAPACK (fast)

  Obtaining occupation numbers and chemical potential using ELSI.
  | Chemical potential (Fermi level):   -11.77349421eV
  Highest occupied state (VBM) at    -18.12246878 eV
  | Occupation number:      2.00000000

  Lowest unoccupied state (CBM) at    -8.15551213 eV
  | Occupation number:      0.00000000

  Overall HOMO-LUMO gap:      9.96695665 eV.

  Total energy components:
  | Sum of eigenvalues            :         -45.58581210 Ha       -1240.45306077 eV
  | XC energy correction          :          -8.81226954 Ha        -239.79405475 eV
  | XC potential correction       :          11.60710488 Ha         315.84539388 eV
  | Free-atom electrostatic energy:         -35.26806404 Ha        -959.69285111 eV
  | Hartree energy correction     :           1.88786969 Ha          51.37154808 eV
  | Entropy correction            :          -0.00000000 Ha          -0.00000000 eV
  | ---------------------------
  | Total energy                  :         -76.17117110 Ha       -2072.72302468 eV
  | Total energy, T -> 0          :         -76.17117110 Ha       -2072.72302468 eV  <-- do not rely on this value for anything but (periodic) metals
  | Electronic free energy        :         -76.17117110 Ha       -2072.72302468 eV

  Derived energy quantities:
  | Kinetic energy                :          75.84403542 Ha        2063.82120996 eV
  | Electrostatic energy          :        -143.20293699 Ha       -3896.75017989 eV
  | Energy correction for multipole
  | error in Hartree potential    :           0.00696639 Ha           0.18956514 eV
  | Sum of eigenvalues per atom                           :        -310.11326519 eV
  | Total energy (T->0) per atom                          :        -518.18075617 eV  <-- do not rely on this value for anything but (periodic) metals
  | Electronic free energy per atom                       :        -518.18075617 eV

  Self-consistency convergence accuracy:
  | Change of charge density      :  0.1084E-01
  | Change of sum of eigenvalues  :  0.3235E+01 eV
  | Change of total energy        :  0.3403E-02 eV

  End self-consistency iteration #     5       :  max(cpu_time)    wall_clock(cpu1)
  | Time for this iteration                    :        0.059 s           0.060 s
  | Charge density update                      :        0.011 s           0.012 s
  | Density mixing                             :        0.001 s           0.000 s
  | Hartree multipole update                   :        0.001 s           0.002 s
  | Hartree multipole summation                :        0.017 s           0.017 s
  | Integration                                :        0.029 s           0.028 s
  | Solution of K.-S. eqns.                    :        0.000 s           0.001 s
  | Total energy evaluation                    :        0.000 s           0.000 s

  Partial memory accounting:
  | Current value for overall tracked memory usage on task 0  :           0.019 MB
  | Peak value for overall tracked memory usage on task 0     :           0.088 MB after allocating wave
  | Largest tracked array allocation on task 0 so far         :           0.021 MB  when allocating H_times_psi
  Note:  These values currently only include a subset of arrays which are explicitly tracked.
  The "true" memory usage will be greater.
------------------------------------------------------------

------------------------------------------------------------
          Begin self-consistency iteration #    6

  Date     :  20190508, Time     :  170407.884
------------------------------------------------------------
  Evaluating new KS density.
  Integration grid: deviation in total charge (<rho> - N_e) =  -3.552714E-15
  Pulay mixing of updated and previous charge densities.

  Evaluating partitioned Hartree potential by multipole expansion.
  | Analytical far-field extrapolation by fixed multipoles:
  | Hartree multipole sum: apparent total charge =   0.998797E+00
  Summing up the Hartree potential.
  Time summed over all CPUs for potential: real work        0.016 s, elapsed        0.016 s
  | RMS charge density error from multipole expansion :   0.103741E-01

  Integrating Hamiltonian matrix: batch-based integration.
  Time summed over all CPUs for integration: real work        0.027 s, elapsed        0.027 s

  Updating Kohn-Sham eigenvalues, eigenvectors, occupation numbers, and Fermi level.
  Solving generalized eigenproblem
  Updating Kohn-Sham eigenvalues and eigenfunctions.
  Solving real generalised eigenvalue problem by standard LAPACK (fast)

  Obtaining occupation numbers and chemical potential using ELSI.
  | Chemical potential (Fermi level):   -11.77412254eV
  Highest occupied state (VBM) at    -18.11817853 eV
  | Occupation number:      2.00000000

  Lowest unoccupied state (CBM) at    -8.12448711 eV
  | Occupation number:      0.00000000

  Overall HOMO-LUMO gap:      9.99369142 eV.

  Total energy components:
  | Sum of eigenvalues            :         -45.58868764 Ha       -1240.53130816 eV
  | XC energy correction          :          -8.81014331 Ha        -239.73619711 eV
  | XC potential correction       :          11.60425859 Ha         315.76794225 eV
  | Free-atom electrostatic energy:         -35.26806404 Ha        -959.69285111 eV
  | Hartree energy correction     :           1.89149937 Ha          51.47031664 eV
  | Entropy correction            :          -0.00000000 Ha          -0.00000000 eV
  | ---------------------------
  | Total energy                  :         -76.17113703 Ha       -2072.72209750 eV
  | Total energy, T -> 0          :         -76.17113703 Ha       -2072.72209750 eV  <-- do not rely on this value for anything but (periodic) metals
  | Electronic free energy        :         -76.17113703 Ha       -2072.72209750 eV

  Derived energy quantities:
  | Kinetic energy                :          75.82283182 Ha        2063.24423044 eV
  | Electrostatic energy          :        -143.18382554 Ha       -3896.23013083 eV
  | Energy correction for multipole
  | error in Hartree potential    :           0.00678340 Ha           0.18458568 eV
  | Sum of eigenvalues per atom                           :        -310.13282704 eV
  | Total energy (T->0) per atom                          :        -518.18052437 eV  <-- do not rely on this value for anything but (periodic) metals
  | Electronic free energy per atom                       :        -518.18052437 eV

  Self-consistency convergence accuracy:
  | Change of charge density      :  0.7486E-02
  | Change of sum of eigenvalues  : -0.7825E-01 eV
  | Change of total energy        :  0.9272E-03 eV

  End self-consistency iteration #     6       :  max(cpu_time)    wall_clock(cpu1)
  | Time for this iteration                    :        0.058 s           0.058 s
  | Charge density update                      :        0.011 s           0.011 s
  | Density mixing                             :        0.001 s           0.001 s
  | Hartree multipole update                   :        0.001 s           0.001 s
  | Hartree multipole summation                :        0.016 s           0.016 s
  | Integration                                :        0.028 s           0.028 s
  | Solution of K.-S. eqns.                    :        0.000 s           0.001 s
  | Total energy evaluation                    :        0.000 s           0.000 s

  Partial memory accounting:
  | Current value for overall tracked memory usage on task 0  :           0.019 MB
  | Peak value for overall tracked memory usage on task 0     :           0.088 MB after allocating wave
  | Largest tracked array allocation on task 0 so far         :           0.021 MB  when allocating H_times_psi
  Note:  These values currently only include a subset of arrays which are explicitly tracked.
  The "true" memory usage will be greater.
------------------------------------------------------------

------------------------------------------------------------
          Begin self-consistency iteration #    7

  Date     :  20190508, Time     :  170407.942
------------------------------------------------------------
  Evaluating new KS density.
  Integration grid: deviation in total charge (<rho> - N_e) =   5.329071E-15
  Pulay mixing of updated and previous charge densities.

  Evaluating partitioned Hartree potential by multipole expansion.
  | Analytical far-field extrapolation by fixed multipoles:
  | Hartree multipole sum: apparent total charge =   0.999246E+00
  Summing up the Hartree potential.
  Time summed over all CPUs for potential: real work        0.017 s, elapsed        0.017 s
  | RMS charge density error from multipole expansion :   0.103671E-01

  Integrating Hamiltonian matrix: batch-based integration.
  Time summed over all CPUs for integration: real work        0.029 s, elapsed        0.029 s

  Updating Kohn-Sham eigenvalues, eigenvectors, occupation numbers, and Fermi level.
  Solving generalized eigenproblem
  Updating Kohn-Sham eigenvalues and eigenfunctions.
  Solving real generalised eigenvalue problem by standard LAPACK (fast)

  Obtaining occupation numbers and chemical potential using ELSI.
  | Chemical potential (Fermi level):   -11.77459004eV
  Highest occupied state (VBM) at    -18.11952618 eV
  | Occupation number:      2.00000000

  Lowest unoccupied state (CBM) at    -8.12454069 eV
  | Occupation number:      0.00000000

  Overall HOMO-LUMO gap:      9.99498549 eV.

  Total energy components:
  | Sum of eigenvalues            :         -45.59035674 Ha       -1240.57672678 eV
  | XC energy correction          :          -8.80998610 Ha        -239.73191914 eV
  | XC potential correction       :          11.60404961 Ha         315.76225566 eV
  | Free-atom electrostatic energy:         -35.26806404 Ha        -959.69285111 eV
  | Hartree energy correction     :           1.89322135 Ha          51.51717416 eV
  | Entropy correction            :          -0.00000000 Ha          -0.00000000 eV
  | ---------------------------
  | Total energy                  :         -76.17113592 Ha       -2072.72206722 eV
  | Total energy, T -> 0          :         -76.17113592 Ha       -2072.72206722 eV  <-- do not rely on this value for anything but (periodic) metals
  | Electronic free energy        :         -76.17113592 Ha       -2072.72206722 eV

  Derived energy quantities:
  | Kinetic energy                :          75.81942784 Ha        2063.15160351 eV
  | Electrostatic energy          :        -143.18057766 Ha       -3896.14175158 eV
  | Energy correction for multipole
  | error in Hartree potential    :           0.00673127 Ha           0.18316725 eV
  | Sum of eigenvalues per atom                           :        -310.14418170 eV
  | Total energy (T->0) per atom                          :        -518.18051680 eV  <-- do not rely on this value for anything but (periodic) metals
  | Electronic free energy per atom                       :        -518.18051680 eV

  Self-consistency convergence accuracy:
  | Change of charge density      :  0.9635E-03
  | Change of sum of eigenvalues  : -0.4542E-01 eV
  | Change of total energy        :  0.3028E-04 eV

  End self-consistency iteration #     7       :  max(cpu_time)    wall_clock(cpu1)
  | Time for this iteration                    :        0.059 s           0.059 s
  | Charge density update                      :        0.011 s           0.011 s
  | Density mixing                             :        0.001 s           0.001 s
  | Hartree multipole update                   :        0.001 s           0.001 s
  | Hartree multipole summation                :        0.017 s           0.017 s
  | Integration                                :        0.029 s           0.029 s
  | Solution of K.-S. eqns.                    :        0.000 s           0.000 s
  | Total energy evaluation                    :        0.000 s           0.000 s

  Partial memory accounting:
  | Current value for overall tracked memory usage on task 0  :           0.019 MB
  | Peak value for overall tracked memory usage on task 0     :           0.088 MB after allocating wave
  | Largest tracked array allocation on task 0 so far         :           0.021 MB  when allocating H_times_psi
  Note:  These values currently only include a subset of arrays which are explicitly tracked.
  The "true" memory usage will be greater.
------------------------------------------------------------

------------------------------------------------------------
          Begin self-consistency iteration #    8

  Date     :  20190508, Time     :  170408.001
------------------------------------------------------------
  Evaluating new KS density.
  Integration grid: deviation in total charge (<rho> - N_e) =  -1.776357E-14
  Pulay mixing of updated and previous charge densities.

  Evaluating partitioned Hartree potential by multipole expansion.
  | Analytical far-field extrapolation by fixed multipoles:
  | Hartree multipole sum: apparent total charge =   0.999485E+00
  Summing up the Hartree potential.
  Time summed over all CPUs for potential: real work        0.016 s, elapsed        0.016 s
  | RMS charge density error from multipole expansion :   0.103706E-01

  Integrating Hamiltonian matrix: batch-based integration.
  Time summed over all CPUs for integration: real work        0.028 s, elapsed        0.028 s

  Updating Kohn-Sham eigenvalues, eigenvectors, occupation numbers, and Fermi level.
  Solving generalized eigenproblem
  Updating Kohn-Sham eigenvalues and eigenfunctions.
  Solving real generalised eigenvalue problem by standard LAPACK (fast)

  Obtaining occupation numbers and chemical potential using ELSI.
  | Chemical potential (Fermi level):   -11.76701929eV
  Highest occupied state (VBM) at    -18.10899358 eV
  | Occupation number:      2.00000000

  Lowest unoccupied state (CBM) at    -8.11904066 eV
  | Occupation number:      0.00000000

  Overall HOMO-LUMO gap:      9.98995292 eV.

  Total energy components:
  | Sum of eigenvalues            :         -45.58645742 Ha       -1240.47062073 eV
  | XC energy correction          :          -8.81057652 Ha        -239.74798532 eV
  | XC potential correction       :          11.60482652 Ha         315.78339654 eV
  | Free-atom electrostatic energy:         -35.26806404 Ha        -959.69285111 eV
  | Hartree energy correction     :           1.88913593 Ha          51.40600429 eV
  | Entropy correction            :          -0.00000000 Ha          -0.00000000 eV
  | ---------------------------
  | Total energy                  :         -76.17113552 Ha       -2072.72205633 eV
  | Total energy, T -> 0          :         -76.17113552 Ha       -2072.72205633 eV  <-- do not rely on this value for anything but (periodic) metals
  | Electronic free energy        :         -76.17113552 Ha       -2072.72205633 eV

  Derived energy quantities:
  | Kinetic energy                :          75.82050154 Ha        2063.18082041 eV
  | Electrostatic energy          :        -143.18106054 Ha       -3896.15489142 eV
  | Energy correction for multipole
  | error in Hartree potential    :           0.00671085 Ha           0.18261150 eV
  | Sum of eigenvalues per atom                           :        -310.11765518 eV
  | Total energy (T->0) per atom                          :        -518.18051408 eV  <-- do not rely on this value for anything but (periodic) metals
  | Electronic free energy per atom                       :        -518.18051408 eV

  Self-consistency convergence accuracy:
  | Change of charge density      :  0.7233E-03
  | Change of sum of eigenvalues  :  0.1061E+00 eV
  | Change of total energy        :  0.1088E-04 eV

  End self-consistency iteration #     8       :  max(cpu_time)    wall_clock(cpu1)
  | Time for this iteration                    :        0.059 s           0.059 s
  | Charge density update                      :        0.011 s           0.011 s
  | Density mixing                             :        0.001 s           0.001 s
  | Hartree multipole update                   :        0.001 s           0.002 s
  | Hartree multipole summation                :        0.016 s           0.016 s
  | Integration                                :        0.028 s           0.028 s
  | Solution of K.-S. eqns.                    :        0.000 s           0.001 s
  | Total energy evaluation                    :        0.000 s           0.000 s

  Partial memory accounting:
  | Current value for overall tracked memory usage on task 0  :           0.020 MB
  | Peak value for overall tracked memory usage on task 0     :           0.088 MB after allocating wave
  | Largest tracked array allocation on task 0 so far         :           0.021 MB  when allocating H_times_psi
  Note:  These values currently only include a subset of arrays which are explicitly tracked.
  The "true" memory usage will be greater.
------------------------------------------------------------

------------------------------------------------------------
          Begin self-consistency iteration #    9

  Date     :  20190508, Time     :  170408.060
------------------------------------------------------------
  Evaluating new KS density.
  Integration grid: deviation in total charge (<rho> - N_e) =   0.000000E+00
  Pulay mixing of updated and previous charge densities.

  Evaluating partitioned Hartree potential by multipole expansion.
  | Analytical far-field extrapolation by fixed multipoles:
  | Hartree multipole sum: apparent total charge =   0.999559E+00
  Summing up the Hartree potential.
  Time summed over all CPUs for potential: real work        0.017 s, elapsed        0.017 s
  | RMS charge density error from multipole expansion :   0.103718E-01

  Integrating Hamiltonian matrix: batch-based integration.
  Time summed over all CPUs for integration: real work        0.028 s, elapsed        0.028 s

  Updating Kohn-Sham eigenvalues, eigenvectors, occupation numbers, and Fermi level.
  Solving generalized eigenproblem
  Updating Kohn-Sham eigenvalues and eigenfunctions.
  Solving real generalised eigenvalue problem by standard LAPACK (fast)

  Obtaining occupation numbers and chemical potential using ELSI.
  | Chemical potential (Fermi level):   -11.76607140eV
  Highest occupied state (VBM) at    -18.10790055 eV
  | Occupation number:      2.00000000

  Lowest unoccupied state (CBM) at    -8.11839678 eV
  | Occupation number:      0.00000000

  Overall HOMO-LUMO gap:      9.98950377 eV.

  Total energy components:
  | Sum of eigenvalues            :         -45.58608869 Ha       -1240.46058733 eV
  | XC energy correction          :          -8.81064715 Ha        -239.74990719 eV
  | XC potential correction       :          11.60491944 Ha         315.78592489 eV
  | Free-atom electrostatic energy:         -35.26806404 Ha        -959.69285111 eV
  | Hartree energy correction     :           1.88874496 Ha          51.39536527 eV
  | Entropy correction            :          -0.00000000 Ha          -0.00000000 eV
  | ---------------------------
  | Total energy                  :         -76.17113548 Ha       -2072.72205547 eV
  | Total energy, T -> 0          :         -76.17113548 Ha       -2072.72205547 eV  <-- do not rely on this value for anything but (periodic) metals
  | Electronic free energy        :         -76.17113548 Ha       -2072.72205547 eV

  Derived energy quantities:
  | Kinetic energy                :          75.82054879 Ha        2063.18210616 eV
  | Electrostatic energy          :        -143.18103713 Ha       -3896.15425443 eV
  | Energy correction for multipole
  | error in Hartree potential    :           0.00670734 Ha           0.18251588 eV
  | Sum of eigenvalues per atom                           :        -310.11514683 eV
  | Total energy (T->0) per atom                          :        -518.18051387 eV  <-- do not rely on this value for anything but (periodic) metals
  | Electronic free energy per atom                       :        -518.18051387 eV

  Self-consistency convergence accuracy:
  | Change of charge density      :  0.7949E-04
  | Change of sum of eigenvalues  :  0.1003E-01 eV
  | Change of total energy        :  0.8643E-06 eV

  End self-consistency iteration #     9       :  max(cpu_time)    wall_clock(cpu1)
  | Time for this iteration                    :        0.060 s           0.059 s
  | Charge density update                      :        0.011 s           0.011 s
  | Density mixing                             :        0.001 s           0.001 s
  | Hartree multipole update                   :        0.001 s           0.002 s
  | Hartree multipole summation                :        0.017 s           0.017 s
  | Integration                                :        0.029 s           0.028 s
  | Solution of K.-S. eqns.                    :        0.000 s           0.000 s
  | Total energy evaluation                    :        0.000 s           0.000 s

  Partial memory accounting:
  | Current value for overall tracked memory usage on task 0  :           0.020 MB
  | Peak value for overall tracked memory usage on task 0     :           0.089 MB after allocating wave
  | Largest tracked array allocation on task 0 so far         :           0.021 MB  when allocating H_times_psi
  Note:  These values currently only include a subset of arrays which are explicitly tracked.
  The "true" memory usage will be greater.
------------------------------------------------------------

------------------------------------------------------------
          Begin self-consistency iteration #   10

  Date     :  20190508, Time     :  170408.119
------------------------------------------------------------
  Evaluating new KS density.
  Integration grid: deviation in total charge (<rho> - N_e) =   1.065814E-14
  Pulay mixing of updated and previous charge densities.

  Evaluating partitioned Hartree potential by multipole expansion.
  | Analytical far-field extrapolation by fixed multipoles:
  | Hartree multipole sum: apparent total charge =   0.999556E+00
  Summing up the Hartree potential.
  Time summed over all CPUs for potential: real work        0.017 s, elapsed        0.017 s
  | RMS charge density error from multipole expansion :   0.103718E-01

  Integrating Hamiltonian matrix: batch-based integration.
  Time summed over all CPUs for integration: real work        0.029 s, elapsed        0.029 s

  Updating Kohn-Sham eigenvalues, eigenvectors, occupation numbers, and Fermi level.
  Solving generalized eigenproblem
  Updating Kohn-Sham eigenvalues and eigenfunctions.
  Solving real generalised eigenvalue problem by standard LAPACK (fast)

  Obtaining occupation numbers and chemical potential using ELSI.
  | Chemical potential (Fermi level):   -11.76615049eV
  Highest occupied state (VBM) at    -18.10803411 eV
  | Occupation number:      2.00000000

  Lowest unoccupied state (CBM) at    -8.11844436 eV
  | Occupation number:      0.00000000

  Overall HOMO-LUMO gap:      9.98958974 eV.

  Total energy components:
  | Sum of eigenvalues            :         -45.58614348 Ha       -1240.46207803 eV
  | XC energy correction          :          -8.81063937 Ha        -239.74969556 eV
  | XC potential correction       :          11.60490918 Ha         315.78564565 eV
  | Free-atom electrostatic energy:         -35.26806404 Ha        -959.69285111 eV
  | Hartree energy correction     :           1.88880223 Ha          51.39692362 eV
  | Entropy correction            :          -0.00000000 Ha          -0.00000000 eV
  | ---------------------------
  | Total energy                  :         -76.17113548 Ha       -2072.72205543 eV
  | Total energy, T -> 0          :         -76.17113548 Ha       -2072.72205543 eV  <-- do not rely on this value for anything but (periodic) metals
  | Electronic free energy        :         -76.17113548 Ha       -2072.72205543 eV

  Derived energy quantities:
  | Kinetic energy                :          75.82051542 Ha        2063.18119798 eV
  | Electrostatic energy          :        -143.18101153 Ha       -3896.15355785 eV
  | Energy correction for multipole
  | error in Hartree potential    :           0.00670736 Ha           0.18251665 eV
  | Sum of eigenvalues per atom                           :        -310.11551951 eV
  | Total energy (T->0) per atom                          :        -518.18051386 eV  <-- do not rely on this value for anything but (periodic) metals
  | Electronic free energy per atom                       :        -518.18051386 eV

  Self-consistency convergence accuracy:
  | Change of charge density      :  0.9214E-05
  | Change of sum of eigenvalues  : -0.1491E-02 eV
  | Change of total energy        :  0.3859E-07 eV

  End self-consistency iteration #    10       :  max(cpu_time)    wall_clock(cpu1)
  | Time for this iteration                    :        0.061 s           0.062 s
  | Charge density update                      :        0.011 s           0.012 s
  | Density mixing                             :        0.001 s           0.001 s
  | Hartree multipole update                   :        0.001 s           0.001 s
  | Hartree multipole summation                :        0.017 s           0.017 s
  | Integration                                :        0.030 s           0.030 s
  | Solution of K.-S. eqns.                    :        0.000 s           0.000 s
  | Total energy evaluation                    :        0.000 s           0.001 s

  Partial memory accounting:
  | Current value for overall tracked memory usage on task 0  :           0.020 MB
  | Peak value for overall tracked memory usage on task 0     :           0.089 MB after allocating wave
  | Largest tracked array allocation on task 0 so far         :           0.021 MB  when allocating H_times_psi
  Note:  These values currently only include a subset of arrays which are explicitly tracked.
  The "true" memory usage will be greater.
------------------------------------------------------------

------------------------------------------------------------
          Begin self-consistency iteration #   11

  Date     :  20190508, Time     :  170408.181
------------------------------------------------------------
  Evaluating new KS density.
  Integration grid: deviation in total charge (<rho> - N_e) =   2.664535E-14
  Pulay mixing of updated and previous charge densities.

  Evaluating partitioned Hartree potential by multipole expansion.
  | Analytical far-field extrapolation by fixed multipoles:
  | Hartree multipole sum: apparent total charge =   0.999557E+00
  Summing up the Hartree potential.
  Time summed over all CPUs for potential: real work        0.017 s, elapsed        0.017 s
  | RMS charge density error from multipole expansion :   0.103718E-01

  Integrating Hamiltonian matrix: batch-based integration.
  Time summed over all CPUs for integration: real work        0.029 s, elapsed        0.029 s

  Updating Kohn-Sham eigenvalues, eigenvectors, occupation numbers, and Fermi level.
  Solving generalized eigenproblem
  Updating Kohn-Sham eigenvalues and eigenfunctions.
  Solving real generalised eigenvalue problem by standard LAPACK (fast)

  Obtaining occupation numbers and chemical potential using ELSI.
  | Chemical potential (Fermi level):   -11.76613695eV
  Highest occupied state (VBM) at    -18.10801576 eV
  | Occupation number:      2.00000000

  Lowest unoccupied state (CBM) at    -8.11843756 eV
  | Occupation number:      0.00000000

  Overall HOMO-LUMO gap:      9.98957819 eV.

  Total energy components:
  | Sum of eigenvalues            :         -45.58613555 Ha       -1240.46186227 eV
  | XC energy correction          :          -8.81064061 Ha        -239.74972925 eV
  | XC potential correction       :          11.60491081 Ha         315.78569011 eV
  | Free-atom electrostatic energy:         -35.26806404 Ha        -959.69285111 eV
  | Hartree energy correction     :           1.88879390 Ha          51.39669707 eV
  | Entropy correction            :          -0.00000000 Ha          -0.00000000 eV
  | ---------------------------
[...]
  | Largest tracked array allocation on task 0 so far         :           0.021 MB  when allocating H_times_psi
  Note:  These values currently only include a subset of arrays which are explicitly tracked.
  The "true" memory usage will be greater.
------------------------------------------------------------

------------------------------------------------------------
          Begin self-consistency iteration #   12

  Date     :  20190508, Time     :  170408.240
------------------------------------------------------------
  Evaluating new KS density.
  Integration grid: deviation in total charge (<rho> - N_e) =   1.776357E-15
  Pulay mixing of updated and previous charge densities.

  Evaluating partitioned Hartree potential by multipole expansion.
  | Analytical far-field extrapolation by fixed multipoles:
  | Hartree multipole sum: apparent total charge =   0.999557E+00
  Summing up the Hartree potential.
  Time summed over all CPUs for potential: real work        0.017 s, elapsed        0.017 s
  | RMS charge density error from multipole expansion :   0.103718E-01

  Integrating Hamiltonian matrix: batch-based integration.
  Time summed over all CPUs for integration: real work        0.029 s, elapsed        0.029 s

  Updating Kohn-Sham eigenvalues, eigenvectors, occupation numbers, and Fermi level.
  Solving generalized eigenproblem
  Updating Kohn-Sham eigenvalues and eigenfunctions.
  Solving real generalised eigenvalue problem by standard LAPACK (fast)

  Obtaining occupation numbers and chemical potential using ELSI.
  | Chemical potential (Fermi level):   -11.76613387eV
  Highest occupied state (VBM) at    -18.10801194 eV
  | Occupation number:      2.00000000

  Lowest unoccupied state (CBM) at    -8.11843603 eV
  | Occupation number:      0.00000000

  Overall HOMO-LUMO gap:      9.98957591 eV.

  Total energy components:
  | Sum of eigenvalues            :         -45.58613362 Ha       -1240.46180968 eV
  | XC energy correction          :          -8.81064092 Ha        -239.74973767 eV
  | XC potential correction       :          11.60491122 Ha         315.78570124 eV
  | Free-atom electrostatic energy:         -35.26806404 Ha        -959.69285111 eV
  | Hartree energy correction     :           1.88879187 Ha          51.39664177 eV
  | Entropy correction            :          -0.00000000 Ha          -0.00000000 eV
  | ---------------------------
  | Total energy                  :         -76.17113548 Ha       -2072.72205547 eV
  | Total energy, T -> 0          :         -76.17113548 Ha       -2072.72205547 eV  <-- do not rely on this value for anything but (periodic) metals
  | Electronic free energy        :         -76.17113548 Ha       -2072.72205547 eV

  Derived energy quantities:
  | Kinetic energy                :          75.82052306 Ha        2063.18140585 eV
  | Electrostatic energy          :        -143.18101762 Ha       -3896.15372365 eV
  | Energy correction for multipole
  | error in Hartree potential    :           0.00670738 Ha           0.18251719 eV
  | Sum of eigenvalues per atom                           :        -310.11545242 eV
  | Total energy (T->0) per atom                          :        -518.18051387 eV  <-- do not rely on this value for anything but (periodic) metals
  | Electronic free energy per atom                       :        -518.18051387 eV

  Self-consistency convergence accuracy:
  | Change of charge density      :  0.3388E-06
  | Change of sum of eigenvalues  :  0.5259E-04 eV
  | Change of total energy        : -0.1463E-07 eV

  Electronic self-consistency reached - switching on the force computation.

  End self-consistency iteration #    12       :  max(cpu_time)    wall_clock(cpu1)
  | Time for this iteration                    :        0.060 s           0.060 s
  | Charge density & force component update    :        0.011 s           0.012 s
  | Density mixing                             :        0.001 s           0.001 s
  | Hartree multipole update                   :        0.001 s           0.001 s
  | Hartree multipole summation                :        0.017 s           0.017 s
  | Integration                                :        0.029 s           0.029 s
  | Solution of K.-S. eqns.                    :        0.000 s           0.000 s
  | Total energy evaluation                    :        0.000 s           0.000 s

  Partial memory accounting:
  | Current value for overall tracked memory usage on task 0  :           0.020 MB
  | Peak value for overall tracked memory usage on task 0     :           0.089 MB after allocating wave
  | Largest tracked array allocation on task 0 so far         :           0.021 MB  when allocating H_times_psi
  Note:  These values currently only include a subset of arrays which are explicitly tracked.
  The "true" memory usage will be greater.
------------------------------------------------------------

------------------------------------------------------------
          Begin self-consistency iteration #   13

  Date     :  20190508, Time     :  170408.300
------------------------------------------------------------
  Evaluating new KS density and force components.
  Integration grid: deviation in total charge (<rho> - N_e) =   1.065814E-14
  Pulay mixing of updated and previous charge densities.

  Evaluating partitioned Hartree potential by multipole expansion.
  | Analytical far-field extrapolation by fixed multipoles:
  | Hartree multipole sum: apparent total charge =   0.999557E+00
  Summing up the Hartree potential.
  Time summed over all CPUs for potential: real work        0.052 s, elapsed        0.052 s
  | RMS charge density error from multipole expansion :   0.103718E-01

  Integrating Hamiltonian matrix: batch-based integration.
  Time summed over all CPUs for integration: real work        0.028 s, elapsed        0.028 s

  Updating Kohn-Sham eigenvalues, eigenvectors, occupation numbers, and Fermi level.
  Solving generalized eigenproblem
  Updating Kohn-Sham eigenvalues and eigenfunctions.
  Solving real generalised eigenvalue problem by standard LAPACK (fast)

  Obtaining occupation numbers and chemical potential using ELSI.
  | Chemical potential (Fermi level):   -11.76613440eV
  Highest occupied state (VBM) at    -18.10801255 eV
  | Occupation number:      2.00000000

  Lowest unoccupied state (CBM) at    -8.11843607 eV
  | Occupation number:      0.00000000

  Overall HOMO-LUMO gap:      9.98957647 eV.

  Total energy components:
  | Sum of eigenvalues            :         -45.58613394 Ha       -1240.46181851 eV
  | XC energy correction          :          -8.81064085 Ha        -239.74973576 eV
  | XC potential correction       :          11.60491112 Ha         315.78569871 eV
  | Free-atom electrostatic energy:         -35.26806404 Ha        -959.69285111 eV
  | Hartree energy correction     :           1.88879222 Ha          51.39665122 eV
  | Entropy correction            :          -0.00000000 Ha          -0.00000000 eV
  | ---------------------------
  | Total energy                  :         -76.17113548 Ha       -2072.72205546 eV
  | Total energy, T -> 0          :         -76.17113548 Ha       -2072.72205546 eV  <-- do not rely on this value for anything but (periodic) metals
  | Electronic free energy        :         -76.17113548 Ha       -2072.72205546 eV

  Derived energy quantities:
  | Kinetic energy                :          75.82052262 Ha        2063.18139405 eV
  | Electrostatic energy          :        -143.18101726 Ha       -3896.15371375 eV
  | Energy correction for multipole
  | error in Hartree potential    :           0.00670738 Ha           0.18251712 eV
  | Sum of eigenvalues per atom                           :        -310.11545463 eV
  | Total energy (T->0) per atom                          :        -518.18051387 eV  <-- do not rely on this value for anything but (periodic) metals
  | Electronic free energy per atom                       :        -518.18051387 eV

  atomic forces [eV/Ang]:
  -----------------------
  atom #    1
   Hellmann-Feynman              : -0.163308E-01  0.202748E-02  0.199982E-12
   Ionic forces                  :  0.000000E+00  0.000000E+00  0.000000E+00
   Multipole                     :  0.351181E-02 -0.364573E-03  0.576592E-13
   Pulay                         : -0.293557E-02 -0.853071E-03 -0.490962E-13
   ----------------------------------------------------------------
   Total forces(   1)            : -0.157545E-01  0.809835E-03  0.208545E-12
  atom #    2
   Hellmann-Feynman              :  0.262374E+00 -0.145862E+00  0.153141E-13
   Ionic forces                  :  0.000000E+00  0.000000E+00  0.000000E+00
   Multipole                     :  0.779217E-01 -0.452567E-01 -0.245148E-15
   Pulay                         : -0.338664E+00  0.195755E+00 -0.767925E-13
   ----------------------------------------------------------------
   Total forces(   2)            :  0.163166E-02  0.463599E-02 -0.617235E-13
  atom #    3
   Hellmann-Feynman              : -0.257697E+00 -0.155652E+00 -0.293015E-13
   Ionic forces                  :  0.000000E+00  0.000000E+00  0.000000E+00
   Multipole                     : -0.777688E-01 -0.446193E-01  0.183708E-16
   Pulay                         :  0.338768E+00  0.195258E+00 -0.728702E-13
   ----------------------------------------------------------------
   Total forces(   3)            :  0.330240E-02 -0.501367E-02 -0.102153E-12
  atom #    4
   Hellmann-Feynman              :  0.102069E-01  0.300551E+00 -0.243726E-13
   Ionic forces                  :  0.000000E+00  0.000000E+00  0.000000E+00
   Multipole                     : -0.656836E-03  0.898739E-01  0.137749E-15
   Pulay                         :  0.127622E-02 -0.391094E+00  0.151233E-12
   ----------------------------------------------------------------
   Total forces(   4)            :  0.108263E-01 -0.669165E-03  0.126998E-12


  Self-consistency convergence accuracy:
  | Change of charge density      :  0.1250E-06
  | Change of sum of eigenvalues  : -0.8829E-05 eV
  | Change of total energy        :  0.2515E-08 eV
  | Change of forces              :  0.3383E+00 eV/A

  Writing Kohn-Sham eigenvalues.

  State    Occupation    Eigenvalue [Ha]    Eigenvalue [eV]
      1       2.00000         -19.013719         -517.38962
      2       2.00000          -1.337113          -36.38469
      3       2.00000          -0.888594          -24.17989
      4       2.00000          -0.888183          -24.16870
      5       2.00000          -0.665457          -18.10801
      6       0.00000          -0.298347           -8.11844
      7       0.00000          -0.197371           -5.37073
      8       0.00000          -0.197205           -5.36622
      9       0.00000           0.025511            0.69418
     10       0.00000           0.048377            1.31640
     11       0.00000           0.048798            1.32787
     12       0.00000           0.207465            5.64540
     13       0.00000           0.481438           13.10059

  Highest occupied state (VBM) at    -18.10801255 eV
  | Occupation number:      2.00000000

  Lowest unoccupied state (CBM) at    -8.11843607 eV
  | Occupation number:      0.00000000

  Overall HOMO-LUMO gap:      9.98957647 eV.

  Self-consistency cycle converged.

  End self-consistency iteration #    13       :  max(cpu_time)    wall_clock(cpu1)
  | Time for this iteration                    :        0.123 s           0.123 s
  | Charge density & force component update    :        0.040 s           0.040 s
  | Density mixing                             :        0.001 s           0.001 s
  | Hartree multipole update                   :        0.001 s           0.001 s
  | Hartree multipole summation                :        0.051 s           0.052 s
  | Integration                                :        0.029 s           0.028 s
  | Solution of K.-S. eqns.                    :        0.000 s           0.001 s
  | Total energy evaluation                    :        0.000 s           0.000 s

  Partial memory accounting:
  | Current value for overall tracked memory usage on task 0  :           0.020 MB
  | Peak value for overall tracked memory usage on task 0     :           0.123 MB after allocating h_times_wave
  | Largest tracked array allocation on task 0 so far         :           0.062 MB  when allocating gradient_basis_wave
  Note:  These values currently only include a subset of arrays which are explicitly tracked.
  The "true" memory usage will be greater.
------------------------------------------------------------
  ------------------------------------------------------------
   Computing monopole / dipole moments for complete molecule:
  | Total electronic charge [e]         :          0.999999999851676E+01
  | Total ionic charge [e]              :          0.110000000000000E+02
  | Total charge [e]                    :          0.100000000148324E+01
 * Warning: The system has a total charge of      1.00000000 .
 * The dipole moment depends on the choice of the origin.
  | Total dipole moment [eAng]          :         -0.731832522929591E-03         0.144550439185953E-04         0.136042556826579E-15
  | Absolute dipole moment              :          0.731975265915576E-03 eAng              /                   0.351527910154066E-02 Debye  .
  Removing unitary transformations (pure translations, rotations) from forces on atoms.
  Atomic forces before filtering:
  | Net force on center of mass :   0.578169E-05 -0.237009E-03  0.171666E-12 eV/A
  | Net torque on center of mass:   0.206227E-12 -0.343948E-13 -0.111372E-05 eV
  Atomic forces after filtering:
  | Net force on center of mass :   0.000000E+00  0.348449E-18 -0.405649E-28 eV/A
  | Net torque on center of mass:   0.321990E-28 -0.206380E-28  0.000000E+00 eV

  Energy and forces in a compact form:
  | Total energy uncorrected      :         -0.207272205546393E+04 eV
  | Total energy corrected        :         -0.207272205546393E+04 eV  <-- do not rely on this value for anything but (periodic) metals
  | Electronic free energy        :         -0.207272205546393E+04 eV
  Total atomic forces (unitary forces cleaned) [eV/Ang]:
  |   1         -0.157559886972337E-01          0.869087168591206E-03          0.165620744103777E-12
  |   2          0.163040303715191E-02          0.469556761685136E-02         -0.552736577060351E-13
  |   3          0.330114210234306E-02         -0.495474151642923E-02         -0.551445119005480E-13
  |   4          0.108244435577387E-01         -0.609913269013329E-03         -0.552025744971944E-13

  ------------------------------------ 
  Start decomposition of the XC Energy 
  ------------------------------------ 
  X and C from original XC functional choice 
  Hartree-Fock Energy :          0.000000000 Ha              0.000000000 eV
  X Energy            :         -8.146713356 Ha           -221.683349552 eV
  C Energy            :         -0.663927490 Ha            -18.066386209 eV
  Total XC Energy     :         -8.810640846 Ha           -239.749735761 eV
  ------------------------------------ 
  LDA X and C from self-consistent density 
  X Energy LDA        :         -8.146713356 Ha           -221.683349552 eV
  C Energy LDA        :         -0.663927490 Ha            -18.066386209 eV
  ------------------------------------ 
  End decomposition of the XC Energy 
  ------------------------------------ 

------------------------------------------------------------

------------------------------------------------------------------------------
  Final output of selected total energy values:

  The following output summarizes some interesting total energy values
  at the end of a run (AFTER all relaxation, molecular dynamics, etc.).

  | Total energy of the DFT / Hartree-Fock s.c.f. calculation      :          -2072.722055464 eV
  | Final zero-broadening corrected energy (caution - metals only) :          -2072.722055464 eV
  | For reference only, the value of 1 Hartree used in FHI-aims is :             27.211384500 eV

  Before relying on these values, please be sure to understand exactly which
  total energy value is referred to by a given number. Different objects may
  all carry the same name 'total energy'. Definitions:

  Total energy of the DFT / Hartree-Fock s.c.f. calculation:
  | Note that this energy does not include ANY quantities calculated after the
  | s.c.f. cycle, in particular not ANY RPA, MP2, etc. many-body perturbation terms.

  Final zero-broadening corrected energy:
  | For metallic systems only, a broadening of the occupation numbers at the Fermi
  | level can be extrapolated back to zero broadening by an electron-gas inspired
  | formula. For all systems that are not real metals, this value can be
  | meaningless and should be avoided.

------------------------------------------------------------------------------
  Methods described in the following list of references were used in this FHI-aims run.
  If you publish the results, please make sure to cite these reference if they apply.
  FHI-aims is an academic code, and for our developers (often, Ph.D. students
  and postdocs), scientific credit in the community is essential.
  Thank you for helping us!

  For any use of FHI-aims, please cite:

    Volker Blum, Ralf Gehrke, Felix Hanke, Paula Havu, Ville Havu,
    Xinguo Ren, Karsten Reuter, and Matthias Scheffler
    'Ab initio molecular simulations with numeric atom-centered orbitals'
    Computer Physics Communications 180, 2175-2196 (2009)
    http://dx.doi.org/10.1016/j.cpc.2009.06.022


  For the real-space grid partitioning and parallelization used in this calculation, please cite:

    Ville Havu, Volker Blum, Paula Havu, and Matthias Scheffler,
    'Efficient O(N) integration for all-electron electronic structure calculation'
    'using numerically tabulated basis functions'
    Journal of Computational Physics 228, 8367-8379 (2009).
    http://dx.doi.org/10.1016/j.jcp.2009.08.008

  Of course, there are many other important community references, e.g., those cited in the
  above references. Our list is limited to references that describe implementations in the
  FHI-aims code. The reason is purely practical (length of this list) - please credit others as well.

------------------------------------------------------------
          Leaving FHI-aims.
          Date     :  20190508, Time     :  170408.437

          Computational steps:
          | Number of self-consistency cycles          :           13
          | Number of SCF (re)initializations          :            1

          Detailed time accounting                     :  max(cpu_time)    wall_clock(cpu1)
          | Total time                                 :        0.982 s           0.982 s
          | Preparation time                           :        0.047 s           0.047 s
          | Boundary condition initalization           :        0.000 s           0.000 s
          | Grid partitioning                          :        0.014 s           0.014 s
          | Preloading free-atom quantities on grid    :        0.001 s           0.001 s
          | Free-atom superposition energy             :        0.013 s           0.012 s
          | Total time for integrations                :        0.416 s           0.414 s
          | Total time for solution of K.-S. equations :        0.003 s           0.006 s
          | Total time for density & force components  :        0.178 s           0.178 s
          | Total time for mixing                      :        0.009 s           0.010 s
          | Total time for Hartree multipole update    :        0.019 s           0.017 s
          | Total time for Hartree multipole sum       :        0.252 s           0.254 s
          | Total time for total energy evaluation     :        0.001 s           0.002 s

 This is a stub MPI_ALLREDUCE call.
 You should not be here. Check your
 setting on the use_mpi variable, or
 link against true MPI-libraries.
