------------------------------------------------------------
          Invoking FHI-aims ...
          Version 171221_1
          Compiled on 2019/05/06 at 14:26:40 on host ffph0xx.

          When using FHI-aims, please cite the following reference:

          Volker Blum, Ralf Gehrke, Felix Hanke, Paula Havu,
          Ville Havu, Xinguo Ren, Karsten Reuter, and Matthias Scheffler,
          'Ab Initio Molecular Simulations with Numeric Atom-Centered Orbitals',
          Computer Physics Communications 180, 2175-2196 (2009)

          For any questions about FHI-aims, please visit the aimsclub website
          with its forums and wiki. Contributions to both the forums and the
          wiki are warmly encouraged - they are for you, and everyone is welcome there.

------------------------------------------------------------



  Date     :  20190514, Time     :  105019.450
  Time zero on CPU 1             :   0.105300000000000E-02  s.
  Internal wall clock time zero  :           327063019.450  s.

  FHI-aims created a unique identifier for this run for later identification
  aims_uuid : C7012644-D56E-49DF-A513-16B32962356C


  Performing system and environment tests:
  *** Environment variable OMP_NUM_THREADS is not set
  *** For performance reasons you might want to set it to 1
  | Stacksize not measured: no C compiler

  Obtaining array dimensions for all initial allocations:
  
  -----------------------------------------------------------------------
  Parsing control.in (first pass over file, find array dimensions only).
  The contents of control.in will be repeated verbatim below
  unless switched off by setting 'verbatim_writeout .false.' .
  in the first line of control.in .
  -----------------------------------------------------------------------
  
  #--- method ---
  xc pw-lda
  spin none
  relativistic atomic_zora scalar
  #---
  
  #--- k-grid settings ---
  k_grid 12 12 12
  #---
  
  
  
  
  
  
  
  
  
  
  
  #-------------------------------------------------------------------------------
  #--- Species defaults for Si
  #-------------------------------------------------------------------------------
  
  ################################################################################
  #
  #  FHI-aims code project
  #  VB, Fritz-Haber Institut, 2009
  #
  #  Suggested "light" defaults for Si atom (to be pasted into control.in file)
  #  Be sure to double-check any results obtained with these settings for post-processing,
  #  e.g., with the "tight" defaults and larger basis sets.
  #
  ################################################################################
    species        Si
  #     global species definitions
      nucleus             14
      mass                28.0855
  #
      l_hartree           4
  #
      cut_pot             3.5          1.5  1.0
      basis_dep_cutoff    1e-4
  #
      radial_base         42 5.0
      radial_multiplier   1
      angular_grids       specified
        division   0.5866   50
        division   0.9616  110
        division   1.2249  194
        division   1.3795  302
  #      division   1.4810  434
  #      division   1.5529  590
  #      division   1.6284  770
  #      division   1.7077  974
  #      division   2.4068 1202
  #      outer_grid   974
        outer_grid 302
  ################################################################################
  #
  #  Definition of "minimal" basis
  #
  ################################################################################
  #     valence basis states
      valence      3  s   2.
      valence      3  p   2.
  #     ion occupancy
      ion_occ      3  s   1.
      ion_occ      3  p   1.
  ################################################################################
  #
  #  Suggested additional basis functions. For production calculations,
  #  uncomment them one after another (the most important basis functions are
  #  listed first).
  #
  #  Constructed for dimers: 1.75 A, 2.0 A, 2.25 A, 2.75 A, 3.75 A
  #
  ################################################################################
  #  "First tier" - improvements: -571.96 meV to -37.03 meV
       hydro 3 d 4.2
       hydro 2 p 1.4
  #     hydro 4 f 6.2
       ionic 3 s auto
  #  "Second tier" - improvements: -16.76 meV to -3.03 meV
  #     hydro 3 d 9
  #     hydro 5 g 9.4
  #     hydro 4 p 4
  #     hydro 1 s 0.65
  #  "Third tier" - improvements: -3.89 meV to -0.60 meV
  #     ionic 3 d auto
  #     hydro 3 s 2.6
  #     hydro 4 f 8.4
  #     hydro 3 d 3.4
  #     hydro 3 p 7.8
  #  "Fourth tier" - improvements: -0.33 meV to -0.11 meV
  #     hydro 2 p 1.6
  #     hydro 5 g 10.8
  #     hydro 5 f 11.2
  #     hydro 3 d 1
  #     hydro 4 s 4.5
  #  Further basis functions that fell out of the optimization - noise
  #  level... < -0.08 meV
  #     hydro 4 d 6.6
  #     hydro 5 g 16.4
  #     hydro 4 d 9
  
  -----------------------------------------------------------------------
  Completed first pass over input file control.in .
  -----------------------------------------------------------------------
  
  
  -----------------------------------------------------------------------
  Parsing geometry.in (first pass over file, find array dimensions only).
  The contents of geometry.in will be repeated verbatim below
  unless switched off by setting 'verbatim_writeout .false.' .
  in the first line of geometry.in .
  -----------------------------------------------------------------------
  
  lattice_vector   0.000000   2.650000   2.650000
  lattice_vector   2.650000   0.000000   2.650000
  lattice_vector   2.650000   2.650000   0.000000
  atom_frac   0.000000   0.000000   0.000000 Si
  
  -----------------------------------------------------------------------
  Completed first pass over input file geometry.in .
  -----------------------------------------------------------------------
  

  Basic array size parameters:
  | Number of species                 :        1
  | Number of atoms                   :        1
  | Number of lattice vectors         :        3
  | Max. basis fn. angular momentum   :        2
  | Max. atomic/ionic basis occupied n:        3
  | Max. number of basis fn. types    :        3
  | Max. radial fns per species/type  :        5
  | Max. logarithmic grid size        :     1346
  | Max. radial integration grid size :       42
  | Max. angular integration grid size:      302
  | Max. angular grid division number :        8
  | Radial grid for Hartree potential :     1346
  | Number of spin channels           :        1

------------------------------------------------------------
          Reading file control.in.
------------------------------------------------------------
  XC: Using Perdew-Wang parametrisation of Ceperley-Alder LDA.
  Spin treatment: No spin polarisation.
  Scalar relativistic treatment of kinetic energy: on-site free-atom approximation to ZORA.
  Found k-point grid:        12        12        12

  Reading configuration options for species Si                  .
  | Found nuclear charge :  14.0000
  | Found atomic mass :    28.085500000000000      amu
  | Found l_max for Hartree potential  :   4
  | Found cutoff potl. onset [A], width [A], scale factor :    3.50000    1.50000    1.00000
  | Threshold for basis-dependent cutoff potential is   0.100000E-03
  | Found data for basic radial integration grid :    42 points, outermost radius =    5.000 A
  | Found multiplier for basic radial grid :   1
  | Found angular grid specification: user-specified.
  | Specified grid contains     5 separate shells.
  | Check grid settings after all constraints further below.
  | Found free-atom valence shell :  3 s   2.000
  | Found free-atom valence shell :  3 p   2.000
  | Found free-ion valence shell :  3 s   1.000
  | Found free-ion valence shell :  3 p   1.000
  | Found hydrogenic basis function :  3 d   4.200
  | Found hydrogenic basis function :  2 p   1.400
  | Found ionic basis function :  3 s , default cutoff radius.
  Species Si                  : Missing cutoff potential type.
  Defaulting to exp(1/x)/(1-x)^2 type cutoff potential.
  Species Si: No 'logarithmic' tag. Using default grid for free atom:
  | Default logarithmic grid data [bohr] : 0.1000E-03 0.1000E+03 0.1012E+01
  | Will include ionic basis functions of  2.0-fold positive Si                   ion.
  Species Si: On-site basis accuracy parameter (for Gram-Schmidt orthonormalisation) not specified.
  Using default value basis_acc =  0.1000000E-03.
  Species Si                  : Using default innermost maximum threshold i_radial=  2 for radial functions.
  Species Si                  : Default cutoff onset for free atom density etc. : 0.35000000E+01 AA.
  Species Si                  : Basic radial grid will be enhanced according to radial_multiplier =   1, to contain    42 grid points.

  Finished reading input file 'control.in'. Consistency checks are next.

  MPI_IN_PLACE appears to work with this MPI implementation.
  | Keeping use_mpi_in_place .true. (see manual).
  Target number of points in a grid batch is not set. Defaulting to  100
  Method for grid partitioning is not set. Defaulting to 'maxmin' partitioning.
  Batch size limit is not set. Defaulting to    200
  By default, will store active basis functions for each batch.
  If in need of memory, prune_basis_once .false. can be used to disable this option.
  communication_type for Hartree potential was not specified.
  Defaulting to calc_hartree .
 * Attention: 
 * You may want to set distributed_spline_storage to .true. in order to save memory.
 * This doesn't harm performance and is perfectly ok unless:
 * - you get error messages in postprocessing (about missing atoms in get_rho_multipole_spl)
 * - you need full spline storage in hirshfeld_analysis
  Defaulting to Pulay charge density mixer.
  Pulay mixer: Number of relevant iterations not set.
  Defaulting to    8 iterations.
  Pulay mixer: Number of initial linear mixing iterations not set.
  Defaulting to    0 iterations.
  Work space size for distributed Hartree potential not set.
  Defaulting to   0.200000E+03 MB.
  Mixing parameter for charge density mixing has not been set.
  Using default: charge_mix_param =     0.0500.
  The mixing parameter will be adjusted in iteration number     2 of the first full s.c.f. cycle only.
  Algorithm-dependent basis array size parameters:
  | n_max_pulay                         :        8
 * Notice: The s.c.f. convergence criterion sc_accuracy_rho was not provided.
 * We used to stop in this case, and ask the user to provide reasonable
 * scf convergence criteria. However, this led some users to employ criteria
 * that led to extremely long run times, e.g., for simple relaxation.
 * We now preset a default value for sc_accuracy_rho if it is not set.
 * You may still wish to check if this setting is too tight or too loose for your needs.
 * Based on n_atoms, FHI-aims chose sc_accuracy_rho =  0.100000E-05 .
  Maximum number of self-consistency iterations not provided.
  Presetting  1000 iterations.
  Presetting      1001 iterations before the initial mixing cycle
  is restarted anyway using the sc_init_iter criterion / keyword.
  Presetting a factor      1.000 between actual scf density residual
  and density convergence criterion sc_accuracy_rho below which sc_init_iter
  takes no effect.
 * No s.c.f. convergence criteria (sc_accuracy_*) were provided in control.in.
 * The run will proceed with a reasonable default guess, but please check whether.
 * the s.c.f. cycles seem to take too much or too little time.
  Calculation of forces was not defined in control.in. No forces will be calculated.
  Geometry relaxation not requested: no relaxation will be performed.
  No accuracy limit for integral partition fn. given. Defaulting to  0.1000E-14.
  No threshold value for u(r) in integrations given. Defaulting to  0.1000E-05.
  No occupation type (smearing scheme) given. Defaulting to Gaussian broadening, width =  0.1000E-01 eV.
  The width will be adjusted in iteration number     2 of the first full s.c.f. cycle only.
  S.C.F. convergence parameters will be adjusted in iteration number     2 of the first full s.c.f. cycle only.
  No accuracy for occupation numbers given. Defaulting to  0.1000E-12.
  No threshold value for occupation numbers given. Defaulting to  0.0000E+00.
  No accuracy for fermi level given. Defaulting to  0.1000E-19.
  Maximum # of iterations to find E_F not set. Defaulting to  200.
  Preferred method for the eigenvalue solver ('KS_method') not specified in 'control.in'.
  Defaulting to serial version, 'lapack_fast'.
  Will not use alltoall communication since running on < 1024 CPUs.
  Threshold for basis singularities not set.
  Default threshold for basis singularities:  0.1000E-04
  partition_type (choice of integration weights) for integrals was not specified.
  | Using a version of the partition function of Stratmann and coworkers ('stratmann_smoother').
  | At each grid point, the set of atoms used to build the partition table is smoothly restricted to
  | only those atoms whose free-atom density would be non-zero at that grid point.
  Partitioning for Hartree potential was not defined. Using partition_type for integrals.
  | Adjusted default value of keyword multip_moments_threshold to:       0.10000000E-11
  | This value may affect high angular momentum components of the Hartree potential in periodic systems.
  Angular momentum expansion for Kerker preconditioner not set explicitly.
  | Using default value of   0
  No explicit requirement for turning off preconditioner.
  | By default, it will be turned off when the charge convergence reaches
  | sc_accuracy_rho  =   0.100000E-05
  No special mixing parameter while Kerker preconditioner is on.
  Using default: charge_mix_param =     0.0500.
  No q(lm)/r^(l+1) cutoff set for long-range Hartree potential.
  | Using default value of  0.100000E-09 .
  | Verify using the multipole_threshold keyword.
  Defaulting to new monopole extrapolation.
  Density update method: automatic selection selected.
  Using density matrix based charge density update.
  Using density matrix based charge density update.
  Using packed matrix style: index .
  Defaulting to use time-reversal symmetry for k-point grid.
------------------------------------------------------------


------------------------------------------------------------
          Reading geometry description geometry.in.
------------------------------------------------------------
  Input structure read successfully.
  The structure contains        1 atoms,  and a total of         14.000 electrons.

  Input geometry:
  | Unit cell:
  |        0.00000000        2.65000000        2.65000000
  |        2.65000000        0.00000000        2.65000000
  |        2.65000000        2.65000000        0.00000000
  | Atomic structure:
  |       Atom                x [A]            y [A]            z [A]
  |    1: Species Si            0.00000000        0.00000000        0.00000000

  Lattice parameters for 3D lattice (in Angstroms) :     3.747666    3.747666    3.747666
  Angle(s) between unit vectors (in degrees)      :    60.000000   60.000000   60.000000

  |

  | The smallest distance between any two atoms is         3.74766594 AA.
  |
  | The first atom of this pair is atom number                      1 .
  | The second atom of this pair is atom number                     1 .
  | Wigner-Seitz cell of the first atom image          -1     0     1 .
  | (The Wigner-Seitz cell of the second atom is 0 0 0  by definition.)

  Quantities derived from the lattice vectors:
  | Reciprocal lattice vector 1: -1.185507  1.185507  1.185507
  | Reciprocal lattice vector 2:  1.185507 -1.185507  1.185507
  | Reciprocal lattice vector 3:  1.185507  1.185507 -1.185507
  | Unit cell volume                               :   0.372192E+02  A^3

  Range separation radius for Ewald summation (hartree_convergence_parameter):      4.85580733 bohr.

  Fractional coordinates:
                         L1                L2                L3
       atom_frac         0.00000000        0.00000000        0.00000000  Si

  Number of empty states per atom not set in control.in - providing a guess from actual geometry.
  | Total number of empty states used during s.c.f. cycle:        3
  If you use a very high smearing, use empty_states (per atom!) in control.in to increase this value.

  Structure-dependent array size parameters: 
  | Maximum number of distinct radial functions  :        8
  | Maximum number of basis functions            :       18
  | Number of Kohn-Sham states (occupied + empty):       10
------------------------------------------------------------

------------------------------------------------------------
          Preparing all fixed parts of the calculation.
------------------------------------------------------------
  Determining machine precision:
     2.2250738585072014E-308
  Setting up grids for atomic and cluster calculations.

  Creating wave function, potential, and density for free atoms.

  Species: Si

  List of occupied orbitals and eigenvalues:
    n    l              occ      energy [Ha]    energy [eV]
    1    0           2.0000       -65.491668     -1782.1190
    2    0           2.0000        -5.087967      -138.4506
    3    0           2.0000        -0.391471       -10.6525
    2    1           6.0000        -3.502246       -95.3010
    3    1           2.0000        -0.143943        -3.9169

  Creating fixed part of basis set: Ionic, confined, hydrogenic.

  Si                   ion:

  List of free ionic orbitals and eigenvalues:
    n    l      energy [Ha]    energy [eV]
    1    0       -66.364436     -1805.8682
    2    0        -5.935799      -161.5213
    3    0        -1.078166       -29.3384
    2    1        -4.351123      -118.4001
    3    1        -0.781733       -21.2720


  List of ionic basis orbitals and eigenvalues:
    n    l      energy [Ha]    energy [eV]    outer radius [A]
    3    0        -1.078146       -29.3378       4.214062


  Si                   hydrogenic:

  List of hydrogenic basis orbitals: 
    n    l      effective z      eigenvalue [eV]  inner max. [A]     outer max. [A]     outer radius [A]   
    3    2         4.200000       -26.6624           1.139231           1.139231           4.534782
    2    1         1.400000        -6.4613           1.472672           1.472672           4.590560


  Adding cutoff potential to free-atom effective potential.
  Creating atomic-like basis functions for current effective potential.

  Species Si                  :

  List of atomic basis orbitals and eigenvalues:
    n    l      energy [Ha]    energy [eV]    outer radius [A]
    1    0       -65.491668     -1782.1190       0.789468
    2    0        -5.087967      -138.4506       2.815114
    3    0        -0.391471       -10.6525       4.534782
    2    1        -3.502246       -95.3010       3.259919
    3    1        -0.143943        -3.9169       4.590560

  Assembling full basis from fixed parts.
  | Species Si :   atomic orbital   1 s accepted.
  | Species Si :   atomic orbital   2 s accepted.
  | Species Si :    ionic orbital   3 s accepted.
  | Species Si :   atomic orbital   3 s accepted.
  | Species Si :   atomic orbital   2 p accepted.
  | Species Si :   atomic orbital   3 p accepted.
  | Species Si :    hydro orbital   2 p accepted.
  | Species Si :    hydro orbital   3 d accepted.

  Basis size parameters after reduction:
  | Total number of radial functions:        8
  | Total number of basis functions :       18

  Per-task memory consumption for arrays in subroutine allocate_ext:
  |           2.757468MB.
  Testing on-site integration grid accuracy.
  |  Species  Function  <phi|h_atom|phi> (log., in eV)  <phi|h_atom|phi> (rad., in eV)
           1        1              -1782.1189727076              -1782.1182429251
           1        2               -138.4506350693               -138.4506310079
           1        3                -10.3030408815                -10.3029120678
           1        4                  5.0238999146                  4.9457540310 ***
           1        5                -95.3009689499                -95.3009689315
           1        6                 -3.9266496564                 -3.9420918374
           1        7                  6.3453628447                  6.1632372158 ***
           1        8                  6.2883050744                  6.2861881409
 * Note: Onsite integrals marked "***" above are less accurate than
 * onsite_accuracy_threshold =    0.03000 eV. Usually, this is harmless.
 * When in doubt, tighten the "radial" and/or "radial_multiplier" flags to check.

  Preparing densities etc. for the partition functions (integrals / Hartree potential).

  Preparations completed.
  max(cpu_time)          :      0.129 s.
  Wall clock time (cpu1) :      0.129 s.
------------------------------------------------------------

------------------------------------------------------------
          Begin self-consistency loop: Initialization.

          Date     :  20190514, Time     :  105019.582
------------------------------------------------------------

  Initializing index lists of integration centers etc. from given atomic structure:
  Mapping all atomic coordinates to central unit cell.

  Initializing the k-points
          Using symmetry for reducing the k-points
  | k-points reduced from:     1728 to      868
  | Number of k-points                             :       868
  The eigenvectors in the calculations are COMPLEX.
  | K-points in task   0:       868
  | Number of basis functions in the Hamiltonian integrals :       738
  | Number of basis functions in a single unit cell        :        18
  | Number of centers in hartree potential         :       531
  | Number of centers in hartree multipole         :       141
  | Number of centers in electron density summation:        87
  | Number of centers in basis integrals           :        87
  | Number of centers in integrals                 :        51
  | Number of centers in hamiltonian               :        87
  | Consuming       1193 KiB for k_phase.
  | Number of super-cells (origin) [n_cells]                     :        2197
  | Number of super-cells (after PM_index) [n_cells]             :          88
  | Number of super-cells in hamiltonian [n_cells_in_hamiltonian]:          88
  | Size of matrix packed + index [n_hamiltonian_matrix_size] :       11368
  Partitioning the integration grid into batches with maxmin method.
  | Maximal weight for a single point:     1.000
  | Minimal weight for a single point:     0.651
  | Number of batches:       64
  | Maximal batch size:      90
  | Minimal batch size:      85
  | Average batch size:      87.562
  | Standard deviation of batch sizes:       1.499
  Initializing partition tables, free-atom densities, potentials, etc. across the integration grid (initialize_grid_storage).
  | initialize_grid_storage: Actual outermost partition radius vs. multipole_radius_free
  | (-- VB: in principle, multipole_radius_free should be larger, hence this output)
  | Species        1: Confinement radius =              4.999999999999999 AA, multipole_radius_free =              5.000694715736543 AA.
  | Species        1: outer_partition_radius set to              5.000694715736543 AA .
  | Original list of interatomic distances with          87 x         87 entries is created.
  | Net number of integration points:     5604
  | of which are non-zero points    :     5142
  | Numerical average free-atom electrostatic potential    :     -7.06800097 eV
  Renormalizing the initial density to the exact electron count on the 3D integration grid.
  | Initial density: Formal number of electrons (from input files) :      14.0000000000
  | Integrated number of electrons on 3D grid     :      14.0000109812
  | Charge integration error                      :       0.0000109812
  | Normalization factor for density and gradient :       0.9999992156
  Obtaining max. number of non-zero basis functions in each batch (get_n_compute_maxes).
  | Maximal number of non-zero basis functions:      284 in task     0
  Allocating        2.500 MB for KS_eigenvector_complex
  Integrating Hamiltonian matrix: batch-based integration.
  Time summed over all CPUs for integration: real work        0.126 s, elapsed        0.126 s
  Integrating overlap matrix.
  Time summed over all CPUs for integration: real work        0.092 s, elapsed        0.092 s
  Decreasing sparse matrix size:
   Tolerance:   9.9999998245167004E-014
   Hamiltonian matrix
  | Array has     7629 nonzero elements out of    11368 elements
  | Sparsity factor is 0.329
   Overlap matrix
  | Array has     7139 nonzero elements out of    11368 elements
  | Sparsity factor is 0.372
  New size of hamiltonian matrix:        7768

  Updating Kohn-Sham eigenvalues, eigenvectors, occupation numbers, and Fermi level.
  Solving generalized eigenproblem
  Transforming overlap matrix and checking for singularities.
  Overlap matrix is nonsingular at first k-point:
  | Lowest eigenvalue:  0.148026E-01

  Obtaining occupation numbers and chemical potential using ELSI.
  | Chemical potential (Fermi level):    -4.69408895eV
  Writing Kohn-Sham eigenvalues.
  K-point:       1 at    0.000000    0.000000    0.000000 (in units of recip. lattice)

  State    Occupation    Eigenvalue [Ha]    Eigenvalue [eV]
      1       2.00000         -65.491703        -1782.11990
      2       2.00000          -5.088112         -138.45457
      3       2.00000          -3.502390          -95.30489
      4       2.00000          -3.502390          -95.30489
      5       2.00000          -3.502390          -95.30489
      6       2.00000          -0.480041          -13.06257
      7       0.00000          -0.036657           -0.99747
      8       0.00000          -0.036657           -0.99747
      9       0.00000          -0.036657           -0.99747
     10       0.00000           0.157387            4.28273

  What follows are estimated values for band gap, HOMO, LUMO, etc.
  | They are estimated on a discrete k-point grid and not necessarily exact.
  | For converged numbers, create a DOS and/or band structure plot on a denser k-grid.

  Highest occupied state (VBM) at     -4.69630948 eV (relative to internal zero)
  | Occupation number:      1.24650224
  | K-point:     674 at    0.500000    0.583333    0.250000 (in units of recip. lattice)

  Lowest unoccupied state (CBM) at    -4.66553328 eV (relative to internal zero)
  | Occupation number:      0.00005382
  | K-point:     243 at    0.166667    0.500000    0.666667 (in units of recip. lattice)

  ESTIMATED overall HOMO-LUMO gap:      0.03077621 eV between HOMO at k-point 674 and LUMO at k-point 243
  | This appears to be an indirect band gap.
  | Smallest direct gap :      1.08732407 eV for k_point 761 at    0.166667    0.500000    0.666667 (in units of recip. lattice)
  However, this system has fractional occupation numbers. Since we use a finite k-point grid,
  this material is metallic within the approximate finite broadening function (occupation_type)
  applied to determine the occupation numbers.
  Calculating total energy contributions from superposition of free atom densities.

  Total energy components:
  | Sum of eigenvalues            :        -163.41451212 Ha       -4446.73512208 eV
  | XC energy correction          :         -19.67298104 Ha        -535.32905121 eV
  | XC potential correction       :          25.99263267 Ha         707.29552175 eV
  | Free-atom electrostatic energy:        -132.18508800 Ha       -3596.93925484 eV
  | Hartree energy correction     :          -0.00000000 Ha          -0.00000000 eV
  | Entropy correction            :          -0.00000377 Ha          -0.00010249 eV
  | ---------------------------
  | Total energy                  :        -289.27994849 Ha       -7871.70790637 eV
  | Total energy, T -> 0          :        -289.27995225 Ha       -7871.70800886 eV  <-- do not rely on this value for anything but (periodic) metals
  | Electronic free energy        :        -289.27995602 Ha       -7871.70811135 eV

  Derived energy quantities:
  | Kinetic energy                :         289.55610258 Ha        7879.22244161 eV
  | Electrostatic energy          :        -559.16307003 Ha      -15215.60129678 eV
  | Energy correction for multipole
  | error in Hartree potential    :           0.00000000 Ha           0.00000000 eV
  | Sum of eigenvalues per atom                           :       -4446.73512208 eV
  | Total energy (T->0) per atom                          :       -7871.70800886 eV  <-- do not rely on this value for anything but (periodic) metals
  | Electronic free energy per atom                       :       -7871.70811135 eV
  Initialize hartree_potential_storage
  Max. number of atoms included in rho_multipole:            1

  End scf initialization - timings             :  max(cpu_time)    wall_clock(cpu1)
  | Time for scf. initialization               :        0.568 s           0.567 s
  | Boundary condition initialization          :        0.028 s           0.028 s
  | Integration                                :        0.218 s           0.218 s
  | Solution of K.-S. eqns.                    :        0.265 s           0.265 s
  | Grid partitioning                          :        0.011 s           0.011 s
  | Preloading free-atom quantities on grid    :        0.001 s           0.001 s
  | Free-atom superposition energy             :        0.008 s           0.008 s
  | Total energy evaluation                    :        0.000 s           0.000 s

  Partial memory accounting:
  | Current value for overall tracked memory usage on task 0  :           2.655 MB
  | Peak value for overall tracked memory usage on task 0     :           3.986 MB after allocating wave
  | Largest tracked array allocation on task 0 so far         :           2.500 MB  when allocating +KS_eigenvector_complex
  Note:  These values currently only include a subset of arrays which are explicitly tracked.
  The "true" memory usage will be greater.
------------------------------------------------------------

------------------------------------------------------------
          Begin self-consistency iteration #    1

  Date     :  20190514, Time     :  105020.149
------------------------------------------------------------
  Evaluating new KS density using the density matrix
  Evaluating density matrix
  Time summed over all CPUs for getting density from density matrix: real work        0.213 s, elapsed        0.213 s
  Integration grid: deviation in total charge (<rho> - N_e) =  -3.481659E-13
  Pulay mixing of updated and previous charge densities.

  Evaluating partitioned Hartree potential by multipole expansion.
  | Analytical far-field extrapolation by fixed multipoles:
  | Hartree multipole sum: apparent total charge =  -0.106293E-03
  Summing up the Hartree potential.
  | Estimated reciprocal-space cutoff momentum G_max:         1.90183516 bohr^-1 .
  | Reciprocal lattice points for long-range Hartree potential:      26
  Time summed over all CPUs for potential: real work        0.134 s, elapsed        0.134 s
  | RMS charge density error from multipole expansion :   0.980398E-04
  | Average real-space part of the electrostatic potential :     -0.01147975 eV

  Integrating Hamiltonian matrix: batch-based integration.
  Time summed over all CPUs for integration: real work        0.129 s, elapsed        0.129 s

  Updating Kohn-Sham eigenvalues, eigenvectors, occupation numbers, and Fermi level.
  Solving generalized eigenproblem

  Obtaining occupation numbers and chemical potential using ELSI.
  | Chemical potential (Fermi level):    -4.70169900eV
  Writing Kohn-Sham eigenvalues.
  K-point:       1 at    0.000000    0.000000    0.000000 (in units of recip. lattice)

  State    Occupation    Eigenvalue [Ha]    Eigenvalue [eV]
      1       2.00000         -65.493986        -1782.18202
      2       2.00000          -5.089712         -138.49812
      3       2.00000          -3.504041          -95.34980
      4       2.00000          -3.504041          -95.34980
      5       2.00000          -3.504041          -95.34980
      6       2.00000          -0.480375          -13.07168
      7       0.00000          -0.037101           -1.00958
      8       0.00000          -0.037101           -1.00958
      9       0.00000          -0.037101           -1.00958
     10       0.00000           0.156953            4.27091

  What follows are estimated values for band gap, HOMO, LUMO, etc.
  | They are estimated on a discrete k-point grid and not necessarily exact.
  | For converged numbers, create a DOS and/or band structure plot on a denser k-grid.

  Highest occupied state (VBM) at     -4.70388039 eV (relative to internal zero)
  | Occupation number:      1.24229418
  | K-point:     674 at    0.500000    0.583333    0.250000 (in units of recip. lattice)

  Lowest unoccupied state (CBM) at    -4.67307758 eV (relative to internal zero)
  | Occupation number:      0.00005173
  | K-point:     460 at    0.333333    0.500000    0.833333 (in units of recip. lattice)

  ESTIMATED overall HOMO-LUMO gap:      0.03080281 eV between HOMO at k-point 674 and LUMO at k-point 460
  | This appears to be an indirect band gap.
  | Smallest direct gap :      1.08778914 eV for k_point 33 at    0.333333    0.500000    0.833333 (in units of recip. lattice)
  However, this system has fractional occupation numbers. Since we use a finite k-point grid,
  this material is metallic within the approximate finite broadening function (occupation_type)
  applied to determine the occupation numbers.

  Total energy components:
  | Sum of eigenvalues            :        -163.43354369 Ha       -4447.25299765 eV
  | XC energy correction          :         -19.67132493 Ha        -535.28398639 eV
  | XC potential correction       :          25.99044663 Ha         707.23603652 eV
  | Free-atom electrostatic energy:        -132.18508800 Ha       -3596.93925484 eV
  | Hartree energy correction     :           0.01965291 Ha           0.53478276 eV
  | Entropy correction            :          -0.00000376 Ha          -0.00010227 eV
  | ---------------------------
  | Total energy                  :        -289.27985710 Ha       -7871.70541960 eV
  | Total energy, T -> 0          :        -289.27986086 Ha       -7871.70552187 eV  <-- do not rely on this value for anything but (periodic) metals
  | Electronic free energy        :        -289.27986461 Ha       -7871.70562414 eV

  Derived energy quantities:
  | Kinetic energy                :         289.54087282 Ha        7878.80801864 eV
  | Electrostatic energy          :        -559.14940498 Ha      -15215.22945186 eV
  | Energy correction for multipole
  | error in Hartree potential    :           0.00000936 Ha           0.00025478 eV
  | Sum of eigenvalues per atom                           :       -4447.25299765 eV
  | Total energy (T->0) per atom                          :       -7871.70552187 eV  <-- do not rely on this value for anything but (periodic) metals
  | Electronic free energy per atom                       :       -7871.70562414 eV

  Self-consistency convergence accuracy:
  | Change of charge density      :  0.2851E-01
  | Change of sum of eigenvalues  : -0.5179E+00 eV
  | Change of total energy        :  0.2487E-02 eV

  End self-consistency iteration #     1       :  max(cpu_time)    wall_clock(cpu1)
  | Time for this iteration                    :        0.637 s           0.637 s
  | Charge density update                      :        0.230 s           0.230 s
  | Density mixing & preconditioning           :        0.021 s           0.021 s
  | Hartree multipole update                   :        0.000 s           0.000 s
  | Hartree multipole summation                :        0.138 s           0.138 s
  | Integration                                :        0.129 s           0.129 s
  | Solution of K.-S. eqns.                    :        0.118 s           0.118 s
  | Total energy evaluation                    :        0.000 s           0.000 s

  Partial memory accounting:
  | Current value for overall tracked memory usage on task 0  :           2.655 MB
  | Peak value for overall tracked memory usage on task 0     :           3.986 MB after allocating wave
  | Largest tracked array allocation on task 0 so far         :           2.500 MB  when allocating +KS_eigenvector_complex
  Note:  These values currently only include a subset of arrays which are explicitly tracked.
  The "true" memory usage will be greater.
------------------------------------------------------------

------------------------------------------------------------
          Begin self-consistency iteration #    2

  Date     :  20190514, Time     :  105020.786
------------------------------------------------------------
  Evaluating new KS density using the density matrix
  Evaluating density matrix
  Time summed over all CPUs for getting density from density matrix: real work        0.196 s, elapsed        0.196 s
  Integration grid: deviation in total charge (<rho> - N_e) =  -2.486900E-13
  Pulay mixing of updated and previous charge densities.

  Evaluating partitioned Hartree potential by multipole expansion.
  | Analytical far-field extrapolation by fixed multipoles:
  | Hartree multipole sum: apparent total charge =  -0.229451E-02
  Summing up the Hartree potential.
  Time summed over all CPUs for potential: real work        0.175 s, elapsed        0.175 s
  | RMS charge density error from multipole expansion :   0.191484E-02
  | Average real-space part of the electrostatic potential :     -0.22313649 eV

  Integrating Hamiltonian matrix: batch-based integration.
  Time summed over all CPUs for integration: real work        0.126 s, elapsed        0.126 s

  Updating Kohn-Sham eigenvalues, eigenvectors, occupation numbers, and Fermi level.
  Solving generalized eigenproblem

  Obtaining occupation numbers and chemical potential using ELSI.
  | Chemical potential (Fermi level):    -4.84088405eV
  What follows are estimated values for band gap, HOMO, LUMO, etc.
  | They are estimated on a discrete k-point grid and not necessarily exact.
  | For converged numbers, create a DOS and/or band structure plot on a denser k-grid.

  Highest occupied state (VBM) at     -4.84242595 eV (relative to internal zero)
  | Occupation number:      1.17261596
  | K-point:     592 at    0.416667    0.750000    0.500000 (in units of recip. lattice)

  Lowest unoccupied state (CBM) at    -4.81133988 eV (relative to internal zero)
  | Occupation number:      0.00002939
  | K-point:     243 at    0.166667    0.500000    0.666667 (in units of recip. lattice)

  ESTIMATED overall HOMO-LUMO gap:      0.03108607 eV between HOMO at k-point 592 and LUMO at k-point 243
  | This appears to be an indirect band gap.
  | Smallest direct gap :      1.09542111 eV for k_point 372 at    0.166667    0.500000    0.666667 (in units of recip. lattice)
  However, this system has fractional occupation numbers. Since we use a finite k-point grid,
  this material is metallic within the approximate finite broadening function (occupation_type)
  applied to determine the occupation numbers.

  Checking to see if s.c.f. parameters should be adjusted.
  Adjusted the Pulay mixing parameter (charge_mix_param) for an expected low-gap system. New value:   0.020000 .
  Adjusted the occupation broadening width for an expected low-gap system. New value:      0.05000000 eV.

  Total energy components:
  | Sum of eigenvalues            :        -163.78154579 Ha       -4456.72261638 eV
  | XC energy correction          :         -19.64141510 Ha        -534.47009838 eV
  | XC potential correction       :          25.95096441 Ha         706.16167066 eV
  | Free-atom electrostatic energy:        -132.18508800 Ha       -3596.93925484 eV
  | Hartree energy correction     :           0.37820678 Ha          10.29153018 eV
  | Entropy correction            :          -0.00003263 Ha          -0.00088782 eV
  | ---------------------------
  | Total energy                  :        -289.27887770 Ha       -7871.67876877 eV
  | Total energy, T -> 0          :        -289.27891032 Ha       -7871.67965659 eV  <-- do not rely on this value for anything but (periodic) metals
  | Electronic free energy        :        -289.27894295 Ha       -7871.68054440 eV

  Derived energy quantities:
  | Kinetic energy                :         289.26902436 Ha        7871.41064583 eV
  | Electrostatic energy          :        -558.90648696 Ha      -15208.61931622 eV
  | Energy correction for multipole
  | error in Hartree potential    :           0.00019968 Ha           0.00543364 eV
  | Sum of eigenvalues per atom                           :       -4456.72261638 eV
  | Total energy (T->0) per atom                          :       -7871.67965659 eV  <-- do not rely on this value for anything but (periodic) metals
  | Electronic free energy per atom                       :       -7871.68054440 eV

  Self-consistency convergence accuracy:
  | Change of charge density      :  0.2713E-01
  | Change of sum of eigenvalues  : -0.9470E+01 eV
  | Change of total energy        :  0.2665E-01 eV

  End self-consistency iteration #     2       :  max(cpu_time)    wall_clock(cpu1)
  | Time for this iteration                    :        0.653 s           0.653 s
  | Charge density update                      :        0.210 s           0.211 s
  | Density mixing & preconditioning           :        0.021 s           0.021 s
  | Hartree multipole update                   :        0.002 s           0.001 s
  | Hartree multipole summation                :        0.177 s           0.177 s
  | Integration                                :        0.126 s           0.126 s
  | Solution of K.-S. eqns.                    :        0.117 s           0.117 s
  | Total energy evaluation                    :        0.000 s           0.000 s

  Partial memory accounting:
  | Current value for overall tracked memory usage on task 0  :           2.657 MB
  | Peak value for overall tracked memory usage on task 0     :           3.986 MB after allocating wave
  | Largest tracked array allocation on task 0 so far         :           2.500 MB  when allocating +KS_eigenvector_complex
  Note:  These values currently only include a subset of arrays which are explicitly tracked.
  The "true" memory usage will be greater.
------------------------------------------------------------

------------------------------------------------------------
          Begin self-consistency iteration #    3

  Date     :  20190514, Time     :  105021.440
------------------------------------------------------------
  Evaluating new KS density using the density matrix
  Evaluating density matrix
  Time summed over all CPUs for getting density from density matrix: real work        0.196 s, elapsed        0.196 s
  Integration grid: deviation in total charge (<rho> - N_e) =  -3.552714E-13
  Pulay mixing of updated and previous charge densities.

  Evaluating partitioned Hartree potential by multipole expansion.
  | Analytical far-field extrapolation by fixed multipoles:
  | Hartree multipole sum: apparent total charge =  -0.292607E-02
  Summing up the Hartree potential.
  Time summed over all CPUs for potential: real work        0.205 s, elapsed        0.205 s
  | RMS charge density error from multipole expansion :   0.224474E-02
  | Average real-space part of the electrostatic potential :     -0.27011690 eV

  Integrating Hamiltonian matrix: batch-based integration.
  Time summed over all CPUs for integration: real work        0.141 s, elapsed        0.141 s

  Updating Kohn-Sham eigenvalues, eigenvectors, occupation numbers, and Fermi level.
  Solving generalized eigenproblem

  Obtaining occupation numbers and chemical potential using ELSI.
  | Chemical potential (Fermi level):    -4.85917829eV
  What follows are estimated values for band gap, HOMO, LUMO, etc.
  | They are estimated on a discrete k-point grid and not necessarily exact.
  | For converged numbers, create a DOS and/or band structure plot on a denser k-grid.

  Highest occupied state (VBM) at     -4.86842424 eV (relative to internal zero)
  | Occupation number:      1.20630447
  | K-point:     394 at    0.250000    0.916667    0.500000 (in units of recip. lattice)

  Lowest unoccupied state (CBM) at    -4.83732891 eV (relative to internal zero)
  | Occupation number:      0.53657945
  | K-point:     637 at    0.500000    0.166667    0.666667 (in units of recip. lattice)

  ESTIMATED overall HOMO-LUMO gap:      0.03109532 eV between HOMO at k-point 394 and LUMO at k-point 637
  | This appears to be an indirect band gap.
  | Smallest direct gap :      1.09652048 eV for k_point 372 at    0.500000    0.166667    0.666667 (in units of recip. lattice)
  However, this system has fractional occupation numbers. Since we use a finite k-point grid,
  this material is metallic within the approximate finite broadening function (occupation_type)
  applied to determine the occupation numbers.

  Total energy components:
  | Sum of eigenvalues            :        -163.80795656 Ha       -4457.44129013 eV
  | XC energy correction          :         -19.64117199 Ha        -534.46348297 eV
  | XC potential correction       :          25.95069071 Ha         706.15422299 eV
  | Free-atom electrostatic energy:        -132.18508800 Ha       -3596.93925484 eV
  | Hartree energy correction     :           0.40470837 Ha          11.01267520 eV
  | Entropy correction            :          -0.00003195 Ha          -0.00086927 eV
  | ---------------------------
  | Total energy                  :        -289.27881747 Ha       -7871.67712975 eV
  | Total energy, T -> 0          :        -289.27884941 Ha       -7871.67799902 eV  <-- do not rely on this value for anything but (periodic) metals
  | Electronic free energy        :        -289.27888136 Ha       -7871.67886828 eV

  Derived energy quantities:
  | Kinetic energy                :         289.32289225 Ha        7872.87646564 eV
  | Electrostatic energy          :        -558.96053773 Ha      -15210.09011242 eV
  | Energy correction for multipole
  | error in Hartree potential    :           0.00025258 Ha           0.00687310 eV
  | Sum of eigenvalues per atom                           :       -4457.44129013 eV
  | Total energy (T->0) per atom                          :       -7871.67799902 eV  <-- do not rely on this value for anything but (periodic) metals
  | Electronic free energy per atom                       :       -7871.67886828 eV

  Self-consistency convergence accuracy:
  | Change of charge density      :  0.6808E-02
  | Change of sum of eigenvalues  : -0.7187E+00 eV
  | Change of total energy        :  0.1639E-02 eV

  End self-consistency iteration #     3       :  max(cpu_time)    wall_clock(cpu1)
  | Time for this iteration                    :        0.706 s           0.705 s
  | Charge density update                      :        0.212 s           0.211 s
  | Density mixing & preconditioning           :        0.025 s           0.025 s
  | Hartree multipole update                   :        0.000 s           0.001 s
  | Hartree multipole summation                :        0.206 s           0.206 s
  | Integration                                :        0.141 s           0.141 s
  | Solution of K.-S. eqns.                    :        0.121 s           0.121 s
  | Total energy evaluation                    :        0.000 s           0.000 s

  Partial memory accounting:
  | Current value for overall tracked memory usage on task 0  :           2.657 MB
  | Peak value for overall tracked memory usage on task 0     :           3.986 MB after allocating wave
  | Largest tracked array allocation on task 0 so far         :           2.500 MB  when allocating +KS_eigenvector_complex
  Note:  These values currently only include a subset of arrays which are explicitly tracked.
  The "true" memory usage will be greater.
------------------------------------------------------------

------------------------------------------------------------
          Begin self-consistency iteration #    4

  Date     :  20190514, Time     :  105022.145
------------------------------------------------------------
  Evaluating new KS density using the density matrix
  Evaluating density matrix
  Time summed over all CPUs for getting density from density matrix: real work        0.207 s, elapsed        0.207 s
  Integration grid: deviation in total charge (<rho> - N_e) =  -3.534950E-13
  Pulay mixing of updated and previous charge densities.

  Evaluating partitioned Hartree potential by multipole expansion.
  | Analytical far-field extrapolation by fixed multipoles:
  | Hartree multipole sum: apparent total charge =  -0.302440E-02
  Summing up the Hartree potential.
  Time summed over all CPUs for potential: real work        0.191 s, elapsed        0.191 s
  | RMS charge density error from multipole expansion :   0.234339E-02
  | Average real-space part of the electrostatic potential :     -0.28423108 eV

  Integrating Hamiltonian matrix: batch-based integration.
  Time summed over all CPUs for integration: real work        0.127 s, elapsed        0.127 s

  Updating Kohn-Sham eigenvalues, eigenvectors, occupation numbers, and Fermi level.
  Solving generalized eigenproblem

  Obtaining occupation numbers and chemical potential using ELSI.
  | Chemical potential (Fermi level):    -4.86684115eV
  What follows are estimated values for band gap, HOMO, LUMO, etc.
  | They are estimated on a discrete k-point grid and not necessarily exact.
  | For converged numbers, create a DOS and/or band structure plot on a denser k-grid.

  Highest occupied state (VBM) at     -4.87595838 eV (relative to internal zero)
  | Occupation number:      1.20349593
  | K-point:     592 at    0.416667    0.750000    0.500000 (in units of recip. lattice)

  Lowest unoccupied state (CBM) at    -4.84486230 eV (relative to internal zero)
  | Occupation number:      0.53416818
  | K-point:     637 at    0.500000    0.166667    0.666667 (in units of recip. lattice)

  ESTIMATED overall HOMO-LUMO gap:      0.03109608 eV between HOMO at k-point 592 and LUMO at k-point 637
  | This appears to be an indirect band gap.
  | Smallest direct gap :      1.09683870 eV for k_point 372 at    0.500000    0.166667    0.666667 (in units of recip. lattice)
  However, this system has fractional occupation numbers. Since we use a finite k-point grid,
  this material is metallic within the approximate finite broadening function (occupation_type)
  applied to determine the occupation numbers.

  Total energy components:
  | Sum of eigenvalues            :        -163.81672981 Ha       -4457.68002228 eV
  | XC energy correction          :         -19.64094295 Ha        -534.45725050 eV
  | XC potential correction       :          25.95040122 Ha         706.14634556 eV
  | Free-atom electrostatic energy:        -132.18508800 Ha       -3596.93925484 eV
  | Hartree energy correction     :           0.41354560 Ha          11.25314843 eV
  | Entropy correction            :          -0.00003191 Ha          -0.00086838 eV
  | ---------------------------
  | Total energy                  :        -289.27881393 Ha       -7871.67703361 eV
  | Total energy, T -> 0          :        -289.27884584 Ha       -7871.67790199 eV  <-- do not rely on this value for anything but (periodic) metals
  | Electronic free energy        :        -289.27887776 Ha       -7871.67877037 eV

  Derived energy quantities:
  | Kinetic energy                :         289.33577551 Ha        7873.22703698 eV
  | Electrostatic energy          :        -558.97364649 Ha      -15210.44682010 eV
  | Energy correction for multipole
  | error in Hartree potential    :           0.00026818 Ha           0.00729765 eV
  | Sum of eigenvalues per atom                           :       -4457.68002228 eV
  | Total energy (T->0) per atom                          :       -7871.67790199 eV  <-- do not rely on this value for anything but (periodic) metals
  | Electronic free energy per atom                       :       -7871.67877037 eV

  Self-consistency convergence accuracy:
  | Change of charge density      :  0.1145E-02
  | Change of sum of eigenvalues  : -0.2387E+00 eV
  | Change of total energy        :  0.9613E-04 eV

  End self-consistency iteration #     4       :  max(cpu_time)    wall_clock(cpu1)
  | Time for this iteration                    :        0.684 s           0.684 s
  | Charge density update                      :        0.224 s           0.224 s
  | Density mixing & preconditioning           :        0.023 s           0.024 s
  | Hartree multipole update                   :        0.000 s           0.000 s
  | Hartree multipole summation                :        0.193 s           0.193 s
  | Integration                                :        0.127 s           0.127 s
  | Solution of K.-S. eqns.                    :        0.116 s           0.116 s
  | Total energy evaluation                    :        0.000 s           0.000 s

  Partial memory accounting:
  | Current value for overall tracked memory usage on task 0  :           2.657 MB
  | Peak value for overall tracked memory usage on task 0     :           3.986 MB after allocating wave
  | Largest tracked array allocation on task 0 so far         :           2.500 MB  when allocating +KS_eigenvector_complex
  Note:  These values currently only include a subset of arrays which are explicitly tracked.
  The "true" memory usage will be greater.
------------------------------------------------------------

------------------------------------------------------------
          Begin self-consistency iteration #    5

  Date     :  20190514, Time     :  105022.830
------------------------------------------------------------
  Evaluating new KS density using the density matrix
  Evaluating density matrix
  Time summed over all CPUs for getting density from density matrix: real work        0.196 s, elapsed        0.196 s
  Integration grid: deviation in total charge (<rho> - N_e) =  -3.588241E-13
  Pulay mixing of updated and previous charge densities.

  Evaluating partitioned Hartree potential by multipole expansion.
  | Analytical far-field extrapolation by fixed multipoles:
  | Hartree multipole sum: apparent total charge =  -0.678228E-03
  Summing up the Hartree potential.
  Time summed over all CPUs for potential: real work        0.178 s, elapsed        0.178 s
  | RMS charge density error from multipole expansion :   0.230577E-02
  | Average real-space part of the electrostatic potential :     -0.29501347 eV

  Integrating Hamiltonian matrix: batch-based integration.
  Time summed over all CPUs for integration: real work        0.128 s, elapsed        0.128 s

  Updating Kohn-Sham eigenvalues, eigenvectors, occupation numbers, and Fermi level.
  Solving generalized eigenproblem

  Obtaining occupation numbers and chemical potential using ELSI.
  | Chemical potential (Fermi level):    -4.86310292eV
  What follows are estimated values for band gap, HOMO, LUMO, etc.
  | They are estimated on a discrete k-point grid and not necessarily exact.
  | For converged numbers, create a DOS and/or band structure plot on a denser k-grid.

  Highest occupied state (VBM) at     -4.87225342 eV (relative to internal zero)
  | Occupation number:      1.20422226
  | K-point:     612 at    0.416667    0.916667    0.666667 (in units of recip. lattice)

  Lowest unoccupied state (CBM) at    -4.84116450 eV (relative to internal zero)
  | Occupation number:      0.53492056
  | K-point:     259 at    0.166667    0.666667    0.500000 (in units of recip. lattice)

  ESTIMATED overall HOMO-LUMO gap:      0.03108893 eV between HOMO at k-point 612 and LUMO at k-point 259
  | This appears to be an indirect band gap.
  | Smallest direct gap :      1.09671725 eV for k_point 761 at    0.166667    0.666667    0.500000 (in units of recip. lattice)
  However, this system has fractional occupation numbers. Since we use a finite k-point grid,
  this material is metallic within the approximate finite broadening function (occupation_type)
  applied to determine the occupation numbers.

  Total energy components:
  | Sum of eigenvalues            :        -163.81172644 Ha       -4457.54387370 eV
  | XC energy correction          :         -19.64045858 Ha        -534.44407011 eV
  | XC potential correction       :          25.94977029 Ha         706.12917707 eV
  | Free-atom electrostatic energy:        -132.18508800 Ha       -3596.93925484 eV
  | Hartree energy correction     :           0.40868876 Ha          11.12098702 eV
  | Entropy correction            :          -0.00003192 Ha          -0.00086862 eV
  | ---------------------------
  | Total energy                  :        -289.27881397 Ha       -7871.67703455 eV
  | Total energy, T -> 0          :        -289.27884589 Ha       -7871.67790318 eV  <-- do not rely on this value for anything but (periodic) metals
  | Electronic free energy        :        -289.27887781 Ha       -7871.67877180 eV

  Derived energy quantities:
  | Kinetic energy                :         289.33371536 Ha        7873.17097739 eV
  | Electrostatic energy          :        -558.97207075 Ha      -15210.40394182 eV
  | Energy correction for multipole
  | error in Hartree potential    :           0.00026616 Ha           0.00724258 eV
  | Sum of eigenvalues per atom                           :       -4457.54387370 eV
  | Total energy (T->0) per atom                          :       -7871.67790318 eV  <-- do not rely on this value for anything but (periodic) metals
  | Electronic free energy per atom                       :       -7871.67877180 eV

  Self-consistency convergence accuracy:
  | Change of charge density      :  0.6931E-03
  | Change of sum of eigenvalues  :  0.1361E+00 eV
  | Change of total energy        : -0.9410E-06 eV

  End self-consistency iteration #     5       :  max(cpu_time)    wall_clock(cpu1)
  | Time for this iteration                    :        0.658 s           0.658 s
  | Charge density update                      :        0.211 s           0.211 s
  | Density mixing & preconditioning           :        0.020 s           0.019 s
  | Hartree multipole update                   :        0.000 s           0.001 s
  | Hartree multipole summation                :        0.180 s           0.179 s
  | Integration                                :        0.128 s           0.128 s
  | Solution of K.-S. eqns.                    :        0.119 s           0.119 s
  | Total energy evaluation                    :        0.000 s           0.000 s

  Partial memory accounting:
  | Current value for overall tracked memory usage on task 0  :           2.657 MB
  | Peak value for overall tracked memory usage on task 0     :           3.986 MB after allocating wave
  | Largest tracked array allocation on task 0 so far         :           2.500 MB  when allocating +KS_eigenvector_complex
  Note:  These values currently only include a subset of arrays which are explicitly tracked.
  The "true" memory usage will be greater.
------------------------------------------------------------

------------------------------------------------------------
          Begin self-consistency iteration #    6

  Date     :  20190514, Time     :  105023.488
------------------------------------------------------------
  Evaluating new KS density using the density matrix
  Evaluating density matrix
  Time summed over all CPUs for getting density from density matrix: real work        0.194 s, elapsed        0.194 s
  Integration grid: deviation in total charge (<rho> - N_e) =  -2.984279E-13
  Pulay mixing of updated and previous charge densities.

  Evaluating partitioned Hartree potential by multipole expansion.
  | Analytical far-field extrapolation by fixed multipoles:
  | Hartree multipole sum: apparent total charge =  -0.150465E-03
  Summing up the Hartree potential.
  Time summed over all CPUs for potential: real work        0.181 s, elapsed        0.181 s
  | RMS charge density error from multipole expansion :   0.230391E-02
  | Average real-space part of the electrostatic potential :     -0.29799222 eV

  Integrating Hamiltonian matrix: batch-based integration.
  Time summed over all CPUs for integration: real work        0.132 s, elapsed        0.132 s

  Updating Kohn-Sham eigenvalues, eigenvectors, occupation numbers, and Fermi level.
  Solving generalized eigenproblem

  Obtaining occupation numbers and chemical potential using ELSI.
  | Chemical potential (Fermi level):    -4.86272448eV
  What follows are estimated values for band gap, HOMO, LUMO, etc.
  | They are estimated on a discrete k-point grid and not necessarily exact.
  | For converged numbers, create a DOS and/or band structure plot on a denser k-grid.

  Highest occupied state (VBM) at     -4.87187347 eV (relative to internal zero)
  | Occupation number:      1.20418924
  | K-point:     707 at    0.583333    0.500000    0.250000 (in units of recip. lattice)

  Lowest unoccupied state (CBM) at    -4.84078604 eV (relative to internal zero)
  | Occupation number:      0.53492027
  | K-point:     259 at    0.166667    0.666667    0.500000 (in units of recip. lattice)

  ESTIMATED overall HOMO-LUMO gap:      0.03108743 eV between HOMO at k-point 707 and LUMO at k-point 259
  | This appears to be an indirect band gap.
  | Smallest direct gap :      1.09671465 eV for k_point 761 at    0.166667    0.666667    0.500000 (in units of recip. lattice)
  However, this system has fractional occupation numbers. Since we use a finite k-point grid,
  this material is metallic within the approximate finite broadening function (occupation_type)
  applied to determine the occupation numbers.

  Total energy components:
  | Sum of eigenvalues            :        -163.81270251 Ha       -4457.57043410 eV
  | XC energy correction          :         -19.64012457 Ha        -534.43498124 eV
  | XC potential correction       :          25.94933013 Ha         706.11719963 eV
  | Free-atom electrostatic energy:        -132.18508800 Ha       -3596.93925484 eV
  | Hartree energy correction     :           0.40977103 Ha          11.15043713 eV
  | Entropy correction            :          -0.00003192 Ha          -0.00086862 eV
  | ---------------------------
  | Total energy                  :        -289.27881393 Ha       -7871.67703343 eV
  | Total energy, T -> 0          :        -289.27884585 Ha       -7871.67790205 eV  <-- do not rely on this value for anything but (periodic) metals
  | Electronic free energy        :        -289.27887777 Ha       -7871.67877067 eV

  Derived energy quantities:
  | Kinetic energy                :         289.32981332 Ha        7873.06479767 eV
  | Electrostatic energy          :        -558.96850268 Ha      -15210.30684985 eV
  | Energy correction for multipole
  | error in Hartree potential    :           0.00026609 Ha           0.00724070 eV
  | Sum of eigenvalues per atom                           :       -4457.57043410 eV
  | Total energy (T->0) per atom                          :       -7871.67790205 eV  <-- do not rely on this value for anything but (periodic) metals
  | Electronic free energy per atom                       :       -7871.67877067 eV

  Self-consistency convergence accuracy:
  | Change of charge density      :  0.2812E-03
  | Change of sum of eigenvalues  : -0.2656E-01 eV
  | Change of total energy        :  0.1128E-05 eV

  End self-consistency iteration #     6       :  max(cpu_time)    wall_clock(cpu1)
  | Time for this iteration                    :        0.668 s           0.667 s
  | Charge density update                      :        0.210 s           0.209 s
  | Density mixing & preconditioning           :        0.020 s           0.020 s
  | Hartree multipole update                   :        0.001 s           0.001 s
  | Hartree multipole summation                :        0.184 s           0.185 s
  | Integration                                :        0.132 s           0.132 s
  | Solution of K.-S. eqns.                    :        0.120 s           0.120 s
  | Total energy evaluation                    :        0.000 s           0.000 s

  Partial memory accounting:
  | Current value for overall tracked memory usage on task 0  :           2.658 MB
  | Peak value for overall tracked memory usage on task 0     :           3.986 MB after allocating wave
  | Largest tracked array allocation on task 0 so far         :           2.500 MB  when allocating +KS_eigenvector_complex
  Note:  These values currently only include a subset of arrays which are explicitly tracked.
  The "true" memory usage will be greater.
------------------------------------------------------------

------------------------------------------------------------
          Begin self-consistency iteration #    7

  Date     :  20190514, Time     :  105024.155
------------------------------------------------------------
  Evaluating new KS density using the density matrix
  Evaluating density matrix
  Time summed over all CPUs for getting density from density matrix: real work        0.196 s, elapsed        0.196 s
  Integration grid: deviation in total charge (<rho> - N_e) =  -2.948752E-13
  Pulay mixing of updated and previous charge densities.

  Evaluating partitioned Hartree potential by multipole expansion.
  | Analytical far-field extrapolation by fixed multipoles:
  | Hartree multipole sum: apparent total charge =   0.467584E-04
  Summing up the Hartree potential.
  Time summed over all CPUs for potential: real work        0.184 s, elapsed        0.184 s
  | RMS charge density error from multipole expansion :   0.229911E-02
  | Average real-space part of the electrostatic potential :     -0.29859652 eV

  Integrating Hamiltonian matrix: batch-based integration.
  Time summed over all CPUs for integration: real work        0.138 s, elapsed        0.138 s

  Updating Kohn-Sham eigenvalues, eigenvectors, occupation numbers, and Fermi level.
  Solving generalized eigenproblem

  Obtaining occupation numbers and chemical potential using ELSI.
  | Chemical potential (Fermi level):    -4.86226687eV
  What follows are estimated values for band gap, HOMO, LUMO, etc.
  | They are estimated on a discrete k-point grid and not necessarily exact.
  | For converged numbers, create a DOS and/or band structure plot on a denser k-grid.

  Highest occupied state (VBM) at     -4.87142141 eV (relative to internal zero)
  | Occupation number:      1.20431045
  | K-point:     592 at    0.416667    0.750000    0.500000 (in units of recip. lattice)

  Lowest unoccupied state (CBM) at    -4.84033610 eV (relative to internal zero)
  | Occupation number:      0.53506310
  | K-point:     243 at    0.166667    0.500000    0.666667 (in units of recip. lattice)

  ESTIMATED overall HOMO-LUMO gap:      0.03108531 eV between HOMO at k-point 592 and LUMO at k-point 243
  | This appears to be an indirect band gap.
  | Smallest direct gap :      1.09669039 eV for k_point 372 at    0.166667    0.500000    0.666667 (in units of recip. lattice)
  However, this system has fractional occupation numbers. Since we use a finite k-point grid,
  this material is metallic within the approximate finite broadening function (occupation_type)
  applied to determine the occupation numbers.

  Total energy components:
  | Sum of eigenvalues            :        -163.81176082 Ha       -4457.54480934 eV
  | XC energy correction          :         -19.64013354 Ha        -534.43522527 eV
  | XC potential correction       :          25.94934277 Ha         706.11754377 eV
  | Free-atom electrostatic energy:        -132.18508800 Ha       -3596.93925484 eV
  | Hartree energy correction     :           0.40882544 Ha          11.12470623 eV
  | Entropy correction            :          -0.00003192 Ha          -0.00086867 eV
  | ---------------------------
  | Total energy                  :        -289.27881415 Ha       -7871.67703945 eV
  | Total energy, T -> 0          :        -289.27884607 Ha       -7871.67790812 eV  <-- do not rely on this value for anything but (periodic) metals
  | Electronic free energy        :        -289.27887799 Ha       -7871.67877679 eV

  Derived energy quantities:
  | Kinetic energy                :         289.33019047 Ha        7873.07506027 eV
  | Electrostatic energy          :        -558.96887108 Ha      -15210.31687445 eV
  | Energy correction for multipole
  | error in Hartree potential    :           0.00026529 Ha           0.00721887 eV
  | Sum of eigenvalues per atom                           :       -4457.54480934 eV
  | Total energy (T->0) per atom                          :       -7871.67790812 eV  <-- do not rely on this value for anything but (periodic) metals
  | Electronic free energy per atom                       :       -7871.67877679 eV

  Self-consistency convergence accuracy:
  | Change of charge density      :  0.5065E-04
  | Change of sum of eigenvalues  :  0.2562E-01 eV
  | Change of total energy        : -0.6022E-05 eV

  End self-consistency iteration #     7       :  max(cpu_time)    wall_clock(cpu1)
  | Time for this iteration                    :        0.678 s           0.678 s
  | Charge density update                      :        0.212 s           0.212 s
  | Density mixing & preconditioning           :        0.023 s           0.023 s
  | Hartree multipole update                   :        0.001 s           0.001 s
  | Hartree multipole summation                :        0.186 s           0.186 s
  | Integration                                :        0.138 s           0.138 s
  | Solution of K.-S. eqns.                    :        0.118 s           0.118 s
  | Total energy evaluation                    :        0.000 s           0.000 s

  Partial memory accounting:
  | Current value for overall tracked memory usage on task 0  :           2.658 MB
  | Peak value for overall tracked memory usage on task 0     :           3.986 MB after allocating wave
  | Largest tracked array allocation on task 0 so far         :           2.500 MB  when allocating +KS_eigenvector_complex
  Note:  These values currently only include a subset of arrays which are explicitly tracked.
  The "true" memory usage will be greater.
------------------------------------------------------------

------------------------------------------------------------
          Begin self-consistency iteration #    8

  Date     :  20190514, Time     :  105024.834
------------------------------------------------------------
  Evaluating new KS density using the density matrix
  Evaluating density matrix
  Time summed over all CPUs for getting density from density matrix: real work        0.199 s, elapsed        0.199 s
  Integration grid: deviation in total charge (<rho> - N_e) =  -3.357314E-13
  Pulay mixing of updated and previous charge densities.

  Evaluating partitioned Hartree potential by multipole expansion.
  | Analytical far-field extrapolation by fixed multipoles:
  | Hartree multipole sum: apparent total charge =   0.213122E-04
  Summing up the Hartree potential.
  Time summed over all CPUs for potential: real work        0.175 s, elapsed        0.175 s
  | RMS charge density error from multipole expansion :   0.230104E-02
  | Average real-space part of the electrostatic potential :     -0.29867548 eV

  Integrating Hamiltonian matrix: batch-based integration.
  Time summed over all CPUs for integration: real work        0.159 s, elapsed        0.159 s

  Updating Kohn-Sham eigenvalues, eigenvectors, occupation numbers, and Fermi level.
  Solving generalized eigenproblem

  Obtaining occupation numbers and chemical potential using ELSI.
  | Chemical potential (Fermi level):    -4.86242584eV
  What follows are estimated values for band gap, HOMO, LUMO, etc.
  | They are estimated on a discrete k-point grid and not necessarily exact.
  | For converged numbers, create a DOS and/or band structure plot on a denser k-grid.

  Highest occupied state (VBM) at     -4.87157789 eV (relative to internal zero)
  | Occupation number:      1.20425592
  | K-point:     375 at    0.250000    0.750000    0.333333 (in units of recip. lattice)

  Lowest unoccupied state (CBM) at    -4.84049243 eV (relative to internal zero)
  | Occupation number:      0.53501373
  | K-point:     243 at    0.166667    0.500000    0.666667 (in units of recip. lattice)

  ESTIMATED overall HOMO-LUMO gap:      0.03108546 eV between HOMO at k-point 375 and LUMO at k-point 243
  | This appears to be an indirect band gap.
  | Smallest direct gap :      1.09669751 eV for k_point 372 at    0.166667    0.500000    0.666667 (in units of recip. lattice)
  However, this system has fractional occupation numbers. Since we use a finite k-point grid,
  this material is metallic within the approximate finite broadening function (occupation_type)
  applied to determine the occupation numbers.

  Total energy components:
  | Sum of eigenvalues            :        -163.81212257 Ha       -4457.55465294 eV
  | XC energy correction          :         -19.64011199 Ha        -534.43463903 eV
  | XC potential correction       :          25.94931424 Ha         706.11676731 eV
  | Free-atom electrostatic energy:        -132.18508800 Ha       -3596.93925484 eV
  | Hartree energy correction     :           0.40919422 Ha          11.13474122 eV
  | Entropy correction            :          -0.00003192 Ha          -0.00086865 eV
  | ---------------------------
  | Total energy                  :        -289.27881410 Ha       -7871.67703828 eV
  | Total energy, T -> 0          :        -289.27884603 Ha       -7871.67790693 eV  <-- do not rely on this value for anything but (periodic) metals
  | Electronic free energy        :        -289.27887795 Ha       -7871.67877558 eV

  Derived energy quantities:
  | Kinetic energy                :         289.32995836 Ha        7873.06874427 eV
  | Electrostatic energy          :        -558.96866047 Ha      -15210.31114351 eV
  | Energy correction for multipole
  | error in Hartree potential    :           0.00026551 Ha           0.00722492 eV
  | Sum of eigenvalues per atom                           :       -4457.55465294 eV
  | Total energy (T->0) per atom                          :       -7871.67790693 eV  <-- do not rely on this value for anything but (periodic) metals
  | Electronic free energy per atom                       :       -7871.67877558 eV

  Self-consistency convergence accuracy:
  | Change of charge density      :  0.3259E-04
  | Change of sum of eigenvalues  : -0.9844E-02 eV
  | Change of total energy        :  0.1171E-05 eV

  End self-consistency iteration #     8       :  max(cpu_time)    wall_clock(cpu1)
  | Time for this iteration                    :        0.716 s           0.715 s
  | Charge density update                      :        0.214 s           0.214 s
  | Density mixing & preconditioning           :        0.020 s           0.020 s
  | Hartree multipole update                   :        0.001 s           0.002 s
  | Hartree multipole summation                :        0.177 s           0.176 s
  | Integration                                :        0.159 s           0.159 s
  | Solution of K.-S. eqns.                    :        0.144 s           0.144 s
  | Total energy evaluation                    :        0.000 s           0.000 s

  Partial memory accounting:
  | Current value for overall tracked memory usage on task 0  :           2.658 MB
  | Peak value for overall tracked memory usage on task 0     :           3.986 MB after allocating wave
  | Largest tracked array allocation on task 0 so far         :           2.500 MB  when allocating +KS_eigenvector_complex
  Note:  These values currently only include a subset of arrays which are explicitly tracked.
  The "true" memory usage will be greater.
------------------------------------------------------------

------------------------------------------------------------
          Begin self-consistency iteration #    9

  Date     :  20190514, Time     :  105025.549
------------------------------------------------------------
  Evaluating new KS density using the density matrix
  Evaluating density matrix
  Time summed over all CPUs for getting density from density matrix: real work        0.237 s, elapsed        0.237 s
  Integration grid: deviation in total charge (<rho> - N_e) =  -4.245493E-13
  Pulay mixing of updated and previous charge densities.

  Evaluating partitioned Hartree potential by multipole expansion.
  | Analytical far-field extrapolation by fixed multipoles:
  | Hartree multipole sum: apparent total charge =   0.185104E-04
  Summing up the Hartree potential.
  Time summed over all CPUs for potential: real work        0.224 s, elapsed        0.224 s
  | RMS charge density error from multipole expansion :   0.230125E-02
  | Average real-space part of the electrostatic potential :     -0.29869700 eV

  Integrating Hamiltonian matrix: batch-based integration.
  Time summed over all CPUs for integration: real work        0.178 s, elapsed        0.178 s

  Updating Kohn-Sham eigenvalues, eigenvectors, occupation numbers, and Fermi level.
  Solving generalized eigenproblem

  Obtaining occupation numbers and chemical potential using ELSI.
  | Chemical potential (Fermi level):    -4.86245674eV
  What follows are estimated values for band gap, HOMO, LUMO, etc.
  | They are estimated on a discrete k-point grid and not necessarily exact.
  | For converged numbers, create a DOS and/or band structure plot on a denser k-grid.

  Highest occupied state (VBM) at     -4.87160822 eV (relative to internal zero)
  | Occupation number:      1.20424356
  | K-point:     375 at    0.250000    0.750000    0.333333 (in units of recip. lattice)

  Lowest unoccupied state (CBM) at    -4.84052273 eV (relative to internal zero)
  | Occupation number:      0.53500276
  | K-point:     259 at    0.166667    0.666667    0.500000 (in units of recip. lattice)

  ESTIMATED overall HOMO-LUMO gap:      0.03108549 eV between HOMO at k-point 375 and LUMO at k-point 259
  | This appears to be an indirect band gap.
  | Smallest direct gap :      1.09669919 eV for k_point 761 at    0.166667    0.666667    0.500000 (in units of recip. lattice)
  However, this system has fractional occupation numbers. Since we use a finite k-point grid,
  this material is metallic within the approximate finite broadening function (occupation_type)
  applied to determine the occupation numbers.

  Total energy components:
  | Sum of eigenvalues            :        -163.81222885 Ha       -4457.55754495 eV
  | XC energy correction          :         -19.64010255 Ha        -534.43438203 eV
  | XC potential correction       :          25.94930173 Ha         706.11642687 eV
  | Free-atom electrostatic energy:        -132.18508800 Ha       -3596.93925484 eV
  | Hartree energy correction     :           0.40930357 Ha          11.13771678 eV
  | Entropy correction            :          -0.00003192 Ha          -0.00086865 eV
  | ---------------------------
  | Total energy                  :        -289.27881410 Ha       -7871.67703817 eV
  | Total energy, T -> 0          :        -289.27884602 Ha       -7871.67790682 eV  <-- do not rely on this value for anything but (periodic) metals
  | Electronic free energy        :        -289.27887794 Ha       -7871.67877546 eV

  Derived energy quantities:
  | Kinetic energy                :         289.32984404 Ha        7873.06563363 eV
  | Electrostatic energy          :        -558.96855560 Ha      -15210.30828977 eV
  | Energy correction for multipole
  | error in Hartree potential    :           0.00026554 Ha           0.00722561 eV
  | Sum of eigenvalues per atom                           :       -4457.55754495 eV
  | Total energy (T->0) per atom                          :       -7871.67790682 eV  <-- do not rely on this value for anything but (periodic) metals
  | Electronic free energy per atom                       :       -7871.67877546 eV

  Self-consistency convergence accuracy:
  | Change of charge density      :  0.7920E-05
  | Change of sum of eigenvalues  : -0.2892E-02 eV
  | Change of total energy        :  0.1096E-06 eV

  End self-consistency iteration #     9       :  max(cpu_time)    wall_clock(cpu1)
  | Time for this iteration                    :        0.834 s           0.835 s
  | Charge density update                      :        0.256 s           0.256 s
  | Density mixing & preconditioning           :        0.032 s           0.032 s
  | Hartree multipole update                   :        0.001 s           0.000 s
  | Hartree multipole summation                :        0.226 s           0.226 s
  | Integration                                :        0.178 s           0.178 s
  | Solution of K.-S. eqns.                    :        0.143 s           0.142 s
  | Total energy evaluation                    :        0.000 s           0.000 s

  Partial memory accounting:
  | Current value for overall tracked memory usage on task 0  :           2.659 MB
  | Peak value for overall tracked memory usage on task 0     :           3.986 MB after allocating wave
  | Largest tracked array allocation on task 0 so far         :           2.500 MB  when allocating +KS_eigenvector_complex
  Note:  These values currently only include a subset of arrays which are explicitly tracked.
  The "true" memory usage will be greater.
------------------------------------------------------------

------------------------------------------------------------
          Begin self-consistency iteration #   10

  Date     :  20190514, Time     :  105026.384
------------------------------------------------------------
  Evaluating new KS density using the density matrix
  Evaluating density matrix
  Time summed over all CPUs for getting density from density matrix: real work        0.209 s, elapsed        0.209 s
  Integration grid: deviation in total charge (<rho> - N_e) =  -1.758593E-13
  Pulay mixing of updated and previous charge densities.

  Evaluating partitioned Hartree potential by multipole expansion.
  | Analytical far-field extrapolation by fixed multipoles:
  | Hartree multipole sum: apparent total charge =   0.186312E-04
  Summing up the Hartree potential.
  Time summed over all CPUs for potential: real work        0.184 s, elapsed        0.184 s
  | RMS charge density error from multipole expansion :   0.230124E-02
  | Average real-space part of the electrostatic potential :     -0.29869603 eV

  Integrating Hamiltonian matrix: batch-based integration.
  Time summed over all CPUs for integration: real work        0.127 s, elapsed        0.127 s

  Updating Kohn-Sham eigenvalues, eigenvectors, occupation numbers, and Fermi level.
  Solving generalized eigenproblem

  Obtaining occupation numbers and chemical potential using ELSI.
  | Chemical potential (Fermi level):    -4.86245549eV
  What follows are estimated values for band gap, HOMO, LUMO, etc.
  | They are estimated on a discrete k-point grid and not necessarily exact.
  | For converged numbers, create a DOS and/or band structure plot on a denser k-grid.

  Highest occupied state (VBM) at     -4.87160699 eV (relative to internal zero)
  | Occupation number:      1.20424404
  | K-point:     375 at    0.250000    0.750000    0.333333 (in units of recip. lattice)

  Lowest unoccupied state (CBM) at    -4.84052151 eV (relative to internal zero)
  | Occupation number:      0.53500319
  | K-point:     259 at    0.166667    0.666667    0.500000 (in units of recip. lattice)

  ESTIMATED overall HOMO-LUMO gap:      0.03108549 eV between HOMO at k-point 375 and LUMO at k-point 259
  | This appears to be an indirect band gap.
  | Smallest direct gap :      1.09669913 eV for k_point 761 at    0.166667    0.666667    0.500000 (in units of recip. lattice)
  However, this system has fractional occupation numbers. Since we use a finite k-point grid,
  this material is metallic within the approximate finite broadening function (occupation_type)
  applied to determine the occupation numbers.

  Total energy components:
  | Sum of eigenvalues            :        -163.81222501 Ha       -4457.55744067 eV
  | XC energy correction          :         -19.64010287 Ha        -534.43439076 eV
  | XC potential correction       :          25.94930215 Ha         706.11643843 eV
  | Free-atom electrostatic energy:        -132.18508800 Ha       -3596.93925484 eV
  | Hartree energy correction     :           0.40929963 Ha          11.13760966 eV
  | Entropy correction            :          -0.00003192 Ha          -0.00086865 eV
  | ---------------------------
  | Total energy                  :        -289.27881410 Ha       -7871.67703817 eV
  | Total energy, T -> 0          :        -289.27884602 Ha       -7871.67790682 eV  <-- do not rely on this value for anything but (periodic) metals
  | Electronic free energy        :        -289.27887794 Ha       -7871.67877547 eV

  Derived energy quantities:
  | Kinetic energy                :         289.32984790 Ha        7873.06573853 eV
  | Electrostatic energy          :        -558.96855913 Ha      -15210.30838595 eV
  | Energy correction for multipole
  | error in Hartree potential    :           0.00026553 Ha           0.00722557 eV
  | Sum of eigenvalues per atom                           :       -4457.55744067 eV
  | Total energy (T->0) per atom                          :       -7871.67790682 eV  <-- do not rely on this value for anything but (periodic) metals
  | Electronic free energy per atom                       :       -7871.67877547 eV

  Self-consistency convergence accuracy:
  | Change of charge density      :  0.2979E-06
  | Change of sum of eigenvalues  :  0.1043E-03 eV
  | Change of total energy        : -0.6732E-08 eV

  Preliminary charge convergence reached. Turning off preconditioner.

  Writing Kohn-Sham eigenvalues.
  K-point:       1 at    0.000000    0.000000    0.000000 (in units of recip. lattice)

  State    Occupation    Eigenvalue [Ha]    Eigenvalue [eV]
      1       2.00000         -65.534894        -1783.29520
      2       2.00000          -5.122595         -139.39289
      3       2.00000          -3.537495          -96.26015
      4       2.00000          -3.537495          -96.26015
      5       2.00000          -3.537495          -96.26015
      6       2.00000          -0.487866          -13.27551
      7       0.00000          -0.046959           -1.27782
      8       0.00000          -0.046959           -1.27782
      9       0.00000          -0.046959           -1.27782
     10       0.00000           0.147466            4.01275

  What follows are estimated values for band gap, HOMO, LUMO, etc.
  | They are estimated on a discrete k-point grid and not necessarily exact.
  | For converged numbers, create a DOS and/or band structure plot on a denser k-grid.

  Highest occupied state (VBM) at     -4.87160699 eV (relative to internal zero)
  | Occupation number:      1.20424404
  | K-point:     375 at    0.250000    0.750000    0.333333 (in units of recip. lattice)

  Lowest unoccupied state (CBM) at    -4.84052151 eV (relative to internal zero)
  | Occupation number:      0.53500319
  | K-point:     259 at    0.166667    0.666667    0.500000 (in units of recip. lattice)

  ESTIMATED overall HOMO-LUMO gap:      0.03108549 eV between HOMO at k-point 375 and LUMO at k-point 259
  | This appears to be an indirect band gap.
  | Smallest direct gap :      1.09669913 eV for k_point 761 at    0.166667    0.666667    0.500000 (in units of recip. lattice)
  However, this system has fractional occupation numbers. Since we use a finite k-point grid,
  this material is metallic within the approximate finite broadening function (occupation_type)
  applied to determine the occupation numbers.

  Self-consistency cycle converged.

  End self-consistency iteration #    10       :  max(cpu_time)    wall_clock(cpu1)
  | Time for this iteration                    :        0.680 s           0.680 s
  | Charge density update                      :        0.228 s           0.228 s
  | Density mixing                             :        0.021 s           0.021 s
  | Hartree multipole update                   :        0.000 s           0.000 s
  | Hartree multipole summation                :        0.187 s           0.187 s
  | Integration                                :        0.127 s           0.127 s
  | Solution of K.-S. eqns.                    :        0.117 s           0.117 s
  | Total energy evaluation                    :        0.000 s           0.000 s

  Partial memory accounting:
  | Current value for overall tracked memory usage on task 0  :           2.659 MB
  | Peak value for overall tracked memory usage on task 0     :           3.986 MB after allocating wave
  | Largest tracked array allocation on task 0 so far         :           2.500 MB  when allocating +KS_eigenvector_complex
  Note:  These values currently only include a subset of arrays which are explicitly tracked.
  The "true" memory usage will be greater.
------------------------------------------------------------

  Energy and forces in a compact form:
  | Total energy uncorrected      :         -0.787167703817398E+04 eV
  | Total energy corrected        :         -0.787167790682238E+04 eV  <-- do not rely on this value for anything but (periodic) metals
  | Electronic free energy        :         -0.787167877547077E+04 eV

  ------------------------------------ 
  Start decomposition of the XC Energy 
  ------------------------------------ 
  X and C from original XC functional choice 
  Hartree-Fock Energy :          0.000000000 Ha              0.000000000 eV
  X Energy            :        -18.583780938 Ha           -505.690408555 eV
  C Energy            :         -1.056321930 Ha            -28.743982202 eV
  Total XC Energy     :        -19.640102868 Ha           -534.434390757 eV
  ------------------------------------ 
  LDA X and C from self-consistent density 
  X Energy LDA        :        -18.583780938 Ha           -505.690408555 eV
  C Energy LDA        :         -1.056321930 Ha            -28.743982202 eV
  ------------------------------------ 
  End decomposition of the XC Energy 
  ------------------------------------ 

------------------------------------------------------------

------------------------------------------------------------------------------
  Final output of selected total energy values:

  The following output summarizes some interesting total energy values
  at the end of a run (AFTER all relaxation, molecular dynamics, etc.).

  | Total energy of the DFT / Hartree-Fock s.c.f. calculation      :          -7871.677038174 eV
  | Final zero-broadening corrected energy (caution - metals only) :          -7871.677906822 eV
  | For reference only, the value of 1 Hartree used in FHI-aims is :             27.211384500 eV

  Before relying on these values, please be sure to understand exactly which
  total energy value is referred to by a given number. Different objects may
  all carry the same name 'total energy'. Definitions:

  Total energy of the DFT / Hartree-Fock s.c.f. calculation:
  | Note that this energy does not include ANY quantities calculated after the
  | s.c.f. cycle, in particular not ANY RPA, MP2, etc. many-body perturbation terms.

  Final zero-broadening corrected energy:
  | For metallic systems only, a broadening of the occupation numbers at the Fermi
  | level can be extrapolated back to zero broadening by an electron-gas inspired
  | formula. For all systems that are not real metals, this value can be
  | meaningless and should be avoided.

------------------------------------------------------------------------------
  Methods described in the following list of references were used in this FHI-aims run.
  If you publish the results, please make sure to cite these reference if they apply.
  FHI-aims is an academic code, and for our developers (often, Ph.D. students
  and postdocs), scientific credit in the community is essential.
  Thank you for helping us!

  For any use of FHI-aims, please cite:

    Volker Blum, Ralf Gehrke, Felix Hanke, Paula Havu, Ville Havu,
    Xinguo Ren, Karsten Reuter, and Matthias Scheffler
    'Ab initio molecular simulations with numeric atom-centered orbitals'
    Computer Physics Communications 180, 2175-2196 (2009)
    http://dx.doi.org/10.1016/j.cpc.2009.06.022


  For the real-space grid partitioning and parallelization used in this calculation, please cite:

    Ville Havu, Volker Blum, Paula Havu, and Matthias Scheffler,
    'Efficient O(N) integration for all-electron electronic structure calculation'
    'using numerically tabulated basis functions'
    Journal of Computational Physics 228, 8367-8379 (2009).
    http://dx.doi.org/10.1016/j.jcp.2009.08.008

  Of course, there are many other important community references, e.g., those cited in the
  above references. Our list is limited to references that describe implementations in the
  FHI-aims code. The reason is purely practical (length of this list) - please credit others as well.

------------------------------------------------------------
          Leaving FHI-aims.
          Date     :  20190514, Time     :  105027.070

          Computational steps:
          | Number of self-consistency cycles          :           10
          | Number of SCF (re)initializations          :            1

          Detailed time accounting                     :  max(cpu_time)    wall_clock(cpu1)
          | Total time                                 :        7.620 s           7.620 s
          | Preparation time                           :        0.129 s           0.129 s
          | Boundary condition initalization           :        0.028 s           0.028 s
          | Grid partitioning                          :        0.011 s           0.011 s
          | Preloading free-atom quantities on grid    :        0.001 s           0.001 s
          | Free-atom superposition energy             :        0.008 s           0.008 s
          | Total time for integrations                :        1.603 s           1.603 s
          | Total time for solution of K.-S. equations :        1.498 s           1.497 s
          | Total time for density update              :        2.206 s           2.206 s
          | Total time for mixing & preconditioning    :        0.225 s           0.226 s
          | Total time for Hartree multipole update    :        0.007 s           0.007 s
          | Total time for Hartree multipole sum       :        1.853 s           1.853 s
          | Total time for total energy evaluation     :        0.003 s           0.000 s
          | Total time for scaled ZORA corrections     :        0.000 s           0.000 s

 This is a stub MPI_ALLREDUCE call.
 You should not be here. Check your
 setting on the use_mpi variable, or
 link against true MPI-libraries.
