------------------------------------------------------------
          Invoking FHI-aims ...
          Version 171221_1
          Compiled on 2019/05/06 at 14:26:40 on host ffph0xx.

          When using FHI-aims, please cite the following reference:

          Volker Blum, Ralf Gehrke, Felix Hanke, Paula Havu,
          Ville Havu, Xinguo Ren, Karsten Reuter, and Matthias Scheffler,
          'Ab Initio Molecular Simulations with Numeric Atom-Centered Orbitals',
          Computer Physics Communications 180, 2175-2196 (2009)

          For any questions about FHI-aims, please visit the aimsclub website
          with its forums and wiki. Contributions to both the forums and the
          wiki are warmly encouraged - they are for you, and everyone is welcome there.

------------------------------------------------------------



  Date     :  20190509, Time     :  175111.682
  Time zero on CPU 1             :   0.105200000000000E-02  s.
  Internal wall clock time zero  :           326656271.682  s.

  FHI-aims created a unique identifier for this run for later identification
  aims_uuid : FD0E7B49-4708-46EF-A764-80A61EFB8AFB


  Performing system and environment tests:
  *** Environment variable OMP_NUM_THREADS is not set
  *** For performance reasons you might want to set it to 1
  | Stacksize not measured: no C compiler

  Obtaining array dimensions for all initial allocations:
  
  -----------------------------------------------------------------------
  Parsing control.in (first pass over file, find array dimensions only).
  The contents of control.in will be repeated verbatim below
  unless switched off by setting 'verbatim_writeout .false.' .
  in the first line of control.in .
  -----------------------------------------------------------------------
  
  #--- method ---
  xc pw-lda
  spin none
  relativistic atomic_zora scalar
  #---
  
  #--- k-grid settings ---
  k_grid 3 3 3
  #---
  
  
  
  
  
  
  
  
  
  
  
  #-------------------------------------------------------------------------------
  #--- Species defaults for Si
  #-------------------------------------------------------------------------------
  
  ################################################################################
  #
  #  FHI-aims code project
  #  VB, Fritz-Haber Institut, 2009
  #
  #  Suggested "light" defaults for Si atom (to be pasted into control.in file)
  #  Be sure to double-check any results obtained with these settings for post-processing,
  #  e.g., with the "tight" defaults and larger basis sets.
  #
  ################################################################################
    species        Si
  #     global species definitions
      nucleus             14
      mass                28.0855
  #
      l_hartree           4
  #
      cut_pot             3.5          1.5  1.0
      basis_dep_cutoff    1e-4
  #
      radial_base         42 5.0
      radial_multiplier   1
      angular_grids       specified
        division   0.5866   50
        division   0.9616  110
        division   1.2249  194
        division   1.3795  302
  #      division   1.4810  434
  #      division   1.5529  590
  #      division   1.6284  770
  #      division   1.7077  974
  #      division   2.4068 1202
  #      outer_grid   974
        outer_grid 302
  ################################################################################
  #
  #  Definition of "minimal" basis
  #
  ################################################################################
  #     valence basis states
      valence      3  s   2.
      valence      3  p   2.
  #     ion occupancy
      ion_occ      3  s   1.
      ion_occ      3  p   1.
  ################################################################################
  #
  #  Suggested additional basis functions. For production calculations,
  #  uncomment them one after another (the most important basis functions are
  #  listed first).
  #
  #  Constructed for dimers: 1.75 A, 2.0 A, 2.25 A, 2.75 A, 3.75 A
  #
  ################################################################################
  #  "First tier" - improvements: -571.96 meV to -37.03 meV
       hydro 3 d 4.2
       hydro 2 p 1.4
  #     hydro 4 f 6.2
       ionic 3 s auto
  #  "Second tier" - improvements: -16.76 meV to -3.03 meV
  #     hydro 3 d 9
  #     hydro 5 g 9.4
  #     hydro 4 p 4
  #     hydro 1 s 0.65
  #  "Third tier" - improvements: -3.89 meV to -0.60 meV
  #     ionic 3 d auto
  #     hydro 3 s 2.6
  #     hydro 4 f 8.4
  #     hydro 3 d 3.4
  #     hydro 3 p 7.8
  #  "Fourth tier" - improvements: -0.33 meV to -0.11 meV
  #     hydro 2 p 1.6
  #     hydro 5 g 10.8
  #     hydro 5 f 11.2
  #     hydro 3 d 1
  #     hydro 4 s 4.5
  #  Further basis functions that fell out of the optimization - noise
  #  level... < -0.08 meV
  #     hydro 4 d 6.6
  #     hydro 5 g 16.4
  #     hydro 4 d 9
  
  -----------------------------------------------------------------------
  Completed first pass over input file control.in .
  -----------------------------------------------------------------------
  
  
  -----------------------------------------------------------------------
  Parsing geometry.in (first pass over file, find array dimensions only).
  The contents of geometry.in will be repeated verbatim below
  unless switched off by setting 'verbatim_writeout .false.' .
  in the first line of geometry.in .
  -----------------------------------------------------------------------
  
  lattice_vector   0.000000   2.750000   2.750000
  lattice_vector   2.750000   0.000000   2.750000
  lattice_vector   2.750000   2.750000   0.000000
  atom_frac   0.000000   0.000000   0.000000 Si
  atom_frac   0.250000   0.250000   0.250000 Si
  
  -----------------------------------------------------------------------
  Completed first pass over input file geometry.in .
  -----------------------------------------------------------------------
  

  Basic array size parameters:
  | Number of species                 :        1
  | Number of atoms                   :        2
  | Number of lattice vectors         :        3
  | Max. basis fn. angular momentum   :        2
  | Max. atomic/ionic basis occupied n:        3
  | Max. number of basis fn. types    :        3
  | Max. radial fns per species/type  :        5
  | Max. logarithmic grid size        :     1346
  | Max. radial integration grid size :       42
  | Max. angular integration grid size:      302
  | Max. angular grid division number :        8
  | Radial grid for Hartree potential :     1346
  | Number of spin channels           :        1

------------------------------------------------------------
          Reading file control.in.
------------------------------------------------------------
  XC: Using Perdew-Wang parametrisation of Ceperley-Alder LDA.
  Spin treatment: No spin polarisation.
  Scalar relativistic treatment of kinetic energy: on-site free-atom approximation to ZORA.
  Found k-point grid:         3         3         3

  Reading configuration options for species Si                  .
  | Found nuclear charge :  14.0000
  | Found atomic mass :    28.085500000000000      amu
  | Found l_max for Hartree potential  :   4
  | Found cutoff potl. onset [A], width [A], scale factor :    3.50000    1.50000    1.00000
  | Threshold for basis-dependent cutoff potential is   0.100000E-03
  | Found data for basic radial integration grid :    42 points, outermost radius =    5.000 A
  | Found multiplier for basic radial grid :   1
  | Found angular grid specification: user-specified.
  | Specified grid contains     5 separate shells.
  | Check grid settings after all constraints further below.
  | Found free-atom valence shell :  3 s   2.000
  | Found free-atom valence shell :  3 p   2.000
  | Found free-ion valence shell :  3 s   1.000
  | Found free-ion valence shell :  3 p   1.000
  | Found hydrogenic basis function :  3 d   4.200
  | Found hydrogenic basis function :  2 p   1.400
  | Found ionic basis function :  3 s , default cutoff radius.
  Species Si                  : Missing cutoff potential type.
  Defaulting to exp(1/x)/(1-x)^2 type cutoff potential.
  Species Si: No 'logarithmic' tag. Using default grid for free atom:
  | Default logarithmic grid data [bohr] : 0.1000E-03 0.1000E+03 0.1012E+01
  | Will include ionic basis functions of  2.0-fold positive Si                   ion.
  Species Si: On-site basis accuracy parameter (for Gram-Schmidt orthonormalisation) not specified.
  Using default value basis_acc =  0.1000000E-03.
  Species Si                  : Using default innermost maximum threshold i_radial=  2 for radial functions.
  Species Si                  : Default cutoff onset for free atom density etc. : 0.35000000E+01 AA.
  Species Si                  : Basic radial grid will be enhanced according to radial_multiplier =   1, to contain    42 grid points.

  Finished reading input file 'control.in'. Consistency checks are next.

  MPI_IN_PLACE appears to work with this MPI implementation.
  | Keeping use_mpi_in_place .true. (see manual).
  Target number of points in a grid batch is not set. Defaulting to  100
  Method for grid partitioning is not set. Defaulting to 'maxmin' partitioning.
  Batch size limit is not set. Defaulting to    200
  By default, will store active basis functions for each batch.
  If in need of memory, prune_basis_once .false. can be used to disable this option.
  communication_type for Hartree potential was not specified.
  Defaulting to calc_hartree .
 * Attention: 
 * You may want to set distributed_spline_storage to .true. in order to save memory.
 * This doesn't harm performance and is perfectly ok unless:
 * - you get error messages in postprocessing (about missing atoms in get_rho_multipole_spl)
 * - you need full spline storage in hirshfeld_analysis
  Defaulting to Pulay charge density mixer.
  Pulay mixer: Number of relevant iterations not set.
  Defaulting to    8 iterations.
  Pulay mixer: Number of initial linear mixing iterations not set.
  Defaulting to    0 iterations.
  Work space size for distributed Hartree potential not set.
  Defaulting to   0.200000E+03 MB.
  Mixing parameter for charge density mixing has not been set.
  Using default: charge_mix_param =     0.0500.
  The mixing parameter will be adjusted in iteration number     2 of the first full s.c.f. cycle only.
  Algorithm-dependent basis array size parameters:
  | n_max_pulay                         :        8
 * Notice: The s.c.f. convergence criterion sc_accuracy_rho was not provided.
 * We used to stop in this case, and ask the user to provide reasonable
 * scf convergence criteria. However, this led some users to employ criteria
 * that led to extremely long run times, e.g., for simple relaxation.
 * We now preset a default value for sc_accuracy_rho if it is not set.
 * You may still wish to check if this setting is too tight or too loose for your needs.
 * Based on n_atoms, FHI-aims chose sc_accuracy_rho =  0.100000E-05 .
  Maximum number of self-consistency iterations not provided.
  Presetting  1000 iterations.
  Presetting      1001 iterations before the initial mixing cycle
  is restarted anyway using the sc_init_iter criterion / keyword.
  Presetting a factor      1.000 between actual scf density residual
  and density convergence criterion sc_accuracy_rho below which sc_init_iter
  takes no effect.
 * No s.c.f. convergence criteria (sc_accuracy_*) were provided in control.in.
 * The run will proceed with a reasonable default guess, but please check whether.
 * the s.c.f. cycles seem to take too much or too little time.
  Calculation of forces was not defined in control.in. No forces will be calculated.
  Geometry relaxation not requested: no relaxation will be performed.
  No accuracy limit for integral partition fn. given. Defaulting to  0.1000E-14.
  No threshold value for u(r) in integrations given. Defaulting to  0.1000E-05.
  No occupation type (smearing scheme) given. Defaulting to Gaussian broadening, width =  0.1000E-01 eV.
  The width will be adjusted in iteration number     2 of the first full s.c.f. cycle only.
  S.C.F. convergence parameters will be adjusted in iteration number     2 of the first full s.c.f. cycle only.
  No accuracy for occupation numbers given. Defaulting to  0.1000E-12.
  No threshold value for occupation numbers given. Defaulting to  0.0000E+00.
  No accuracy for fermi level given. Defaulting to  0.1000E-19.
  Maximum # of iterations to find E_F not set. Defaulting to  200.
  Preferred method for the eigenvalue solver ('KS_method') not specified in 'control.in'.
  Defaulting to serial version, 'lapack_fast'.
  Will not use alltoall communication since running on < 1024 CPUs.
  Threshold for basis singularities not set.
  Default threshold for basis singularities:  0.1000E-04
  partition_type (choice of integration weights) for integrals was not specified.
  | Using a version of the partition function of Stratmann and coworkers ('stratmann_smoother').
  | At each grid point, the set of atoms used to build the partition table is smoothly restricted to
  | only those atoms whose free-atom density would be non-zero at that grid point.
  Partitioning for Hartree potential was not defined. Using partition_type for integrals.
  | Adjusted default value of keyword multip_moments_threshold to:       0.10000000E-11
  | This value may affect high angular momentum components of the Hartree potential in periodic systems.
  Angular momentum expansion for Kerker preconditioner not set explicitly.
  | Using default value of   0
  No explicit requirement for turning off preconditioner.
  | By default, it will be turned off when the charge convergence reaches
  | sc_accuracy_rho  =   0.100000E-05
  No special mixing parameter while Kerker preconditioner is on.
  Using default: charge_mix_param =     0.0500.
  No q(lm)/r^(l+1) cutoff set for long-range Hartree potential.
  | Using default value of  0.100000E-09 .
  | Verify using the multipole_threshold keyword.
  Defaulting to new monopole extrapolation.
  Density update method: automatic selection selected.
  Using density matrix based charge density update.
  Using density matrix based charge density update.
  Using packed matrix style: index .
  Defaulting to use time-reversal symmetry for k-point grid.
------------------------------------------------------------


------------------------------------------------------------
          Reading geometry description geometry.in.
------------------------------------------------------------
  Input structure read successfully.
  The structure contains        2 atoms,  and a total of         28.000 electrons.

  Input geometry:
  | Unit cell:
  |        0.00000000        2.75000000        2.75000000
  |        2.75000000        0.00000000        2.75000000
  |        2.75000000        2.75000000        0.00000000
  | Atomic structure:
  |       Atom                x [A]            y [A]            z [A]
  |    1: Species Si            0.00000000        0.00000000        0.00000000
  |    2: Species Si            1.37500000        1.37500000        1.37500000

  Lattice parameters for 3D lattice (in Angstroms) :     3.889087    3.889087    3.889087
  Angle(s) between unit vectors (in degrees)      :    60.000000   60.000000   60.000000

  |

  | The smallest distance between any two atoms is         2.38156986 AA.
  |
  | The first atom of this pair is atom number                      1 .
  | The second atom of this pair is atom number                     2 .
  | Wigner-Seitz cell of the first atom image           0     0     0 .
  | (The Wigner-Seitz cell of the second atom is 0 0 0  by definition.)

  Quantities derived from the lattice vectors:
  | Reciprocal lattice vector 1: -1.142397  1.142397  1.142397
  | Reciprocal lattice vector 2:  1.142397 -1.142397  1.142397
  | Reciprocal lattice vector 3:  1.142397  1.142397 -1.142397
  | Unit cell volume                               :   0.415938E+02  A^3

  Range separation radius for Ewald summation (hartree_convergence_parameter):      3.94337166 bohr.

  Fractional coordinates:
                         L1                L2                L3
       atom_frac         0.00000000        0.00000000        0.00000000  Si
       atom_frac         0.25000000        0.25000000        0.25000000  Si

  Number of empty states per atom not set in control.in - providing a guess from actual geometry.
  | Total number of empty states used during s.c.f. cycle:        6
  If you use a very high smearing, use empty_states (per atom!) in control.in to increase this value.

  Structure-dependent array size parameters: 
  | Maximum number of distinct radial functions  :        8
  | Maximum number of basis functions            :       36
  | Number of Kohn-Sham states (occupied + empty):       20
------------------------------------------------------------

------------------------------------------------------------
          Preparing all fixed parts of the calculation.
------------------------------------------------------------
  Determining machine precision:
     2.2250738585072014E-308
  Setting up grids for atomic and cluster calculations.

  Creating wave function, potential, and density for free atoms.

  Species: Si

  List of occupied orbitals and eigenvalues:
    n    l              occ      energy [Ha]    energy [eV]
    1    0           2.0000       -65.491668     -1782.1190
    2    0           2.0000        -5.087967      -138.4506
    3    0           2.0000        -0.391471       -10.6525
    2    1           6.0000        -3.502246       -95.3010
    3    1           2.0000        -0.143943        -3.9169

  Creating fixed part of basis set: Ionic, confined, hydrogenic.

  Si                   ion:

  List of free ionic orbitals and eigenvalues:
    n    l      energy [Ha]    energy [eV]
    1    0       -66.364436     -1805.8682
    2    0        -5.935799      -161.5213
    3    0        -1.078166       -29.3384
    2    1        -4.351123      -118.4001
    3    1        -0.781733       -21.2720


  List of ionic basis orbitals and eigenvalues:
    n    l      energy [Ha]    energy [eV]    outer radius [A]
    3    0        -1.078146       -29.3378       4.214062


  Si                   hydrogenic:

  List of hydrogenic basis orbitals: 
    n    l      effective z      eigenvalue [eV]  inner max. [A]     outer max. [A]     outer radius [A]   
    3    2         4.200000       -26.6624           1.139231           1.139231           4.534782
    2    1         1.400000        -6.4613           1.472672           1.472672           4.590560


  Adding cutoff potential to free-atom effective potential.
  Creating atomic-like basis functions for current effective potential.

  Species Si                  :

  List of atomic basis orbitals and eigenvalues:
    n    l      energy [Ha]    energy [eV]    outer radius [A]
    1    0       -65.491668     -1782.1190       0.789468
    2    0        -5.087967      -138.4506       2.815114
    3    0        -0.391471       -10.6525       4.534782
    2    1        -3.502246       -95.3010       3.259919
    3    1        -0.143943        -3.9169       4.590560

  Assembling full basis from fixed parts.
  | Species Si :   atomic orbital   1 s accepted.
  | Species Si :   atomic orbital   2 s accepted.
  | Species Si :    ionic orbital   3 s accepted.
  | Species Si :   atomic orbital   3 s accepted.
  | Species Si :   atomic orbital   2 p accepted.
  | Species Si :   atomic orbital   3 p accepted.
  | Species Si :    hydro orbital   2 p accepted.
  | Species Si :    hydro orbital   3 d accepted.

  Basis size parameters after reduction:
  | Total number of radial functions:        8
  | Total number of basis functions :       36

  Per-task memory consumption for arrays in subroutine allocate_ext:
  |           2.757868MB.
  Testing on-site integration grid accuracy.
  |  Species  Function  <phi|h_atom|phi> (log., in eV)  <phi|h_atom|phi> (rad., in eV)
           1        1              -1782.1189727076              -1782.1182429251
           1        2               -138.4506350693               -138.4506310079
           1        3                -10.3030408815                -10.3029120678
           1        4                  5.0238999146                  4.9457540310 ***
           1        5                -95.3009689499                -95.3009689315
           1        6                 -3.9266496564                 -3.9420918374
           1        7                  6.3453628447                  6.1632372158 ***
           1        8                  6.2883050744                  6.2861881409
 * Note: Onsite integrals marked "***" above are less accurate than
 * onsite_accuracy_threshold =    0.03000 eV. Usually, this is harmless.
 * When in doubt, tighten the "radial" and/or "radial_multiplier" flags to check.

  Preparing densities etc. for the partition functions (integrals / Hartree potential).

  Preparations completed.
  max(cpu_time)          :      0.102 s.
  Wall clock time (cpu1) :      0.102 s.
------------------------------------------------------------

------------------------------------------------------------
          Begin self-consistency loop: Initialization.

          Date     :  20190509, Time     :  175111.786
------------------------------------------------------------

  Initializing index lists of integration centers etc. from given atomic structure:
  Mapping all atomic coordinates to central unit cell.

  Initializing the k-points
          Using symmetry for reducing the k-points
  | k-points reduced from:       27 to       14
  | Number of k-points                             :        14
  The eigenvectors in the calculations are COMPLEX.
  | K-points in task   0:        14
  | Number of basis functions in the Hamiltonian integrals :      1454
  | Number of basis functions in a single unit cell        :        36
  | Number of centers in hartree potential         :       732
  | Number of centers in hartree multipole         :       318
  | Number of centers in electron density summation:       190
  | Number of centers in basis integrals           :       198
  | Number of centers in integrals                 :       101
  | Number of centers in hamiltonian               :       190
  | Consuming         24 KiB for k_phase.
  | Number of super-cells (origin) [n_cells]                     :        2197
  | Number of super-cells (after PM_index) [n_cells]             :         112
  | Number of super-cells in hamiltonian [n_cells_in_hamiltonian]:         112
  | Size of matrix packed + index [n_hamiltonian_matrix_size] :       41847
  Partitioning the integration grid into batches with maxmin method.
  | Maximal weight for a single point:     1.000
  | Minimal weight for a single point:     0.645
  | Number of batches:      128
  | Maximal batch size:      90
  | Minimal batch size:      85
  | Average batch size:      87.562
  | Standard deviation of batch sizes:       1.493
  Initializing partition tables, free-atom densities, potentials, etc. across the integration grid (initialize_grid_storage).
  | initialize_grid_storage: Actual outermost partition radius vs. multipole_radius_free
  | (-- VB: in principle, multipole_radius_free should be larger, hence this output)
  | Species        1: Confinement radius =              4.999999999999999 AA, multipole_radius_free =              5.000694715736543 AA.
  | Species        1: outer_partition_radius set to              5.000694715736543 AA .
  | Original list of interatomic distances with         198 x        198 entries is created.
  | Net number of integration points:    11208
  | of which are non-zero points    :     9844
  | Numerical average free-atom electrostatic potential    :    -12.65157614 eV
  Renormalizing the initial density to the exact electron count on the 3D integration grid.
  | Initial density: Formal number of electrons (from input files) :      28.0000000000
  | Integrated number of electrons on 3D grid     :      28.0046443613
  | Charge integration error                      :       0.0046443613
  | Normalization factor for density and gradient :       0.9998341575
  Obtaining max. number of non-zero basis functions in each batch (get_n_compute_maxes).
  | Maximal number of non-zero basis functions:      448 in task     0
  Allocating        0.161 MB for KS_eigenvector_complex
  Integrating Hamiltonian matrix: batch-based integration.
  Time summed over all CPUs for integration: real work        0.565 s, elapsed        0.565 s
  Integrating overlap matrix.
  Time summed over all CPUs for integration: real work        0.406 s, elapsed        0.406 s
  Decreasing sparse matrix size:
   Tolerance:   9.9999998245167004E-014
   Hamiltonian matrix
  | Array has    36494 nonzero elements out of    41847 elements
  | Sparsity factor is 0.128
   Overlap matrix
  | Array has    34236 nonzero elements out of    41847 elements
  | Sparsity factor is 0.182
  New size of hamiltonian matrix:       36751

  Updating Kohn-Sham eigenvalues, eigenvectors, occupation numbers, and Fermi level.
  Solving generalized eigenproblem
  Transforming overlap matrix and checking for singularities.
  Overlap matrix is nonsingular at first k-point:
  | Lowest eigenvalue:  0.493089E-02

  Obtaining occupation numbers and chemical potential using ELSI.
  | Chemical potential (Fermi level):    -5.37653692eV
  Writing Kohn-Sham eigenvalues.
  K-point:       1 at    0.000000    0.000000    0.000000 (in units of recip. lattice)

  State    Occupation    Eigenvalue [Ha]    Eigenvalue [eV]
      1       2.00000         -65.511153        -1782.64916
      2       2.00000         -65.511153        -1782.64916
      3       2.00000          -5.112074         -139.10660
      4       2.00000          -5.111824         -139.09980
      5       2.00000          -3.526350          -95.95687
      6       2.00000          -3.526350          -95.95687
      7       2.00000          -3.526350          -95.95687
      8       2.00000          -3.525803          -95.94197
      9       2.00000          -3.525803          -95.94197
     10       2.00000          -3.525803          -95.94197
     11       2.00000          -0.655680          -17.84196
     12       2.00000          -0.230449           -6.27085
     13       2.00000          -0.230449           -6.27085
     14       2.00000          -0.230449           -6.27085
     15       0.00000          -0.128212           -3.48884
     16       0.00000          -0.128212           -3.48884
     17       0.00000          -0.128212           -3.48884
     18       0.00000          -0.124308           -3.38258
     19       0.00000           0.067790            1.84465
     20       0.00000           0.067790            1.84465

  What follows are estimated values for band gap, HOMO, LUMO, etc.
  | They are estimated on a discrete k-point grid and not necessarily exact.
  | For converged numbers, create a DOS and/or band structure plot on a denser k-grid.

  Highest occupied state (VBM) at     -6.27084700 eV (relative to internal zero)
  | Occupation number:      2.00000000
  | K-point:       1 at    0.000000    0.000000    0.000000 (in units of recip. lattice)

  Lowest unoccupied state (CBM) at    -5.23531784 eV (relative to internal zero)
  | Occupation number:      0.00000000
  | K-point:       9 at    0.333333    0.333333    0.000000 (in units of recip. lattice)

  ESTIMATED overall HOMO-LUMO gap:      1.03552916 eV between HOMO at k-point 1 and LUMO at k-point 9
  | This appears to be an indirect band gap.
  | Smallest direct gap :      2.65619161 eV for k_point 10 at    0.333333    0.333333    0.000000 (in units of recip. lattice)
  The gap value is above 0.2 eV. Unless you are using a very sparse k-point grid,
  this system is most likely an insulator or a semiconductor.
  Calculating total energy contributions from superposition of free atom densities.

  Total energy components:
  | Sum of eigenvalues            :        -328.05727323 Ha       -8926.89259996 eV
  | XC energy correction          :         -39.64012500 Ha       -1078.66268311 eV
  | XC potential correction       :          52.37117597 Ha        1425.09220607 eV
  | Free-atom electrostatic energy:        -263.39488195 Ha       -7167.33940814 eV
  | Hartree energy correction     :          -0.00000000 Ha          -0.00000000 eV
  | Entropy correction            :          -0.00000000 Ha          -0.00000000 eV
  | ---------------------------
  | Total energy                  :        -578.72110422 Ha      -15747.80248514 eV
  | Total energy, T -> 0          :        -578.72110422 Ha      -15747.80248514 eV  <-- do not rely on this value for anything but (periodic) metals
  | Electronic free energy        :        -578.72110422 Ha      -15747.80248514 eV

  Derived energy quantities:
  | Kinetic energy                :         579.67342127 Ha       15773.71635069 eV
  | Electrostatic energy          :       -1118.75440049 Ha      -30442.85615273 eV
  | Energy correction for multipole
  | error in Hartree potential    :           0.00000000 Ha           0.00000000 eV
  | Sum of eigenvalues per atom                           :       -4463.44629998 eV
  | Total energy (T->0) per atom                          :       -7873.90124257 eV  <-- do not rely on this value for anything but (periodic) metals
  | Electronic free energy per atom                       :       -7873.90124257 eV
  Initialize hartree_potential_storage
  Max. number of atoms included in rho_multipole:            2

  End scf initialization - timings             :  max(cpu_time)    wall_clock(cpu1)
  | Time for scf. initialization               :        1.230 s           1.230 s
  | Boundary condition initialization          :        0.037 s           0.037 s
  | Integration                                :        0.971 s           0.972 s
  | Solution of K.-S. eqns.                    :        0.016 s           0.015 s
  | Grid partitioning                          :        0.031 s           0.031 s
  | Preloading free-atom quantities on grid    :        0.001 s           0.000 s
  | Free-atom superposition energy             :        0.028 s           0.028 s
  | Total energy evaluation                    :        0.000 s           0.000 s

  Partial memory accounting:
  | Current value for overall tracked memory usage on task 0  :           0.897 MB
  | Peak value for overall tracked memory usage on task 0     :           3.572 MB after allocating wave
  | Largest tracked array allocation on task 0 so far         :           1.606 MB  when allocating hamiltonian_shell
  Note:  These values currently only include a subset of arrays which are explicitly tracked.
  The "true" memory usage will be greater.
------------------------------------------------------------

------------------------------------------------------------
          Begin self-consistency iteration #    1

  Date     :  20190509, Time     :  175113.016
------------------------------------------------------------
  Evaluating new KS density using the density matrix
  Evaluating density matrix
  Time summed over all CPUs for getting density from density matrix: real work        0.921 s, elapsed        0.921 s
  Integration grid: deviation in total charge (<rho> - N_e) =   1.740830E-13
  Pulay mixing of updated and previous charge densities.

  Evaluating partitioned Hartree potential by multipole expansion.
  | Analytical far-field extrapolation by fixed multipoles:
  | Hartree multipole sum: apparent total charge =   0.488005E-02
  Summing up the Hartree potential.
  | Estimated reciprocal-space cutoff momentum G_max:         2.36574414 bohr^-1 .
  | Reciprocal lattice points for long-range Hartree potential:      58
  Time summed over all CPUs for potential: real work        0.363 s, elapsed        0.363 s
  | RMS charge density error from multipole expansion :   0.566225E-03
  | Average real-space part of the electrostatic potential :     -0.00017237 eV

  Integrating Hamiltonian matrix: batch-based integration.
  Time summed over all CPUs for integration: real work        0.560 s, elapsed        0.560 s

  Updating Kohn-Sham eigenvalues, eigenvectors, occupation numbers, and Fermi level.
  Solving generalized eigenproblem

  Obtaining occupation numbers and chemical potential using ELSI.
  | Chemical potential (Fermi level):    -5.36062358eV
  Writing Kohn-Sham eigenvalues.
  K-point:       1 at    0.000000    0.000000    0.000000 (in units of recip. lattice)

  State    Occupation    Eigenvalue [Ha]    Eigenvalue [eV]
      1       2.00000         -65.513784        -1782.72078
      2       2.00000         -65.513784        -1782.72078
      3       2.00000          -5.112296         -139.11265
      4       2.00000          -5.112046         -139.10585
      5       2.00000          -3.526650          -95.96504
      6       2.00000          -3.526650          -95.96504
      7       2.00000          -3.526650          -95.96504
      8       2.00000          -3.526104          -95.95017
      9       2.00000          -3.526104          -95.95017
     10       2.00000          -3.526104          -95.95017
     11       2.00000          -0.655022          -17.82406
     12       2.00000          -0.229529           -6.24579
     13       2.00000          -0.229529           -6.24579
     14       2.00000          -0.229529           -6.24579
     15       0.00000          -0.127740           -3.47598
     16       0.00000          -0.127740           -3.47598
     17       0.00000          -0.127740           -3.47598
     18       0.00000          -0.123470           -3.35978
     19       0.00000           0.068340            1.85962
     20       0.00000           0.068340            1.85962

  What follows are estimated values for band gap, HOMO, LUMO, etc.
  | They are estimated on a discrete k-point grid and not necessarily exact.
  | For converged numbers, create a DOS and/or band structure plot on a denser k-grid.

  Highest occupied state (VBM) at     -6.24579290 eV (relative to internal zero)
  | Occupation number:      2.00000000
  | K-point:       1 at    0.000000    0.000000    0.000000 (in units of recip. lattice)

  Lowest unoccupied state (CBM) at    -5.22684028 eV (relative to internal zero)
  | Occupation number:      0.00000000
  | K-point:       9 at    0.333333    0.333333    0.000000 (in units of recip. lattice)

  ESTIMATED overall HOMO-LUMO gap:      1.01895261 eV between HOMO at k-point 1 and LUMO at k-point 9
  | This appears to be an indirect band gap.
  | Smallest direct gap :      2.64850942 eV for k_point 6 at    0.333333    0.333333    0.000000 (in units of recip. lattice)
  The gap value is above 0.2 eV. Unless you are using a very sparse k-point grid,
  this system is most likely an insulator or a semiconductor.

  Total energy components:
  | Sum of eigenvalues            :        -328.06646923 Ha       -8927.14283566 eV
  | XC energy correction          :         -39.64319503 Ha       -1078.74622270 eV
  | XC potential correction       :          52.37522290 Ha        1425.20232862 eV
  | Free-atom electrostatic energy:        -263.39488195 Ha       -7167.33940814 eV
  | Hartree energy correction     :           0.00896997 Ha           0.24408523 eV
  | Entropy correction            :          -0.00000000 Ha          -0.00000000 eV
  | ---------------------------
  | Total energy                  :        -578.72035334 Ha      -15747.78205265 eV
  | Total energy, T -> 0          :        -578.72035334 Ha      -15747.78205265 eV  <-- do not rely on this value for anything but (periodic) metals
  | Electronic free energy        :        -578.72035334 Ha      -15747.78205265 eV

  Derived energy quantities:
  | Kinetic energy                :         579.54411744 Ha       15770.19781433 eV
  | Electrostatic energy          :       -1118.62127575 Ha      -30439.23364428 eV
  | Energy correction for multipole
  | error in Hartree potential    :           0.00075134 Ha           0.02044492 eV
  | Sum of eigenvalues per atom                           :       -4463.57141783 eV
  | Total energy (T->0) per atom                          :       -7873.89102633 eV  <-- do not rely on this value for anything but (periodic) metals
  | Electronic free energy per atom                       :       -7873.89102633 eV

  Self-consistency convergence accuracy:
  | Change of charge density      :  0.1153E+00
  | Change of sum of eigenvalues  : -0.2502E+00 eV
  | Change of total energy        :  0.2043E-01 eV

  End self-consistency iteration #     1       :  max(cpu_time)    wall_clock(cpu1)
  | Time for this iteration                    :        1.904 s           1.905 s
  | Charge density update                      :        0.921 s           0.922 s
  | Density mixing & preconditioning           :        0.047 s           0.047 s
  | Hartree multipole update                   :        0.001 s           0.001 s
  | Hartree multipole summation                :        0.366 s           0.366 s
  | Integration                                :        0.560 s           0.560 s
  | Solution of K.-S. eqns.                    :        0.008 s           0.008 s
  | Total energy evaluation                    :        0.000 s           0.000 s

  Partial memory accounting:
  | Current value for overall tracked memory usage on task 0  :           0.897 MB
  | Peak value for overall tracked memory usage on task 0     :           3.572 MB after allocating wave
  | Largest tracked array allocation on task 0 so far         :           1.606 MB  when allocating hamiltonian_shell
  Note:  These values currently only include a subset of arrays which are explicitly tracked.
  The "true" memory usage will be greater.
------------------------------------------------------------

------------------------------------------------------------
          Begin self-consistency iteration #    2

  Date     :  20190509, Time     :  175114.921
------------------------------------------------------------
  Evaluating new KS density using the density matrix
  Evaluating density matrix
  Time summed over all CPUs for getting density from density matrix: real work        0.912 s, elapsed        0.912 s
  Integration grid: deviation in total charge (<rho> - N_e) =   4.973799E-14
  Pulay mixing of updated and previous charge densities.

  Evaluating partitioned Hartree potential by multipole expansion.
  | Analytical far-field extrapolation by fixed multipoles:
  | Hartree multipole sum: apparent total charge =   0.919969E-02
  Summing up the Hartree potential.
  Time summed over all CPUs for potential: real work        0.444 s, elapsed        0.444 s
  | RMS charge density error from multipole expansion :   0.111221E-01
  | Average real-space part of the electrostatic potential :      0.37554548 eV

  Integrating Hamiltonian matrix: batch-based integration.
  Time summed over all CPUs for integration: real work        0.560 s, elapsed        0.560 s

  Updating Kohn-Sham eigenvalues, eigenvectors, occupation numbers, and Fermi level.
  Solving generalized eigenproblem

  Obtaining occupation numbers and chemical potential using ELSI.
  | Chemical potential (Fermi level):    -5.42145954eV
  What follows are estimated values for band gap, HOMO, LUMO, etc.
  | They are estimated on a discrete k-point grid and not necessarily exact.
  | For converged numbers, create a DOS and/or band structure plot on a denser k-grid.

  Highest occupied state (VBM) at     -5.61475721 eV (relative to internal zero)
  | Occupation number:      2.00000000
  | K-point:       1 at    0.000000    0.000000    0.000000 (in units of recip. lattice)

  Lowest unoccupied state (CBM) at    -5.01230328 eV (relative to internal zero)
  | Occupation number:      0.00000000
  | K-point:       5 at    0.000000    0.666667    0.666667 (in units of recip. lattice)

  ESTIMATED overall HOMO-LUMO gap:      0.60245393 eV between HOMO at k-point 1 and LUMO at k-point 5
  | This appears to be an indirect band gap.
  | Smallest direct gap :      2.46784828 eV for k_point 1 at    0.000000    0.666667    0.666667 (in units of recip. lattice)
  The gap value is above 0.2 eV. Unless you are using a very sparse k-point grid,
  this system is most likely an insulator or a semiconductor.

  Checking to see if s.c.f. parameters should be adjusted.
  The system likely has a gap. Increased the default Pulay mixing parameter (charge_mix_param). Value:   0.200000 .
  Kept the default occupation width. Value:   0.010000 eV.

  Total energy components:
  | Sum of eigenvalues            :        -327.14952473 Ha       -8902.19150647 eV
  | XC energy correction          :         -39.71411651 Ha       -1080.67609430 eV
  | XC potential correction       :          52.46868454 Ha        1427.74554914 eV
  | Free-atom electrostatic energy:        -263.39488195 Ha       -7167.33940814 eV
  | Hartree energy correction     :          -0.92348767 Ha         -25.12937803 eV
  | Entropy correction            :          -0.00000000 Ha          -0.00000000 eV
  | ---------------------------
  | Total energy                  :        -578.71332632 Ha      -15747.59083781 eV
  | Total energy, T -> 0          :        -578.71332632 Ha      -15747.59083781 eV  <-- do not rely on this value for anything but (periodic) metals
  | Electronic free energy        :        -578.71332632 Ha      -15747.59083781 eV

  Derived energy quantities:
  | Kinetic energy                :         579.76742417 Ha       15776.27429980 eV
  | Electrostatic energy          :       -1118.76663399 Ha      -30443.18904330 eV
  | Energy correction for multipole
  | error in Hartree potential    :           0.01474071 Ha           0.40111501 eV
  | Sum of eigenvalues per atom                           :       -4451.09575323 eV
  | Total energy (T->0) per atom                          :       -7873.79541890 eV  <-- do not rely on this value for anything but (periodic) metals
  | Electronic free energy per atom                       :       -7873.79541890 eV

  Self-consistency convergence accuracy:
  | Change of charge density      :  0.1095E+00
  | Change of sum of eigenvalues  :  0.2495E+02 eV
  | Change of total energy        :  0.1912E+00 eV

  End self-consistency iteration #     2       :  max(cpu_time)    wall_clock(cpu1)
  | Time for this iteration                    :        1.977 s           1.976 s
  | Charge density update                      :        0.914 s           0.913 s
  | Density mixing & preconditioning           :        0.046 s           0.046 s
  | Hartree multipole update                   :        0.001 s           0.001 s
  | Hartree multipole summation                :        0.448 s           0.448 s
  | Integration                                :        0.561 s           0.560 s
  | Solution of K.-S. eqns.                    :        0.008 s           0.008 s
  | Total energy evaluation                    :        0.000 s           0.000 s

  Partial memory accounting:
  | Current value for overall tracked memory usage on task 0  :           0.898 MB
  | Peak value for overall tracked memory usage on task 0     :           3.572 MB after allocating wave
  | Largest tracked array allocation on task 0 so far         :           1.606 MB  when allocating hamiltonian_shell
  Note:  These values currently only include a subset of arrays which are explicitly tracked.
  The "true" memory usage will be greater.
------------------------------------------------------------

------------------------------------------------------------
          Begin self-consistency iteration #    3

  Date     :  20190509, Time     :  175116.898
------------------------------------------------------------
  Evaluating new KS density using the density matrix
  Evaluating density matrix
  Time summed over all CPUs for getting density from density matrix: real work        0.940 s, elapsed        0.940 s
  Integration grid: deviation in total charge (<rho> - N_e) =   4.973799E-14
  Pulay mixing of updated and previous charge densities.

  Evaluating partitioned Hartree potential by multipole expansion.
  | Analytical far-field extrapolation by fixed multipoles:
  | Hartree multipole sum: apparent total charge =   0.881420E-02
  Summing up the Hartree potential.
  Time summed over all CPUs for potential: real work        0.453 s, elapsed        0.453 s
  | RMS charge density error from multipole expansion :   0.111276E-01
  | Average real-space part of the electrostatic potential :      0.36866306 eV

  Integrating Hamiltonian matrix: batch-based integration.
  Time summed over all CPUs for integration: real work        0.568 s, elapsed        0.568 s

  Updating Kohn-Sham eigenvalues, eigenvectors, occupation numbers, and Fermi level.
  Solving generalized eigenproblem

  Obtaining occupation numbers and chemical potential using ELSI.
  | Chemical potential (Fermi level):    -5.43038978eV
  What follows are estimated values for band gap, HOMO, LUMO, etc.
  | They are estimated on a discrete k-point grid and not necessarily exact.
  | For converged numbers, create a DOS and/or band structure plot on a denser k-grid.

  Highest occupied state (VBM) at     -5.62894630 eV (relative to internal zero)
  | Occupation number:      2.00000000
  | K-point:       1 at    0.000000    0.000000    0.000000 (in units of recip. lattice)

  Lowest unoccupied state (CBM) at    -5.01642226 eV (relative to internal zero)
  | Occupation number:      0.00000000
  | K-point:       5 at    0.000000    0.666667    0.666667 (in units of recip. lattice)

  ESTIMATED overall HOMO-LUMO gap:      0.61252404 eV between HOMO at k-point 1 and LUMO at k-point 5
  | This appears to be an indirect band gap.
  | Smallest direct gap :      2.47376919 eV for k_point 1 at    0.000000    0.666667    0.666667 (in units of recip. lattice)
  The gap value is above 0.2 eV. Unless you are using a very sparse k-point grid,
  this system is most likely an insulator or a semiconductor.

  Total energy components:
  | Sum of eigenvalues            :        -327.17974524 Ha       -8903.01384840 eV
  | XC energy correction          :         -39.71242463 Ha       -1080.63005592 eV
  | XC potential correction       :          52.46645388 Ha        1427.68484984 eV
  | Free-atom electrostatic energy:        -263.39488195 Ha       -7167.33940814 eV
  | Hartree energy correction     :          -0.89263475 Ha         -24.28982746 eV
  | Entropy correction            :          -0.00000000 Ha          -0.00000000 eV
  | ---------------------------
  | Total energy                  :        -578.71323269 Ha      -15747.58829008 eV
  | Total energy, T -> 0          :        -578.71323269 Ha      -15747.58829008 eV  <-- do not rely on this value for anything but (periodic) metals
  | Electronic free energy        :        -578.71323269 Ha      -15747.58829008 eV

  Derived energy quantities:
  | Kinetic energy                :         579.75662278 Ha       15775.98037882 eV
  | Electrostatic energy          :       -1118.75743085 Ha      -30442.93861298 eV
  | Energy correction for multipole
  | error in Hartree potential    :           0.01479446 Ha           0.40257774 eV
  | Sum of eigenvalues per atom                           :       -4451.50692420 eV
  | Total energy (T->0) per atom                          :       -7873.79414504 eV  <-- do not rely on this value for anything but (periodic) metals
  | Electronic free energy per atom                       :       -7873.79414504 eV

  Self-consistency convergence accuracy:
  | Change of charge density      :  0.1769E-01
  | Change of sum of eigenvalues  : -0.8223E+00 eV
  | Change of total energy        :  0.2548E-02 eV

  End self-consistency iteration #     3       :  max(cpu_time)    wall_clock(cpu1)
  | Time for this iteration                    :        2.020 s           2.020 s
  | Charge density update                      :        0.941 s           0.941 s
  | Density mixing & preconditioning           :        0.046 s           0.046 s
  | Hartree multipole update                   :        0.001 s           0.001 s
  | Hartree multipole summation                :        0.456 s           0.456 s
  | Integration                                :        0.568 s           0.568 s
  | Solution of K.-S. eqns.                    :        0.008 s           0.008 s
  | Total energy evaluation                    :        0.000 s           0.000 s

  Partial memory accounting:
  | Current value for overall tracked memory usage on task 0  :           0.898 MB
  | Peak value for overall tracked memory usage on task 0     :           3.572 MB after allocating wave
  | Largest tracked array allocation on task 0 so far         :           1.606 MB  when allocating hamiltonian_shell
  Note:  These values currently only include a subset of arrays which are explicitly tracked.
  The "true" memory usage will be greater.
------------------------------------------------------------

------------------------------------------------------------
          Begin self-consistency iteration #    4

  Date     :  20190509, Time     :  175118.918
------------------------------------------------------------
  Evaluating new KS density using the density matrix
  Evaluating density matrix
  Time summed over all CPUs for getting density from density matrix: real work        0.919 s, elapsed        0.919 s
  Integration grid: deviation in total charge (<rho> - N_e) =   6.039613E-14
  Pulay mixing of updated and previous charge densities.

  Evaluating partitioned Hartree potential by multipole expansion.
  | Analytical far-field extrapolation by fixed multipoles:
  | Hartree multipole sum: apparent total charge =   0.656356E-02
  Summing up the Hartree potential.
  Time summed over all CPUs for potential: real work        0.445 s, elapsed        0.445 s
  | RMS charge density error from multipole expansion :   0.119573E-01
  | Average real-space part of the electrostatic potential :      0.35680374 eV

  Integrating Hamiltonian matrix: batch-based integration.
  Time summed over all CPUs for integration: real work        0.555 s, elapsed        0.555 s

  Updating Kohn-Sham eigenvalues, eigenvectors, occupation numbers, and Fermi level.
  Solving generalized eigenproblem

  Obtaining occupation numbers and chemical potential using ELSI.
  | Chemical potential (Fermi level):    -5.45351178eV
  What follows are estimated values for band gap, HOMO, LUMO, etc.
  | They are estimated on a discrete k-point grid and not necessarily exact.
  | For converged numbers, create a DOS and/or band structure plot on a denser k-grid.

  Highest occupied state (VBM) at     -5.66294481 eV (relative to internal zero)
  | Occupation number:      2.00000000
  | K-point:       1 at    0.000000    0.000000    0.000000 (in units of recip. lattice)

  Lowest unoccupied state (CBM) at    -5.02192425 eV (relative to internal zero)
  | Occupation number:      0.00000000
  | K-point:       5 at    0.000000    0.666667    0.666667 (in units of recip. lattice)

  ESTIMATED overall HOMO-LUMO gap:      0.64102057 eV between HOMO at k-point 1 and LUMO at k-point 5
  | This appears to be an indirect band gap.
  | Smallest direct gap :      2.48519453 eV for k_point 1 at    0.000000    0.666667    0.666667 (in units of recip. lattice)
  The gap value is above 0.2 eV. Unless you are using a very sparse k-point grid,
  this system is most likely an insulator or a semiconductor.

  Total energy components:
  | Sum of eigenvalues            :        -327.29200710 Ha       -8906.06864893 eV
  | XC energy correction          :         -39.70857692 Ha       -1080.52535451 eV
  | XC potential correction       :          52.46137072 Ha        1427.54653000 eV
  | Free-atom electrostatic energy:        -263.39488195 Ha       -7167.33940814 eV
  | Hartree energy correction     :          -0.77882718 Ha         -21.19296593 eV
  | Entropy correction            :          -0.00000000 Ha          -0.00000000 eV
  | ---------------------------
  | Total energy                  :        -578.71292244 Ha      -15747.57984752 eV
  | Total energy, T -> 0          :        -578.71292244 Ha      -15747.57984752 eV  <-- do not rely on this value for anything but (periodic) metals
  | Electronic free energy        :        -578.71292244 Ha      -15747.57984752 eV

  Derived energy quantities:
  | Kinetic energy                :         579.70576580 Ha       15774.59649007 eV
  | Electrostatic energy          :       -1118.71011132 Ha      -30441.65098308 eV
  | Energy correction for multipole
  | error in Hartree potential    :           0.01614956 Ha           0.43945181 eV
  | Sum of eigenvalues per atom                           :       -4453.03432446 eV
  | Total energy (T->0) per atom                          :       -7873.78992376 eV  <-- do not rely on this value for anything but (periodic) metals
  | Electronic free energy per atom                       :       -7873.78992376 eV

  Self-consistency convergence accuracy:
  | Change of charge density      :  0.1580E-01
  | Change of sum of eigenvalues  : -0.3055E+01 eV
  | Change of total energy        :  0.8443E-02 eV

  End self-consistency iteration #     4       :  max(cpu_time)    wall_clock(cpu1)
  | Time for this iteration                    :        1.981 s           1.981 s
  | Charge density update                      :        0.920 s           0.920 s
  | Density mixing & preconditioning           :        0.048 s           0.048 s
  | Hartree multipole update                   :        0.001 s           0.001 s
  | Hartree multipole summation                :        0.449 s           0.449 s
  | Integration                                :        0.555 s           0.555 s
  | Solution of K.-S. eqns.                    :        0.008 s           0.008 s
  | Total energy evaluation                    :        0.000 s           0.000 s

  Partial memory accounting:
  | Current value for overall tracked memory usage on task 0  :           0.898 MB
  | Peak value for overall tracked memory usage on task 0     :           3.572 MB after allocating wave
  | Largest tracked array allocation on task 0 so far         :           1.606 MB  when allocating hamiltonian_shell
  Note:  These values currently only include a subset of arrays which are explicitly tracked.
  The "true" memory usage will be greater.
------------------------------------------------------------

------------------------------------------------------------
          Begin self-consistency iteration #    5

  Date     :  20190509, Time     :  175120.899
------------------------------------------------------------
  Evaluating new KS density using the density matrix
  Evaluating density matrix
  Time summed over all CPUs for getting density from density matrix: real work        0.908 s, elapsed        0.908 s
  Integration grid: deviation in total charge (<rho> - N_e) =   3.552714E-14
  Pulay mixing of updated and previous charge densities.

  Evaluating partitioned Hartree potential by multipole expansion.
  | Analytical far-field extrapolation by fixed multipoles:
  | Hartree multipole sum: apparent total charge =   0.486666E-02
  Summing up the Hartree potential.
  Time summed over all CPUs for potential: real work        0.437 s, elapsed        0.437 s
  | RMS charge density error from multipole expansion :   0.119110E-01
  | Average real-space part of the electrostatic potential :      0.35465408 eV

  Integrating Hamiltonian matrix: batch-based integration.
  Time summed over all CPUs for integration: real work        0.556 s, elapsed        0.556 s

  Updating Kohn-Sham eigenvalues, eigenvectors, occupation numbers, and Fermi level.
  Solving generalized eigenproblem

  Obtaining occupation numbers and chemical potential using ELSI.
  | Chemical potential (Fermi level):    -5.45910880eV
  What follows are estimated values for band gap, HOMO, LUMO, etc.
  | They are estimated on a discrete k-point grid and not necessarily exact.
  | For converged numbers, create a DOS and/or band structure plot on a denser k-grid.

  Highest occupied state (VBM) at     -5.67170270 eV (relative to internal zero)
  | Occupation number:      2.00000000
  | K-point:       1 at    0.000000    0.000000    0.000000 (in units of recip. lattice)

  Lowest unoccupied state (CBM) at    -5.02602311 eV (relative to internal zero)
  | Occupation number:      0.00000000
  | K-point:       5 at    0.000000    0.666667    0.666667 (in units of recip. lattice)

  ESTIMATED overall HOMO-LUMO gap:      0.64567959 eV between HOMO at k-point 1 and LUMO at k-point 5
  | This appears to be an indirect band gap.
  | Smallest direct gap :      2.48822318 eV for k_point 1 at    0.000000    0.666667    0.666667 (in units of recip. lattice)
  The gap value is above 0.2 eV. Unless you are using a very sparse k-point grid,
  this system is most likely an insulator or a semiconductor.

  Total energy components:
  | Sum of eigenvalues            :        -327.32863601 Ha       -8907.06537238 eV
  | XC energy correction          :         -39.70607958 Ha       -1080.45739834 eV
  | XC potential correction       :          52.45805753 Ha        1427.45637345 eV
  | Free-atom electrostatic energy:        -263.39488195 Ha       -7167.33940814 eV
  | Hartree energy correction     :          -0.74134205 Ha         -20.17294366 eV
  | Entropy correction            :          -0.00000000 Ha          -0.00000000 eV
  | ---------------------------
  | Total energy                  :        -578.71288207 Ha      -15747.57874908 eV
  | Total energy, T -> 0          :        -578.71288207 Ha      -15747.57874908 eV  <-- do not rely on this value for anything but (periodic) metals
  | Electronic free energy        :        -578.71288207 Ha      -15747.57874908 eV

  Derived energy quantities:
  | Kinetic energy                :         579.68400066 Ha       15774.00423038 eV
  | Electrostatic energy          :       -1118.69080315 Ha      -30441.12558112 eV
  | Energy correction for multipole
  | error in Hartree potential    :           0.01604039 Ha           0.43648121 eV
  | Sum of eigenvalues per atom                           :       -4453.53268619 eV
  | Total energy (T->0) per atom                          :       -7873.78937454 eV  <-- do not rely on this value for anything but (periodic) metals
  | Electronic free energy per atom                       :       -7873.78937454 eV

  Self-consistency convergence accuracy:
  | Change of charge density      :  0.9793E-02
  | Change of sum of eigenvalues  : -0.9967E+00 eV
  | Change of total energy        :  0.1098E-02 eV

  End self-consistency iteration #     5       :  max(cpu_time)    wall_clock(cpu1)
  | Time for this iteration                    :        1.958 s           1.959 s
  | Charge density update                      :        0.908 s           0.909 s
  | Density mixing & preconditioning           :        0.045 s           0.045 s
  | Hartree multipole update                   :        0.001 s           0.001 s
  | Hartree multipole summation                :        0.440 s           0.440 s
  | Integration                                :        0.556 s           0.556 s
  | Solution of K.-S. eqns.                    :        0.008 s           0.008 s
  | Total energy evaluation                    :        0.000 s           0.000 s

  Partial memory accounting:
  | Current value for overall tracked memory usage on task 0  :           0.898 MB
  | Peak value for overall tracked memory usage on task 0     :           3.572 MB after allocating wave
  | Largest tracked array allocation on task 0 so far         :           1.606 MB  when allocating hamiltonian_shell
  Note:  These values currently only include a subset of arrays which are explicitly tracked.
  The "true" memory usage will be greater.
------------------------------------------------------------

------------------------------------------------------------
          Begin self-consistency iteration #    6

  Date     :  20190509, Time     :  175122.858
------------------------------------------------------------
  Evaluating new KS density using the density matrix
  Evaluating density matrix
  Time summed over all CPUs for getting density from density matrix: real work        0.909 s, elapsed        0.909 s
  Integration grid: deviation in total charge (<rho> - N_e) =   1.740830E-13
  Pulay mixing of updated and previous charge densities.

  Evaluating partitioned Hartree potential by multipole expansion.
  | Analytical far-field extrapolation by fixed multipoles:
  | Hartree multipole sum: apparent total charge =   0.462231E-02
  Summing up the Hartree potential.
  Time summed over all CPUs for potential: real work        0.441 s, elapsed        0.441 s
  | RMS charge density error from multipole expansion :   0.119380E-01
  | Average real-space part of the electrostatic potential :      0.35446312 eV

  Integrating Hamiltonian matrix: batch-based integration.
  Time summed over all CPUs for integration: real work        0.557 s, elapsed        0.557 s

  Updating Kohn-Sham eigenvalues, eigenvectors, occupation numbers, and Fermi level.
  Solving generalized eigenproblem

  Obtaining occupation numbers and chemical potential using ELSI.
  | Chemical potential (Fermi level):    -5.45960411eV
  What follows are estimated values for band gap, HOMO, LUMO, etc.
  | They are estimated on a discrete k-point grid and not necessarily exact.
  | For converged numbers, create a DOS and/or band structure plot on a denser k-grid.

  Highest occupied state (VBM) at     -5.67240663 eV (relative to internal zero)
  | Occupation number:      2.00000000
  | K-point:       1 at    0.000000    0.000000    0.000000 (in units of recip. lattice)

  Lowest unoccupied state (CBM) at    -5.02632995 eV (relative to internal zero)
  | Occupation number:      0.00000000
  | K-point:       5 at    0.000000    0.666667    0.666667 (in units of recip. lattice)

  ESTIMATED overall HOMO-LUMO gap:      0.64607669 eV between HOMO at k-point 1 and LUMO at k-point 5
  | This appears to be an indirect band gap.
  | Smallest direct gap :      2.48830311 eV for k_point 1 at    0.000000    0.666667    0.666667 (in units of recip. lattice)
  The gap value is above 0.2 eV. Unless you are using a very sparse k-point grid,
  this system is most likely an insulator or a semiconductor.

  Total energy components:
  | Sum of eigenvalues            :        -327.33776127 Ha       -8907.31368317 eV
  | XC energy correction          :         -39.70528612 Ha       -1080.43580717 eV
  | XC potential correction       :          52.45700366 Ha        1427.42769640 eV
  | Free-atom electrostatic energy:        -263.39488195 Ha       -7167.33940814 eV
  | Hartree energy correction     :          -0.73194781 Ha         -19.91731336 eV
  | Entropy correction            :          -0.00000000 Ha          -0.00000000 eV
  | ---------------------------
  | Total energy                  :        -578.71287348 Ha      -15747.57851545 eV
  | Total energy, T -> 0          :        -578.71287348 Ha      -15747.57851545 eV  <-- do not rely on this value for anything but (periodic) metals
  | Electronic free energy        :        -578.71287348 Ha      -15747.57851545 eV

  Derived energy quantities:
  | Kinetic energy                :         579.67190194 Ha       15773.67500741 eV
  | Electrostatic energy          :       -1118.67948930 Ha      -30440.81771568 eV
  | Energy correction for multipole
  | error in Hartree potential    :           0.01606145 Ha           0.43705439 eV
  | Sum of eigenvalues per atom                           :       -4453.65684159 eV
  | Total energy (T->0) per atom                          :       -7873.78925772 eV  <-- do not rely on this value for anything but (periodic) metals
  | Electronic free energy per atom                       :       -7873.78925772 eV

  Self-consistency convergence accuracy:
  | Change of charge density      :  0.8362E-02
  | Change of sum of eigenvalues  : -0.2483E+00 eV
  | Change of total energy        :  0.2336E-03 eV

  End self-consistency iteration #     6       :  max(cpu_time)    wall_clock(cpu1)
  | Time for this iteration                    :        1.964 s           1.964 s
  | Charge density update                      :        0.910 s           0.910 s
  | Density mixing & preconditioning           :        0.044 s           0.044 s
  | Hartree multipole update                   :        0.001 s           0.001 s
  | Hartree multipole summation                :        0.444 s           0.444 s
  | Integration                                :        0.557 s           0.557 s
  | Solution of K.-S. eqns.                    :        0.008 s           0.008 s
  | Total energy evaluation                    :        0.000 s           0.000 s

  Partial memory accounting:
  | Current value for overall tracked memory usage on task 0  :           0.899 MB
  | Peak value for overall tracked memory usage on task 0     :           3.572 MB after allocating wave
  | Largest tracked array allocation on task 0 so far         :           1.606 MB  when allocating hamiltonian_shell
  Note:  These values currently only include a subset of arrays which are explicitly tracked.
  The "true" memory usage will be greater.
------------------------------------------------------------

------------------------------------------------------------
          Begin self-consistency iteration #    7

  Date     :  20190509, Time     :  175124.822
------------------------------------------------------------
  Evaluating new KS density using the density matrix
  Evaluating density matrix
  Time summed over all CPUs for getting density from density matrix: real work        0.917 s, elapsed        0.917 s
  Integration grid: deviation in total charge (<rho> - N_e) =   1.243450E-13
  Pulay mixing of updated and previous charge densities.

  Evaluating partitioned Hartree potential by multipole expansion.
  | Analytical far-field extrapolation by fixed multipoles:
  | Hartree multipole sum: apparent total charge =   0.450082E-02
  Summing up the Hartree potential.
  Time summed over all CPUs for potential: real work        0.441 s, elapsed        0.441 s
  | RMS charge density error from multipole expansion :   0.119073E-01
  | Average real-space part of the electrostatic potential :      0.35193434 eV

  Integrating Hamiltonian matrix: batch-based integration.
  Time summed over all CPUs for integration: real work        0.561 s, elapsed        0.561 s

  Updating Kohn-Sham eigenvalues, eigenvectors, occupation numbers, and Fermi level.
  Solving generalized eigenproblem

  Obtaining occupation numbers and chemical potential using ELSI.
  | Chemical potential (Fermi level):    -5.46197610eV
  What follows are estimated values for band gap, HOMO, LUMO, etc.
  | They are estimated on a discrete k-point grid and not necessarily exact.
  | For converged numbers, create a DOS and/or band structure plot on a denser k-grid.

  Highest occupied state (VBM) at     -5.67635183 eV (relative to internal zero)
  | Occupation number:      2.00000000
  | K-point:       1 at    0.000000    0.000000    0.000000 (in units of recip. lattice)

  Lowest unoccupied state (CBM) at    -5.02787171 eV (relative to internal zero)
  | Occupation number:      0.00000000
  | K-point:       5 at    0.000000    0.666667    0.666667 (in units of recip. lattice)

  ESTIMATED overall HOMO-LUMO gap:      0.64848012 eV between HOMO at k-point 1 and LUMO at k-point 5
  | This appears to be an indirect band gap.
  | Smallest direct gap :      2.48997724 eV for k_point 1 at    0.000000    0.666667    0.666667 (in units of recip. lattice)
  The gap value is above 0.2 eV. Unless you are using a very sparse k-point grid,
  this system is most likely an insulator or a semiconductor.

  Total energy components:
  | Sum of eigenvalues            :        -327.35189850 Ha       -8907.69837702 eV
  | XC energy correction          :         -39.70389087 Ha       -1080.39784065 eV
  | XC potential correction       :          52.45515599 Ha        1427.37741874 eV
  | Free-atom electrostatic energy:        -263.39488195 Ha       -7167.33940814 eV
  | Hartree energy correction     :          -0.71734618 Ha         -19.51998265 eV
  | Entropy correction            :          -0.00000000 Ha          -0.00000000 eV
  | ---------------------------
  | Total energy                  :        -578.71286151 Ha      -15747.57818973 eV
  | Total energy, T -> 0          :        -578.71286151 Ha      -15747.57818973 eV  <-- do not rely on this value for anything but (periodic) metals
  | Electronic free energy        :        -578.71286151 Ha      -15747.57818973 eV

  Derived energy quantities:
  | Kinetic energy                :         579.65584443 Ha       15773.23806049 eV
  | Electrostatic energy          :       -1118.66481507 Ha      -30440.41840957 eV
  | Energy correction for multipole
  | error in Hartree potential    :           0.01600185 Ha           0.43543249 eV
  | Sum of eigenvalues per atom                           :       -4453.84918851 eV
  | Total energy (T->0) per atom                          :       -7873.78909486 eV  <-- do not rely on this value for anything but (periodic) metals
  | Electronic free energy per atom                       :       -7873.78909486 eV

  Self-consistency convergence accuracy:
  | Change of charge density      :  0.7862E-02
  | Change of sum of eigenvalues  : -0.3847E+00 eV
  | Change of total energy        :  0.3257E-03 eV

  End self-consistency iteration #     7       :  max(cpu_time)    wall_clock(cpu1)
  | Time for this iteration                    :        1.978 s           1.979 s
  | Charge density update                      :        0.918 s           0.918 s
  | Density mixing & preconditioning           :        0.044 s           0.044 s
  | Hartree multipole update                   :        0.001 s           0.001 s
  | Hartree multipole summation                :        0.445 s           0.446 s
  | Integration                                :        0.562 s           0.561 s
  | Solution of K.-S. eqns.                    :        0.008 s           0.008 s
  | Total energy evaluation                    :        0.000 s           0.001 s

  Partial memory accounting:
  | Current value for overall tracked memory usage on task 0  :           0.899 MB
  | Peak value for overall tracked memory usage on task 0     :           3.572 MB after allocating wave
  | Largest tracked array allocation on task 0 so far         :           1.606 MB  when allocating hamiltonian_shell
  Note:  These values currently only include a subset of arrays which are explicitly tracked.
  The "true" memory usage will be greater.
------------------------------------------------------------

------------------------------------------------------------
          Begin self-consistency iteration #    8

  Date     :  20190509, Time     :  175126.801
------------------------------------------------------------
  Evaluating new KS density using the density matrix
  Evaluating density matrix
  Time summed over all CPUs for getting density from density matrix: real work        0.916 s, elapsed        0.916 s
  Integration grid: deviation in total charge (<rho> - N_e) =   1.563194E-13
  Pulay mixing of updated and previous charge densities.

  Evaluating partitioned Hartree potential by multipole expansion.
  | Analytical far-field extrapolation by fixed multipoles:
  | Hartree multipole sum: apparent total charge =   0.468627E-02
  Summing up the Hartree potential.
  Time summed over all CPUs for potential: real work        0.442 s, elapsed        0.442 s
  | RMS charge density error from multipole expansion :   0.118758E-01
  | Average real-space part of the electrostatic potential :      0.34456933 eV

  Integrating Hamiltonian matrix: batch-based integration.
  Time summed over all CPUs for integration: real work        0.562 s, elapsed        0.562 s

  Updating Kohn-Sham eigenvalues, eigenvectors, occupation numbers, and Fermi level.
  Solving generalized eigenproblem

  Obtaining occupation numbers and chemical potential using ELSI.
  | Chemical potential (Fermi level):    -5.46687682eV
  What follows are estimated values for band gap, HOMO, LUMO, etc.
  | They are estimated on a discrete k-point grid and not necessarily exact.
  | For converged numbers, create a DOS and/or band structure plot on a denser k-grid.

  Highest occupied state (VBM) at     -5.68457385 eV (relative to internal zero)
  | Occupation number:      2.00000000
  | K-point:       1 at    0.000000    0.000000    0.000000 (in units of recip. lattice)

  Lowest unoccupied state (CBM) at    -5.03085619 eV (relative to internal zero)
  | Occupation number:      0.00000000
  | K-point:       5 at    0.000000    0.666667    0.666667 (in units of recip. lattice)

  ESTIMATED overall HOMO-LUMO gap:      0.65371766 eV between HOMO at k-point 1 and LUMO at k-point 5
  | This appears to be an indirect band gap.
  | Smallest direct gap :      2.49338444 eV for k_point 1 at    0.000000    0.666667    0.666667 (in units of recip. lattice)
  The gap value is above 0.2 eV. Unless you are using a very sparse k-point grid,
  this system is most likely an insulator or a semiconductor.

  Total energy components:
  | Sum of eigenvalues            :        -327.38836599 Ha       -8908.69070777 eV
  | XC energy correction          :         -39.70016323 Ha       -1080.29640640 eV
  | XC potential correction       :          52.45022048 Ha        1427.24311657 eV
  | Free-atom electrostatic energy:        -263.39488195 Ha       -7167.33940814 eV
  | Hartree energy correction     :          -0.67964316 Ha         -18.49403141 eV
  | Entropy correction            :          -0.00000000 Ha          -0.00000000 eV
  | ---------------------------
  | Total energy                  :        -578.71283386 Ha      -15747.57743715 eV
  | Total energy, T -> 0          :        -578.71283386 Ha      -15747.57743715 eV  <-- do not rely on this value for anything but (periodic) metals
  | Electronic free energy        :        -578.71283386 Ha      -15747.57743715 eV

  Derived energy quantities:
  | Kinetic energy                :         579.61131790 Ha       15772.02643198 eV
  | Electrostatic energy          :       -1118.62398853 Ha      -30439.30746273 eV
  | Energy correction for multipole
  | error in Hartree potential    :           0.01591217 Ha           0.43299225 eV
  | Sum of eigenvalues per atom                           :       -4454.34535388 eV
  | Total energy (T->0) per atom                          :       -7873.78871858 eV  <-- do not rely on this value for anything but (periodic) metals
  | Electronic free energy per atom                       :       -7873.78871858 eV

  Self-consistency convergence accuracy:
  | Change of charge density      :  0.7006E-02
  | Change of sum of eigenvalues  : -0.9923E+00 eV
  | Change of total energy        :  0.7526E-03 eV

  End self-consistency iteration #     8       :  max(cpu_time)    wall_clock(cpu1)
  | Time for this iteration                    :        1.978 s           1.977 s
  | Charge density update                      :        0.917 s           0.917 s
  | Density mixing & preconditioning           :        0.044 s           0.044 s
  | Hartree multipole update                   :        0.001 s           0.001 s
  | Hartree multipole summation                :        0.445 s           0.445 s
  | Integration                                :        0.562 s           0.562 s
  | Solution of K.-S. eqns.                    :        0.008 s           0.008 s
  | Total energy evaluation                    :        0.000 s           0.000 s

  Partial memory accounting:
  | Current value for overall tracked memory usage on task 0  :           0.899 MB
  | Peak value for overall tracked memory usage on task 0     :           3.572 MB after allocating wave
  | Largest tracked array allocation on task 0 so far         :           1.606 MB  when allocating hamiltonian_shell
  Note:  These values currently only include a subset of arrays which are explicitly tracked.
  The "true" memory usage will be greater.
------------------------------------------------------------

------------------------------------------------------------
          Begin self-consistency iteration #    9

  Date     :  20190509, Time     :  175128.778
------------------------------------------------------------
  Evaluating new KS density using the density matrix
  Evaluating density matrix
  Time summed over all CPUs for getting density from density matrix: real work        0.916 s, elapsed        0.916 s
  Integration grid: deviation in total charge (<rho> - N_e) =  -7.105427E-15
  Pulay mixing of updated and previous charge densities.

  Evaluating partitioned Hartree potential by multipole expansion.
  | Analytical far-field extrapolation by fixed multipoles:
  | Hartree multipole sum: apparent total charge =   0.473683E-02
  Summing up the Hartree potential.
  Time summed over all CPUs for potential: real work        0.440 s, elapsed        0.440 s
  | RMS charge density error from multipole expansion :   0.118533E-01
  | Average real-space part of the electrostatic potential :      0.34040165 eV

  Integrating Hamiltonian matrix: batch-based integration.
  Time summed over all CPUs for integration: real work        0.562 s, elapsed        0.562 s

  Updating Kohn-Sham eigenvalues, eigenvectors, occupation numbers, and Fermi level.
  Solving generalized eigenproblem

  Obtaining occupation numbers and chemical potential using ELSI.
  | Chemical potential (Fermi level):    -5.46983341eV
  What follows are estimated values for band gap, HOMO, LUMO, etc.
  | They are estimated on a discrete k-point grid and not necessarily exact.
  | For converged numbers, create a DOS and/or band structure plot on a denser k-grid.

  Highest occupied state (VBM) at     -5.68952550 eV (relative to internal zero)
  | Occupation number:      2.00000000
  | K-point:       1 at    0.000000    0.000000    0.000000 (in units of recip. lattice)

  Lowest unoccupied state (CBM) at    -5.03268310 eV (relative to internal zero)
  | Occupation number:      0.00000000
  | K-point:       5 at    0.000000    0.666667    0.666667 (in units of recip. lattice)

  ESTIMATED overall HOMO-LUMO gap:      0.65684240 eV between HOMO at k-point 1 and LUMO at k-point 5
  | This appears to be an indirect band gap.
  | Smallest direct gap :      2.49544274 eV for k_point 1 at    0.000000    0.666667    0.666667 (in units of recip. lattice)
  The gap value is above 0.2 eV. Unless you are using a very sparse k-point grid,
  this system is most likely an insulator or a semiconductor.

  Total energy components:
  | Sum of eigenvalues            :        -327.40960604 Ha       -8909.26867905 eV
  | XC energy correction          :         -39.69800583 Ha       -1080.23770061 eV
  | XC potential correction       :          52.44736380 Ha        1427.16538248 eV
  | Free-atom electrostatic energy:        -263.39488195 Ha       -7167.33940814 eV
  | Hartree energy correction     :          -0.65769068 Ha         -17.89667397 eV
  | Entropy correction            :          -0.00000000 Ha          -0.00000000 eV
  | ---------------------------
  | Total energy                  :        -578.71282070 Ha      -15747.57707928 eV
  | Total energy, T -> 0          :        -578.71282070 Ha      -15747.57707928 eV  <-- do not rely on this value for anything but (periodic) metals
  | Electronic free energy        :        -578.71282070 Ha      -15747.57707928 eV

  Derived energy quantities:
  | Kinetic energy                :         579.58554030 Ha       15771.32498788 eV
[...]
  | Total energy evaluation                    :        0.000 s           0.000 s

  Partial memory accounting:
  | Current value for overall tracked memory usage on task 0  :           0.900 MB
  | Peak value for overall tracked memory usage on task 0     :           3.572 MB after allocating wave
  | Largest tracked array allocation on task 0 so far         :           1.606 MB  when allocating hamiltonian_shell
  Note:  These values currently only include a subset of arrays which are explicitly tracked.
  The "true" memory usage will be greater.
------------------------------------------------------------

------------------------------------------------------------
          Begin self-consistency iteration #   12

  Date     :  20190509, Time     :  175134.733
------------------------------------------------------------
  Evaluating new KS density using the density matrix
  Evaluating density matrix
  Time summed over all CPUs for getting density from density matrix: real work        0.936 s, elapsed        0.936 s
  Integration grid: deviation in total charge (<rho> - N_e) =   3.552714E-14
  Pulay mixing of updated and previous charge densities.

  Evaluating partitioned Hartree potential by multipole expansion.
  | Analytical far-field extrapolation by fixed multipoles:
  | Hartree multipole sum: apparent total charge =   0.474147E-02
  Summing up the Hartree potential.
  Time summed over all CPUs for potential: real work        0.445 s, elapsed        0.445 s
  | RMS charge density error from multipole expansion :   0.118040E-01
  | Average real-space part of the electrostatic potential :      0.32985102 eV

  Integrating Hamiltonian matrix: batch-based integration.
  Time summed over all CPUs for integration: real work        0.567 s, elapsed        0.567 s

  Updating Kohn-Sham eigenvalues, eigenvectors, occupation numbers, and Fermi level.
  Solving generalized eigenproblem

  Obtaining occupation numbers and chemical potential using ELSI.
  | Chemical potential (Fermi level):    -5.47755057eV
  What follows are estimated values for band gap, HOMO, LUMO, etc.
  | They are estimated on a discrete k-point grid and not necessarily exact.
  | For converged numbers, create a DOS and/or band structure plot on a denser k-grid.

  Highest occupied state (VBM) at     -5.70240044 eV (relative to internal zero)
  | Occupation number:      2.00000000
  | K-point:       1 at    0.000000    0.000000    0.000000 (in units of recip. lattice)

  Lowest unoccupied state (CBM) at    -5.03745649 eV (relative to internal zero)
  | Occupation number:      0.00000000
  | K-point:       5 at    0.000000    0.666667    0.666667 (in units of recip. lattice)

  ESTIMATED overall HOMO-LUMO gap:      0.66494395 eV between HOMO at k-point 1 and LUMO at k-point 5
  | This appears to be an indirect band gap.
  | Smallest direct gap :      2.50072292 eV for k_point 1 at    0.000000    0.666667    0.666667 (in units of recip. lattice)
  The gap value is above 0.2 eV. Unless you are using a very sparse k-point grid,
  this system is most likely an insulator or a semiconductor.

  Total energy components:
  | Sum of eigenvalues            :        -327.46634304 Ha       -8910.81257124 eV
  | XC energy correction          :         -39.69231364 Ha       -1080.08280814 eV
  | XC potential correction       :          52.43982532 Ha        1426.96024991 eV
  | Free-atom electrostatic energy:        -263.39488195 Ha       -7167.33940814 eV
  | Hartree energy correction     :          -0.59908186 Ha         -16.30184678 eV
  | Entropy correction            :          -0.00000000 Ha          -0.00000000 eV
  | ---------------------------
  | Total energy                  :        -578.71279517 Ha      -15747.57638439 eV
  | Total energy, T -> 0          :        -578.71279517 Ha      -15747.57638439 eV  <-- do not rely on this value for anything but (periodic) metals
  | Electronic free energy        :        -578.71279517 Ha      -15747.57638439 eV

  Derived energy quantities:
  | Kinetic energy                :         579.51642564 Ha       15769.44428222 eV
  | Electrostatic energy          :       -1118.53690717 Ha      -30436.93785846 eV
  | Energy correction for multipole
  | error in Hartree potential    :           0.01571129 Ha           0.42752596 eV
  | Sum of eigenvalues per atom                           :       -4455.40628562 eV
  | Total energy (T->0) per atom                          :       -7873.78819219 eV  <-- do not rely on this value for anything but (periodic) metals
  | Electronic free energy per atom                       :       -7873.78819219 eV

  Self-consistency convergence accuracy:
  | Change of charge density      :  0.1343E-05
  | Change of sum of eigenvalues  : -0.2807E-03 eV
  | Change of total energy        : -0.1046E-06 eV

  End self-consistency iteration #    12       :  max(cpu_time)    wall_clock(cpu1)
  | Time for this iteration                    :        2.008 s           2.007 s
  | Charge density update                      :        0.938 s           0.937 s
  | Density mixing & preconditioning           :        0.045 s           0.046 s
  | Hartree multipole update                   :        0.001 s           0.001 s
  | Hartree multipole summation                :        0.449 s           0.448 s
  | Integration                                :        0.566 s           0.567 s
  | Solution of K.-S. eqns.                    :        0.008 s           0.008 s
  | Total energy evaluation                    :        0.000 s           0.000 s

  Partial memory accounting:
  | Current value for overall tracked memory usage on task 0  :           0.900 MB
  | Peak value for overall tracked memory usage on task 0     :           3.572 MB after allocating wave
  | Largest tracked array allocation on task 0 so far         :           1.606 MB  when allocating hamiltonian_shell
  Note:  These values currently only include a subset of arrays which are explicitly tracked.
  The "true" memory usage will be greater.
------------------------------------------------------------

------------------------------------------------------------
          Begin self-consistency iteration #   13

  Date     :  20190509, Time     :  175136.740
------------------------------------------------------------
  Evaluating new KS density using the density matrix
  Evaluating density matrix
  Time summed over all CPUs for getting density from density matrix: real work        0.917 s, elapsed        0.917 s
  Integration grid: deviation in total charge (<rho> - N_e) =  -7.105427E-15
  Pulay mixing of updated and previous charge densities.

  Evaluating partitioned Hartree potential by multipole expansion.
  | Analytical far-field extrapolation by fixed multipoles:
  | Hartree multipole sum: apparent total charge =   0.474149E-02
  Summing up the Hartree potential.
  Time summed over all CPUs for potential: real work        0.442 s, elapsed        0.442 s
  | RMS charge density error from multipole expansion :   0.118040E-01
  | Average real-space part of the electrostatic potential :      0.32985089 eV

  Integrating Hamiltonian matrix: batch-based integration.
  Time summed over all CPUs for integration: real work        0.559 s, elapsed        0.559 s

  Updating Kohn-Sham eigenvalues, eigenvectors, occupation numbers, and Fermi level.
  Solving generalized eigenproblem

  Obtaining occupation numbers and chemical potential using ELSI.
  | Chemical potential (Fermi level):    -5.47755062eV
  What follows are estimated values for band gap, HOMO, LUMO, etc.
  | They are estimated on a discrete k-point grid and not necessarily exact.
  | For converged numbers, create a DOS and/or band structure plot on a denser k-grid.

  Highest occupied state (VBM) at     -5.70240063 eV (relative to internal zero)
  | Occupation number:      2.00000000
  | K-point:       1 at    0.000000    0.000000    0.000000 (in units of recip. lattice)

  Lowest unoccupied state (CBM) at    -5.03745663 eV (relative to internal zero)
  | Occupation number:      0.00000000
  | K-point:       5 at    0.000000    0.666667    0.666667 (in units of recip. lattice)

  ESTIMATED overall HOMO-LUMO gap:      0.66494400 eV between HOMO at k-point 1 and LUMO at k-point 5
  | This appears to be an indirect band gap.
  | Smallest direct gap :      2.50072300 eV for k_point 1 at    0.000000    0.666667    0.666667 (in units of recip. lattice)
  The gap value is above 0.2 eV. Unless you are using a very sparse k-point grid,
  this system is most likely an insulator or a semiconductor.

  Total energy components:
  | Sum of eigenvalues            :        -327.46634530 Ha       -8910.81263273 eV
  | XC energy correction          :         -39.69231330 Ha       -1080.08279899 eV
  | XC potential correction       :          52.43982487 Ha        1426.96023778 eV
  | Free-atom electrostatic energy:        -263.39488195 Ha       -7167.33940814 eV
  | Hartree energy correction     :          -0.59907949 Ha         -16.30178233 eV
  | Entropy correction            :          -0.00000000 Ha          -0.00000000 eV
  | ---------------------------
  | Total energy                  :        -578.71279517 Ha      -15747.57638441 eV
  | Total energy, T -> 0          :        -578.71279517 Ha      -15747.57638441 eV  <-- do not rely on this value for anything but (periodic) metals
  | Electronic free energy        :        -578.71279517 Ha      -15747.57638441 eV

  Derived energy quantities:
  | Kinetic energy                :         579.51642148 Ha       15769.44416902 eV
  | Electrostatic energy          :       -1118.53690335 Ha      -30436.93775444 eV
  | Energy correction for multipole
  | error in Hartree potential    :           0.01571128 Ha           0.42752556 eV
  | Sum of eigenvalues per atom                           :       -4455.40631636 eV
  | Total energy (T->0) per atom                          :       -7873.78819221 eV  <-- do not rely on this value for anything but (periodic) metals
  | Electronic free energy per atom                       :       -7873.78819221 eV

  Self-consistency convergence accuracy:
  | Change of charge density      :  0.2763E-06
  | Change of sum of eigenvalues  : -0.6149E-04 eV
  | Change of total energy        : -0.2370E-07 eV

  Preliminary charge convergence reached. Turning off preconditioner.

  Writing Kohn-Sham eigenvalues.
  K-point:       1 at    0.000000    0.000000    0.000000 (in units of recip. lattice)

  State    Occupation    Eigenvalue [Ha]    Eigenvalue [eV]
      1       2.00000         -65.484152        -1781.91443
      2       2.00000         -65.484152        -1781.91443
      3       2.00000          -5.090764         -138.52674
      4       2.00000          -5.090516         -138.51999
      5       2.00000          -3.504174          -95.35344
      6       2.00000          -3.504174          -95.35344
      7       2.00000          -3.504174          -95.35344
      8       2.00000          -3.503633          -95.33871
      9       2.00000          -3.503633          -95.33871
     10       2.00000          -3.503633          -95.33871
     11       2.00000          -0.640841          -17.43816
     12       2.00000          -0.209559           -5.70240
     13       2.00000          -0.209559           -5.70240
     14       2.00000          -0.209559           -5.70240
     15       0.00000          -0.117659           -3.20168
     16       0.00000          -0.117659           -3.20168
     17       0.00000          -0.117659           -3.20168
     18       0.00000          -0.103584           -2.81866
     19       0.00000           0.078791            2.14401
     20       0.00000           0.078791            2.14401

  What follows are estimated values for band gap, HOMO, LUMO, etc.
  | They are estimated on a discrete k-point grid and not necessarily exact.
  | For converged numbers, create a DOS and/or band structure plot on a denser k-grid.

  Highest occupied state (VBM) at     -5.70240063 eV (relative to internal zero)
  | Occupation number:      2.00000000
  | K-point:       1 at    0.000000    0.000000    0.000000 (in units of recip. lattice)

  Lowest unoccupied state (CBM) at    -5.03745663 eV (relative to internal zero)
  | Occupation number:      0.00000000
  | K-point:       5 at    0.000000    0.666667    0.666667 (in units of recip. lattice)

  ESTIMATED overall HOMO-LUMO gap:      0.66494400 eV between HOMO at k-point 1 and LUMO at k-point 5
  | This appears to be an indirect band gap.
  | Smallest direct gap :      2.50072300 eV for k_point 1 at    0.000000    0.666667    0.666667 (in units of recip. lattice)
  The gap value is above 0.2 eV. Unless you are using a very sparse k-point grid,
  this system is most likely an insulator or a semiconductor.

  Self-consistency cycle converged.

  End self-consistency iteration #    13       :  max(cpu_time)    wall_clock(cpu1)
  | Time for this iteration                    :        1.976 s           1.976 s
  | Charge density update                      :        0.917 s           0.918 s
  | Density mixing                             :        0.045 s           0.045 s
  | Hartree multipole update                   :        0.001 s           0.000 s
  | Hartree multipole summation                :        0.446 s           0.445 s
  | Integration                                :        0.559 s           0.559 s
  | Solution of K.-S. eqns.                    :        0.008 s           0.008 s
  | Total energy evaluation                    :        0.000 s           0.000 s

  Partial memory accounting:
  | Current value for overall tracked memory usage on task 0  :           0.900 MB
  | Peak value for overall tracked memory usage on task 0     :           3.572 MB after allocating wave
  | Largest tracked array allocation on task 0 so far         :           1.606 MB  when allocating hamiltonian_shell
  Note:  These values currently only include a subset of arrays which are explicitly tracked.
  The "true" memory usage will be greater.
------------------------------------------------------------

  Energy and forces in a compact form:
  | Total energy uncorrected      :         -0.157475763844102E+05 eV
  | Total energy corrected        :         -0.157475763844102E+05 eV  <-- do not rely on this value for anything but (periodic) metals
  | Electronic free energy        :         -0.157475763844102E+05 eV

  ------------------------------------ 
  Start decomposition of the XC Energy 
  ------------------------------------ 
  X and C from original XC functional choice 
  Hartree-Fock Energy :          0.000000000 Ha              0.000000000 eV
  X Energy            :        -37.547908873 Ha          -1021.730585516 eV
  C Energy            :         -2.144404430 Ha            -58.352213475 eV
  Total XC Energy     :        -39.692313303 Ha          -1080.082798991 eV
  ------------------------------------ 
  LDA X and C from self-consistent density 
  X Energy LDA        :        -37.547908873 Ha          -1021.730585516 eV
  C Energy LDA        :         -2.144404430 Ha            -58.352213475 eV
  ------------------------------------ 
  End decomposition of the XC Energy 
  ------------------------------------ 

------------------------------------------------------------

------------------------------------------------------------------------------
  Final output of selected total energy values:

  The following output summarizes some interesting total energy values
  at the end of a run (AFTER all relaxation, molecular dynamics, etc.).

  | Total energy of the DFT / Hartree-Fock s.c.f. calculation      :         -15747.576384410 eV
  | Final zero-broadening corrected energy (caution - metals only) :         -15747.576384410 eV
  | For reference only, the value of 1 Hartree used in FHI-aims is :             27.211384500 eV

  Before relying on these values, please be sure to understand exactly which
  total energy value is referred to by a given number. Different objects may
  all carry the same name 'total energy'. Definitions:

  Total energy of the DFT / Hartree-Fock s.c.f. calculation:
  | Note that this energy does not include ANY quantities calculated after the
  | s.c.f. cycle, in particular not ANY RPA, MP2, etc. many-body perturbation terms.

  Final zero-broadening corrected energy:
  | For metallic systems only, a broadening of the occupation numbers at the Fermi
  | level can be extrapolated back to zero broadening by an electron-gas inspired
  | formula. For all systems that are not real metals, this value can be
  | meaningless and should be avoided.

------------------------------------------------------------------------------
  Methods described in the following list of references were used in this FHI-aims run.
  If you publish the results, please make sure to cite these reference if they apply.
  FHI-aims is an academic code, and for our developers (often, Ph.D. students
  and postdocs), scientific credit in the community is essential.
  Thank you for helping us!

  For any use of FHI-aims, please cite:

    Volker Blum, Ralf Gehrke, Felix Hanke, Paula Havu, Ville Havu,
    Xinguo Ren, Karsten Reuter, and Matthias Scheffler
    'Ab initio molecular simulations with numeric atom-centered orbitals'
    Computer Physics Communications 180, 2175-2196 (2009)
    http://dx.doi.org/10.1016/j.cpc.2009.06.022


  For the real-space grid partitioning and parallelization used in this calculation, please cite:

    Ville Havu, Volker Blum, Paula Havu, and Matthias Scheffler,
    'Efficient O(N) integration for all-electron electronic structure calculation'
    'using numerically tabulated basis functions'
    Journal of Computational Physics 228, 8367-8379 (2009).
    http://dx.doi.org/10.1016/j.jcp.2009.08.008

  Of course, there are many other important community references, e.g., those cited in the
  above references. Our list is limited to references that describe implementations in the
  FHI-aims code. The reason is purely practical (length of this list) - please credit others as well.

------------------------------------------------------------
          Leaving FHI-aims.
          Date     :  20190509, Time     :  175138.724

          Computational steps:
          | Number of self-consistency cycles          :           13
          | Number of SCF (re)initializations          :            1

          Detailed time accounting                     :  max(cpu_time)    wall_clock(cpu1)
          | Total time                                 :       27.042 s          27.042 s
          | Preparation time                           :        0.102 s           0.102 s
          | Boundary condition initalization           :        0.037 s           0.037 s
          | Grid partitioning                          :        0.031 s           0.031 s
          | Preloading free-atom quantities on grid    :        0.001 s           0.000 s
          | Free-atom superposition energy             :        0.028 s           0.028 s
          | Total time for integrations                :        8.271 s           8.270 s
          | Total time for solution of K.-S. equations :        0.119 s           0.119 s
          | Total time for density update              :       11.969 s          11.967 s
          | Total time for mixing & preconditioning    :        0.589 s           0.589 s
          | Total time for Hartree multipole update    :        0.010 s           0.011 s
          | Total time for Hartree multipole sum       :        5.724 s           5.725 s
          | Total time for total energy evaluation     :        0.001 s           0.001 s
          | Total time for scaled ZORA corrections     :        0.000 s           0.000 s

 This is a stub MPI_ALLREDUCE call.
 You should not be here. Check your
 setting on the use_mpi variable, or
 link against true MPI-libraries.
