------------------------------------------------------------
          Invoking FHI-aims ...
          Version 171221_1
          Compiled on 2019/05/06 at 14:26:40 on host ffph0xx.

          When using FHI-aims, please cite the following reference:

          Volker Blum, Ralf Gehrke, Felix Hanke, Paula Havu,
          Ville Havu, Xinguo Ren, Karsten Reuter, and Matthias Scheffler,
          'Ab Initio Molecular Simulations with Numeric Atom-Centered Orbitals',
          Computer Physics Communications 180, 2175-2196 (2009)

          For any questions about FHI-aims, please visit the aimsclub website
          with its forums and wiki. Contributions to both the forums and the
          wiki are warmly encouraged - they are for you, and everyone is welcome there.

------------------------------------------------------------



  Date     :  20190509, Time     :  114708.896
  Time zero on CPU 1             :   0.738000000000000E-03  s.
  Internal wall clock time zero  :           326634428.896  s.

  FHI-aims created a unique identifier for this run for later identification
  aims_uuid : 41ED379A-B7C0-4EBF-A115-F3BAFC65B673


  Performing system and environment tests:
  *** Environment variable OMP_NUM_THREADS is not set
  *** For performance reasons you might want to set it to 1
  | Stacksize not measured: no C compiler

  Obtaining array dimensions for all initial allocations:
  
  -----------------------------------------------------------------------
  Parsing control.in (first pass over file, find array dimensions only).
  The contents of control.in will be repeated verbatim below
  unless switched off by setting 'verbatim_writeout .false.' .
  in the first line of control.in .
  -----------------------------------------------------------------------
  
  # Sample input file for the relaxation
  # of the H3O+ molecule
  #######################################
    xc  pw-lda
    charge 1.0
    spin none
  
  #######Iteration limit####################
    sc_iter_limit 100
  
  #######Relaxation######################
    ##########relax_geometry trm 1E-3
  
  #######Species#########################
  ################################################################################
  #
  #  FHI-aims code project
  #  VB, Fritz-Haber Institut, 2009
  #
  #  Suggested "light" defaults for H atom (to be pasted into control.in file)
  #  Be sure to double-check any results obtained with these settings for post-processing,
  #  e.g., with the "tight" defaults and larger basis sets.
  #
  ################################################################################
    species        H
  #     global species definitions
      nucleus             1
      mass                1.00794
  #
      l_hartree           4
  #
      cut_pot             3.5  1.5  1.0
      basis_dep_cutoff    1e-4
  #
      radial_base         24 5.0
      radial_multiplier   1
      angular_grids       specified
        division   0.2421   50
        division   0.3822  110
        division   0.4799  194
        division   0.5341  302
  #      division   0.5626  434
  #      division   0.5922  590
  #      division   0.6542  770
  #      division   0.6868 1202
  #      outer_grid  770
        outer_grid  302
  ################################################################################
  #
  #  Definition of "minimal" basis
  #
  ################################################################################
  #     valence basis states
      valence      1  s   1.
  #     ion occupancy
      ion_occ      1  s   0.5
  ################################################################################
  #
  #  Suggested additional basis functions. For production calculations,
  #  uncomment them one after another (the most important basis functions are
  #  listed first).
  #
  #  Basis constructed for dimers: 0.5 A, 0.7 A, 1.0 A, 1.5 A, 2.5 A
  #
  ################################################################################
  #  "First tier" - improvements: -1014.90 meV to -62.69 meV
       hydro 2 s 2.1
       hydro 2 p 3.5
  #  "Second tier" - improvements: -12.89 meV to -1.83 meV
  #     hydro 1 s 0.85
  #     hydro 2 p 3.7
  #     hydro 2 s 1.2
  #     hydro 3 d 7
  #  "Third tier" - improvements: -0.25 meV to -0.12 meV
  #     hydro 4 f 11.2
  #     hydro 3 p 4.8
  #     hydro 4 d 9
  #     hydro 3 s 3.2
  ################################################################################
  #
  #  FHI-aims code project
  #  VB, Fritz-Haber Institut, 2009
  #
  #  Suggested "light" defaults for O atom (to be pasted into control.in file)
  #  Be sure to double-check any results obtained with these settings for post-processing,
  #  e.g., with the "tight" defaults and larger basis sets.
  #
  ################################################################################
    species        O
  #     global species definitions
      nucleus             8
      mass                15.9994
  #
      l_hartree           4
  #
      cut_pot             3.5  1.5  1.0
      basis_dep_cutoff    1e-4
  #
      radial_base         36 5.0
      radial_multiplier   1
       angular_grids specified
        division   0.2659   50
        division   0.4451  110
        division   0.6052  194
        division   0.7543  302
  #      division   0.8014  434
  #      division   0.8507  590
  #      division   0.8762  770
  #      division   0.9023  974
  #      division   1.2339 1202
  #      outer_grid 974
        outer_grid 302
  ################################################################################
  #
  #  Definition of "minimal" basis
  #
  ################################################################################
  #     valence basis states
      valence      2  s   2.
      valence      2  p   4.
  #     ion occupancy
      ion_occ      2  s   1.
      ion_occ      2  p   3.
  ################################################################################
  #
  #  Suggested additional basis functions. For production calculations,
  #  uncomment them one after another (the most important basis functions are
  #  listed first).
  #
  #  Constructed for dimers: 1.0 A, 1.208 A, 1.5 A, 2.0 A, 3.0 A
  #
  ################################################################################
  #  "First tier" - improvements: -699.05 meV to -159.38 meV
       hydro 2 p 1.8
       hydro 3 d 7.6
       hydro 3 s 6.4
  #  "Second tier" - improvements: -49.91 meV to -5.39 meV
  #     hydro 4 f 11.6
  #     hydro 3 p 6.2
  #     hydro 3 d 5.6
  #     hydro 5 g 17.6
  #     hydro 1 s 0.75
  #  "Third tier" - improvements: -2.83 meV to -0.50 meV
  #     ionic 2 p auto
  #     hydro 4 f 10.8
  #     hydro 4 d 4.7
  #     hydro 2 s 6.8
  #  "Fourth tier" - improvements: -0.40 meV to -0.12 meV
  #     hydro 3 p 5
  #     hydro 3 s 3.3
  #     hydro 5 g 15.6
  #     hydro 4 f 17.6
  #     hydro 4 d 14
  # Further basis functions - -0.08 meV and below
  #     hydro 3 s 2.1
  #     hydro 4 d 11.6
  #     hydro 3 p 16
  #     hydro 2 s 17.2
  /afs/ictp.it/public/shared/smr2475/fhi-aims/species_defaults/light/01_H_default
  compute_forces .true.
  final_forces_cleaned .true.
  output dipole
  
  -----------------------------------------------------------------------
  Completed first pass over input file control.in .
  -----------------------------------------------------------------------
  
  
  -----------------------------------------------------------------------
  Parsing geometry.in (first pass over file, find array dimensions only).
  The contents of geometry.in will be repeated verbatim below
  unless switched off by setting 'verbatim_writeout .false.' .
  in the first line of geometry.in .
  -----------------------------------------------------------------------
  
  #
  # temporary structure-file for finite-difference calculation of forces
  # displacement   0.0020 of \# atom     1 direction     1
  #
  atom    0.00000000    0.00001836    0.19077151   O
  atom    0.82425584   -0.47387261    0.47423563   H
  atom   -0.82425584   -0.47587261    0.47423563   H
  atom   -0.00000000    0.95172688    0.47446636   H
  
  -----------------------------------------------------------------------
  Completed first pass over input file geometry.in .
  -----------------------------------------------------------------------
  

  Basic array size parameters:
  | Number of species                 :        2
  | Number of atoms                   :        4
  | Max. basis fn. angular momentum   :        2
  | Max. atomic/ionic basis occupied n:        2
  | Max. number of basis fn. types    :        2
  | Max. radial fns per species/type  :        3
  | Max. logarithmic grid size        :     1301
  | Max. radial integration grid size :       36
  | Max. angular integration grid size:      302
  | Max. angular grid division number :        8
  | Radial grid for Hartree potential :     1301
  | Number of spin channels           :        1

------------------------------------------------------------
          Reading file control.in.
------------------------------------------------------------
  XC: Using Perdew-Wang parametrisation of Ceperley-Alder LDA.
  Charged system requested: Charge =   0.100000E+01.
  Spin treatment: No spin polarisation.
  Maximum number of s.-c. iterations  :   100

  Reading configuration options for species H                   .
  | Found nuclear charge :   1.0000
  | Found atomic mass :    1.0079400000000001      amu
  | Found l_max for Hartree potential  :   4
  | Found cutoff potl. onset [A], width [A], scale factor :    3.50000    1.50000    1.00000
  | Threshold for basis-dependent cutoff potential is   0.100000E-03
  | Found data for basic radial integration grid :    24 points, outermost radius =    5.000 A
  | Found multiplier for basic radial grid :   1
  | Found angular grid specification: user-specified.
  | Specified grid contains     5 separate shells.
  | Check grid settings after all constraints further below.
  | Found free-atom valence shell :  1 s   1.000
  | No ionic wave fns used. Skipping ion_occ.
  | Found hydrogenic basis function :  2 s   2.100
  | Found hydrogenic basis function :  2 p   3.500
  Species H                   : Missing cutoff potential type.
  Defaulting to exp(1/x)/(1-x)^2 type cutoff potential.
  Species H : No 'logarithmic' tag. Using default grid for free atom:
  | Default logarithmic grid data [bohr] : 0.1000E-03 0.1000E+03 0.1012E+01
  Species H : On-site basis accuracy parameter (for Gram-Schmidt orthonormalisation) not specified.
  Using default value basis_acc =  0.1000000E-03.
  Species H                   : Using default innermost maximum threshold i_radial=  2 for radial functions.
  Species H                   : Default cutoff onset for free atom density etc. : 0.35000000E+01 AA.
  Species H                   : Basic radial grid will be enhanced according to radial_multiplier =   1, to contain    24 grid points.

  Reading configuration options for species O                   .
  | Found nuclear charge :   8.0000
  | Found atomic mass :    15.999400000000000      amu
  | Found l_max for Hartree potential  :   4
  | Found cutoff potl. onset [A], width [A], scale factor :    3.50000    1.50000    1.00000
  | Threshold for basis-dependent cutoff potential is   0.100000E-03
  | Found data for basic radial integration grid :    36 points, outermost radius =    5.000 A
  | Found multiplier for basic radial grid :   1
  | Found angular grid specification: user-specified.
  | Specified grid contains     5 separate shells.
  | Check grid settings after all constraints further below.
  | Found free-atom valence shell :  2 s   2.000
  | Found free-atom valence shell :  2 p   4.000
  | No ionic wave fns used. Skipping ion_occ.
  | No ionic wave fns used. Skipping ion_occ.
  | Found hydrogenic basis function :  2 p   1.800
  | Found hydrogenic basis function :  3 d   7.600
  | Found hydrogenic basis function :  3 s   6.400
  Species O                   : Missing cutoff potential type.
  Defaulting to exp(1/x)/(1-x)^2 type cutoff potential.
  Species O : No 'logarithmic' tag. Using default grid for free atom:
  | Default logarithmic grid data [bohr] : 0.1000E-03 0.1000E+03 0.1012E+01
  Species O : On-site basis accuracy parameter (for Gram-Schmidt orthonormalisation) not specified.
  Using default value basis_acc =  0.1000000E-03.
  Species O                   : Using default innermost maximum threshold i_radial=  2 for radial functions.
  Species O                   : Default cutoff onset for free atom density etc. : 0.35000000E+01 AA.
  Species O                   : Basic radial grid will be enhanced according to radial_multiplier =   1, to contain    36 grid points.
  Forces will be computed.
  Cleaning forces before final output.
  Dipole moment will be written out.

  Finished reading input file 'control.in'. Consistency checks are next.

  MPI_IN_PLACE appears to work with this MPI implementation.
  | Keeping use_mpi_in_place .true. (see manual).
  Target number of points in a grid batch is not set. Defaulting to  100
  Method for grid partitioning is not set. Defaulting to 'maxmin' partitioning.
  Batch size limit is not set. Defaulting to    200
  By default, will store active basis functions for each batch.
  If in need of memory, prune_basis_once .false. can be used to disable this option.
  communication_type for Hartree potential was not specified.
  Defaulting to calc_hartree .
 * Attention: 
 * You may want to set distributed_spline_storage to .true. in order to save memory.
 * This doesn't harm performance and is perfectly ok unless:
 * - you get error messages in postprocessing (about missing atoms in get_rho_multipole_spl)
 * - you need full spline storage in hirshfeld_analysis
  Defaulting to Pulay charge density mixer.
  Pulay mixer: Number of relevant iterations not set.
  Defaulting to    8 iterations.
  Pulay mixer: Number of initial linear mixing iterations not set.
  Defaulting to    0 iterations.
  Work space size for distributed Hartree potential not set.
  Defaulting to   0.200000E+03 MB.
  Mixing parameter for charge density mixing has not been set.
  Using default: charge_mix_param =     0.0500.
  The mixing parameter will be adjusted in iteration number     2 of the first full s.c.f. cycle only.
  Algorithm-dependent basis array size parameters:
  | n_max_pulay                         :        8
 * Notice: The s.c.f. convergence criterion sc_accuracy_rho was not provided.
 * We used to stop in this case, and ask the user to provide reasonable
 * scf convergence criteria. However, this led some users to employ criteria
 * that led to extremely long run times, e.g., for simple relaxation.
 * We now preset a default value for sc_accuracy_rho if it is not set.
 * You may still wish to check if this setting is too tight or too loose for your needs.
 * Based on n_atoms, FHI-aims chose sc_accuracy_rho =  0.100000E-05 .
  Presetting      1001 iterations before the initial mixing cycle
  is restarted anyway using the sc_init_iter criterion / keyword.
  Presetting a factor      1.000 between actual scf density residual
  and density convergence criterion sc_accuracy_rho below which sc_init_iter
  takes no effect.
 * No s.c.f. convergence criteria (sc_accuracy_*) were provided in control.in.
 * The run will proceed with a reasonable default guess, but please check whether.
 * the s.c.f. cycles seem to take too much or too little time.
  Geometry relaxation not requested: no relaxation will be performed.
  Force calculation: scf convergence accuracy of forces not set.
  Defaulting to 'sc_accuracy_forces not_checked'.
  Handling of forces: Unphysical translation and rotation will be removed from forces.
  No accuracy limit for integral partition fn. given. Defaulting to  0.1000E-14.
  No threshold value for u(r) in integrations given. Defaulting to  0.1000E-05.
  No occupation type (smearing scheme) given. Defaulting to Gaussian broadening, width =  0.1000E-01 eV.
  The width will be adjusted in iteration number     2 of the first full s.c.f. cycle only.
  S.C.F. convergence parameters will be adjusted in iteration number     2 of the first full s.c.f. cycle only.
  No accuracy for occupation numbers given. Defaulting to  0.1000E-12.
  No threshold value for occupation numbers given. Defaulting to  0.0000E+00.
  No accuracy for fermi level given. Defaulting to  0.1000E-19.
  Maximum # of iterations to find E_F not set. Defaulting to  200.
  Preferred method for the eigenvalue solver ('KS_method') not specified in 'control.in'.
  Defaulting to serial version, 'lapack_fast'.
  Will not use alltoall communication since running on < 1024 CPUs.
  Threshold for basis singularities not set.
  Default threshold for basis singularities:  0.1000E-04
  partition_type (choice of integration weights) for integrals was not specified.
  | Using a version of the partition function of Stratmann and coworkers ('stratmann_smoother').
  | At each grid point, the set of atoms used to build the partition table is smoothly restricted to
  | only those atoms whose free-atom density would be non-zero at that grid point.
  Partitioning for Hartree potential was not defined. Using partition_type for integrals.
  | Adjusted default value of keyword multip_moments_threshold to:       0.10000000E-11
  | This value may affect high angular momentum components of the Hartree potential in periodic systems.
  No q(lm)/r^(l+1) cutoff set for long-range Hartree potential.
  | Using default value of  0.100000E-09 .
  | Verify using the multipole_threshold keyword.
  Defaulting to new monopole extrapolation.
  Density update method: automatic selection selected.
------------------------------------------------------------


------------------------------------------------------------
          Reading geometry description geometry.in.
------------------------------------------------------------
 * Warning: Initial charge and total charge of the system are inconsistent.
 * Selected charge in control.in:     1.0000* Sum of initial charges in geometry.in:     0.0000
 * Warning! You did not set the 'relativistic' flag in input file 'control.in'.
 * Since you are not attempting to treat any elements beyond Ca(Z=20), FHI-aims
 * will default to 'relativistic none'.
 * You must ensure that this is really what you want!!
 * For example, DO NOT compute total-energy differences between results from
 * different settings of the 'relativistic' flag.
  Input structure read successfully.
  The structure contains        4 atoms,  and a total of         10.000 electrons.

  Input geometry:
  | No unit cell requested.
  | Atomic structure:
  |       Atom                x [A]            y [A]            z [A]
  |    1: Species O             0.00000000        0.00001836        0.19077151
  |    2: Species H             0.82425584       -0.47387261        0.47423563
  |    3: Species H            -0.82425584       -0.47587261        0.47423563
  |    4: Species H            -0.00000000        0.95172688        0.47446636
  |

  | The smallest distance between any two atoms is         0.99213016 AA.
  |
  | The first atom of this pair is atom number                      1 .
  | The second atom of this pair is atom number                     2 .

  Number of empty states per atom not set in control.in - providing a guess from actual geometry.
  | Total number of empty states used during s.c.f. cycle:        8
  If you use a very high smearing, use empty_states (per atom!) in control.in to increase this value.

  Structure-dependent array size parameters: 
  | Maximum number of distinct radial functions  :        9
  | Maximum number of basis functions            :       29
  | Number of Kohn-Sham states (occupied + empty):       13
------------------------------------------------------------

------------------------------------------------------------
          Preparing all fixed parts of the calculation.
------------------------------------------------------------
  Determining machine precision:
     2.2250738585072014E-308
  Setting up grids for atomic and cluster calculations.

  Creating wave function, potential, and density for free atoms.

  Species: H

  List of occupied orbitals and eigenvalues:
    n    l              occ      energy [Ha]    energy [eV]
    1    0           1.0000        -0.232375        -6.3233


  Species: O

  List of occupied orbitals and eigenvalues:
    n    l              occ      energy [Ha]    energy [eV]
    1    0           2.0000       -18.757744      -510.4242
    2    0           2.0000        -0.870917       -23.6989
    2    1           4.0000        -0.337950        -9.1961

  Creating fixed part of basis set: Ionic, confined, hydrogenic.

  H                    hydrogenic:

  List of hydrogenic basis orbitals: 
    n    l      effective z      eigenvalue [eV]  inner max. [A]     outer max. [A]     outer radius [A]   
    2    0         2.100000       -14.9728           0.193243           1.317208           4.583499
    2    1         3.500000       -41.6669           0.602369           0.602369           3.723403


  O                    hydrogenic:

  List of hydrogenic basis orbitals: 
    n    l      effective z      eigenvalue [eV]  inner max. [A]     outer max. [A]     outer radius [A]   
    2    1         1.800000       -10.9749           1.164242           1.164242           4.578029
    3    2         7.600000       -87.3180           0.624125           0.624125           3.251020
    3    0         6.400000       -61.9207           0.061167           1.081902           4.001998


  Adding cutoff potential to free-atom effective potential.
  Creating atomic-like basis functions for current effective potential.

  Species H                   :

  List of atomic basis orbitals and eigenvalues:
    n    l      energy [Ha]    energy [eV]    outer radius [A]
    1    0        -0.232375        -6.3233       4.527807


  Species O                   :

  List of atomic basis orbitals and eigenvalues:
    n    l      energy [Ha]    energy [eV]    outer radius [A]
    1    0       -18.757744      -510.4242       1.433179
    2    0        -0.870917       -23.6989       4.413171
    2    1        -0.337950        -9.1961       4.522403

  Assembling full basis from fixed parts.
  | Species H :   atomic orbital   1 s accepted.
  | Species H :    hydro orbital   2 s accepted.
  | Species H :    hydro orbital   2 p accepted.
  | Species O :   atomic orbital   1 s accepted.
  | Species O :    hydro orbital   3 s accepted.
  | Species O :   atomic orbital   2 s accepted.
  | Species O :   atomic orbital   2 p accepted.
  | Species O :    hydro orbital   2 p accepted.
  | Species O :    hydro orbital   3 d accepted.

  Basis size parameters after reduction:
  | Total number of radial functions:        9
  | Total number of basis functions :       29

  Per-task memory consumption for arrays in subroutine allocate_ext:
  |           2.249476MB.
  Testing on-site integration grid accuracy.
  |  Species  Function  <phi|h_atom|phi> (log., in eV)  <phi|h_atom|phi> (rad., in eV)
           1        1                 -6.3245358373                 -6.3232436907
           1        2                 14.1326137532                 14.1384481100
           1        3                 25.3627025200                 25.3628451197
           2        4               -510.4241781769               -510.4240769412
           2        5                 14.9072942218                 14.9072945276
           2        6                -21.2004736467                -21.2005650544
           2        7                 -9.1962086499                 -9.1963509828
           2        8                  8.1896755011                  8.1702200086
           2        9                 45.7920584945                 45.7920228528

  Preparing densities etc. for the partition functions (integrals / Hartree potential).

  Preparations completed.
  max(cpu_time)          :      0.049 s.
  Wall clock time (cpu1) :      0.049 s.
------------------------------------------------------------

------------------------------------------------------------
          Begin self-consistency loop: Initialization.

          Date     :  20190509, Time     :  114708.946
------------------------------------------------------------

  Initializing index lists of integration centers etc. from given atomic structure:
  | Number of centers in hartree potential         :         4
  | Number of centers in hartree multipole         :         4
  | Number of centers in electron density summation:         4
  | Number of centers in basis integrals           :         4
  | Number of centers in integrals                 :         4
  | Number of centers in hamiltonian               :         4
  Partitioning the integration grid into batches with maxmin method.
  | Maximal weight for a single point:     1.000
  | Minimal weight for a single point:     0.000
  | Number of batches:      256
  | Maximal batch size:      83
  | Minimal batch size:      78
  | Average batch size:      80.719
  | Standard deviation of batch sizes:       1.484
  Initializing partition tables, free-atom densities, potentials, etc. across the integration grid (initialize_grid_storage).
  | initialize_grid_storage: Actual outermost partition radius vs. multipole_radius_free
  | (-- VB: in principle, multipole_radius_free should be larger, hence this output)
  | Species        1: Confinement radius =              4.999999999999999 AA, multipole_radius_free =              5.054417573612229 AA.
  | Species        1: outer_partition_radius set to              5.054417573612229 AA .
  | Species        2: Confinement radius =              4.999999999999999 AA, multipole_radius_free =              5.048384829883283 AA.
  | Species        2: outer_partition_radius set to              5.048384829883283 AA .
  | Original list of interatomic distances with           4 x          4 entries is created.
  | Net number of integration points:    20664
  | of which are non-zero points    :    18384
  Renormalizing the initial density to the exact electron count on the 3D integration grid.
  | Initial density: Formal number of electrons (from input files) :      11.0000000000
  | Integrated number of electrons on 3D grid     :      10.9999409363
  | Charge integration error                      :      -0.0000590637
  | Normalization factor for density and gradient :       1.0000053695
  Obtaining max. number of non-zero basis functions in each batch (get_n_compute_maxes).
  | Maximal number of non-zero basis functions:       29 in task     0
  Selecting the method for density update.
  Loop over occupied states selected for charge density update.
  Allocating        0.003 MB for KS_eigenvector
  Integrating Hamiltonian matrix: batch-based integration.
  Time summed over all CPUs for integration: real work        0.030 s, elapsed        0.030 s
  Integrating overlap matrix.
  Time summed over all CPUs for integration: real work        0.014 s, elapsed        0.014 s

  Updating Kohn-Sham eigenvalues, eigenvectors, occupation numbers, and Fermi level.
  Solving generalized eigenproblem
  Updating Kohn-Sham eigenvalues and eigenfunctions.
  Transforming overlap matrix and checking for singularities.
  Overlap matrix is nonsingular:
  | Lowest eigenvalue:  0.147964E-01
  Solving real generalised eigenvalue problem by standard LAPACK (fast)

  Obtaining occupation numbers and chemical potential using ELSI.
  | Chemical potential (Fermi level):    -6.76715278eV
  Writing Kohn-Sham eigenvalues.

  State    Occupation    Eigenvalue [Ha]    Eigenvalue [eV]
      1       2.00000         -18.911725         -514.61423
      2       2.00000          -1.151201          -31.32579
      3       2.00000          -0.671419          -18.27024
      4       2.00000          -0.670991          -18.25858
      5       2.00000          -0.507657          -13.81404
      6       0.00000          -0.090390           -2.45965
      7       0.00000           0.002394            0.06514
      8       0.00000           0.002669            0.07263
      9       0.00000           0.199676            5.43345
     10       0.00000           0.264473            7.19668
     11       0.00000           0.264878            7.20769
     12       0.00000           0.467028           12.70847
     13       0.00000           0.669166           18.20893

  Highest occupied state (VBM) at    -13.81403767 eV
  | Occupation number:      2.00000000

  Lowest unoccupied state (CBM) at    -2.45964627 eV
  | Occupation number:      0.00000000

  Overall HOMO-LUMO gap:     11.35439139 eV.
  Calculating total energy contributions from superposition of free atom densities.

  Total energy components:
  | Sum of eigenvalues            :         -43.82598550 Ha       -1192.56574260 eV
  | XC energy correction          :          -8.86369464 Ha        -241.19340290 eV
  | XC potential correction       :          11.67142349 Ha         317.59559235 eV
  | Free-atom electrostatic energy:         -35.29500321 Ha        -960.42590337 eV
  | Hartree energy correction     :          -0.00000000 Ha          -0.00000000 eV
  | Entropy correction            :          -0.00000000 Ha          -0.00000000 eV
  | ---------------------------
  | Total energy                  :         -76.31325986 Ha       -2076.58945652 eV
  | Total energy, T -> 0          :         -76.31325986 Ha       -2076.58945652 eV  <-- do not rely on this value for anything but (periodic) metals
  | Electronic free energy        :         -76.31325986 Ha       -2076.58945652 eV

  Derived energy quantities:
  | Kinetic energy                :          75.66415706 Ha        2058.92647064 eV
  | Electrostatic energy          :        -143.11372228 Ha       -3894.32252426 eV
  | Energy correction for multipole
  | error in Hartree potential    :           0.00000000 Ha           0.00000000 eV
  | Sum of eigenvalues per atom                           :        -298.14143565 eV
  | Total energy (T->0) per atom                          :        -519.14736413 eV  <-- do not rely on this value for anything but (periodic) metals
  | Electronic free energy per atom                       :        -519.14736413 eV
  Initialize hartree_potential_storage
  Max. number of atoms included in rho_multipole:            4

  End scf initialization - timings             :  max(cpu_time)    wall_clock(cpu1)
  | Time for scf. initialization               :        0.087 s           0.087 s
  | Boundary condition initialization          :        0.000 s           0.000 s
  | Integration                                :        0.045 s           0.045 s
  | Solution of K.-S. eqns.                    :        0.001 s           0.000 s
  | Grid partitioning                          :        0.015 s           0.015 s
  | Preloading free-atom quantities on grid    :        0.001 s           0.000 s
  | Free-atom superposition energy             :        0.012 s           0.012 s
  | Total energy evaluation                    :        0.000 s           0.000 s

  Partial memory accounting:
  | Current value for overall tracked memory usage on task 0  :           0.017 MB
  | Peak value for overall tracked memory usage on task 0     :           0.075 MB after allocating wave
  | Largest tracked array allocation on task 0 so far         :           0.019 MB  when allocating H_times_psi
  Note:  These values currently only include a subset of arrays which are explicitly tracked.
  The "true" memory usage will be greater.
------------------------------------------------------------

------------------------------------------------------------
          Begin self-consistency iteration #    1

  Date     :  20190509, Time     :  114709.034
------------------------------------------------------------
  Evaluating new KS density.
  Integration grid: deviation in total charge (<rho> - N_e) =   8.881784E-15
  Pulay mixing of updated and previous charge densities.

  Evaluating partitioned Hartree potential by multipole expansion.
  | Analytical far-field extrapolation by fixed multipoles:
  | Hartree multipole sum: apparent total charge =   0.499210E-01
  Summing up the Hartree potential.
  Time summed over all CPUs for potential: real work        0.017 s, elapsed        0.017 s
  | RMS charge density error from multipole expansion :   0.486509E-03

  Integrating Hamiltonian matrix: batch-based integration.
  Time summed over all CPUs for integration: real work        0.028 s, elapsed        0.028 s

  Updating Kohn-Sham eigenvalues, eigenvectors, occupation numbers, and Fermi level.
  Solving generalized eigenproblem
  Updating Kohn-Sham eigenvalues and eigenfunctions.
  Solving real generalised eigenvalue problem by standard LAPACK (fast)

  Obtaining occupation numbers and chemical potential using ELSI.
  | Chemical potential (Fermi level):    -6.98482991eV
  Writing Kohn-Sham eigenvalues.

  State    Occupation    Eigenvalue [Ha]    Eigenvalue [eV]
      1       2.00000         -18.902163         -514.35403
      2       2.00000          -1.155343          -31.43849
      3       2.00000          -0.676849          -18.41800
      4       2.00000          -0.676422          -18.40638
      5       2.00000          -0.510294          -13.88580
      6       0.00000          -0.100692           -2.73997
      7       0.00000          -0.007242           -0.19706
      8       0.00000          -0.006961           -0.18941
      9       0.00000           0.192550            5.23954
     10       0.00000           0.254608            6.92823
     11       0.00000           0.255011            6.93920
     12       0.00000           0.456392           12.41907
     13       0.00000           0.660303           17.96775

  Highest occupied state (VBM) at    -13.88580031 eV
  | Occupation number:      2.00000000

  Lowest unoccupied state (CBM) at    -2.73996953 eV
  | Occupation number:      0.00000000

  Overall HOMO-LUMO gap:     11.14583078 eV.

  Total energy components:
  | Sum of eigenvalues            :         -43.84214224 Ha       -1193.00538983 eV
  | XC energy correction          :          -8.86684922 Ha        -241.27924336 eV
  | XC potential correction       :          11.67580064 Ha         317.71470062 eV
  | Free-atom electrostatic energy:         -35.29500321 Ha        -960.42590337 eV
  | Hartree energy correction     :           0.03273848 Ha           0.89085944 eV
  | Entropy correction            :          -0.00000000 Ha          -0.00000000 eV
  | ---------------------------
  | Total energy                  :         -76.29545555 Ha       -2076.10497651 eV
  | Total energy, T -> 0          :         -76.29545555 Ha       -2076.10497651 eV  <-- do not rely on this value for anything but (periodic) metals
  | Electronic free energy        :         -76.29545555 Ha       -2076.10497651 eV

  Derived energy quantities:
  | Kinetic energy                :          75.75333522 Ha        2061.35313177 eV
  | Electrostatic energy          :        -143.18194155 Ha       -3896.17886492 eV
  | Energy correction for multipole
  | error in Hartree potential    :           0.00050767 Ha           0.01381433 eV
  | Sum of eigenvalues per atom                           :        -298.25134746 eV
  | Total energy (T->0) per atom                          :        -519.02624413 eV  <-- do not rely on this value for anything but (periodic) metals
  | Electronic free energy per atom                       :        -519.02624413 eV

  Self-consistency convergence accuracy:
  | Change of charge density      :  0.2574E+00
  | Change of sum of eigenvalues  : -0.4396E+00 eV
  | Change of total energy        :  0.4845E+00 eV

  End self-consistency iteration #     1       :  max(cpu_time)    wall_clock(cpu1)
  | Time for this iteration                    :        0.060 s           0.059 s
  | Charge density update                      :        0.013 s           0.012 s
  | Density mixing                             :        0.000 s           0.001 s
  | Hartree multipole update                   :        0.002 s           0.001 s
  | Hartree multipole summation                :        0.017 s           0.017 s
  | Integration                                :        0.028 s           0.028 s
  | Solution of K.-S. eqns.                    :        0.000 s           0.000 s
  | Total energy evaluation                    :        0.000 s           0.000 s

  Partial memory accounting:
  | Current value for overall tracked memory usage on task 0  :           0.017 MB
  | Peak value for overall tracked memory usage on task 0     :           0.082 MB after allocating wave
  | Largest tracked array allocation on task 0 so far         :           0.019 MB  when allocating H_times_psi
  Note:  These values currently only include a subset of arrays which are explicitly tracked.
  The "true" memory usage will be greater.
------------------------------------------------------------

------------------------------------------------------------
          Begin self-consistency iteration #    2

  Date     :  20190509, Time     :  114709.094
------------------------------------------------------------
  Evaluating new KS density.
  Integration grid: deviation in total charge (<rho> - N_e) =  -1.065814E-14
  Pulay mixing of updated and previous charge densities.

  Evaluating partitioned Hartree potential by multipole expansion.
  | Analytical far-field extrapolation by fixed multipoles:
  | Hartree multipole sum: apparent total charge =   0.436548E+00
  Summing up the Hartree potential.
  Time summed over all CPUs for potential: real work        0.017 s, elapsed        0.017 s
  | RMS charge density error from multipole expansion :   0.419457E-02

  Integrating Hamiltonian matrix: batch-based integration.
  Time summed over all CPUs for integration: real work        0.028 s, elapsed        0.028 s

  Updating Kohn-Sham eigenvalues, eigenvectors, occupation numbers, and Fermi level.
  Solving generalized eigenproblem
  Updating Kohn-Sham eigenvalues and eigenfunctions.
  Solving real generalised eigenvalue problem by standard LAPACK (fast)

  Obtaining occupation numbers and chemical potential using ELSI.
  | Chemical potential (Fermi level):    -8.70439337eV
  Highest occupied state (VBM) at    -14.67360377 eV
  | Occupation number:      2.00000000

  Lowest unoccupied state (CBM) at    -4.87846989 eV
  | Occupation number:      0.00000000

  Overall HOMO-LUMO gap:      9.79513389 eV.

  Checking to see if s.c.f. parameters should be adjusted.
  The system likely has a gap. Increased the default Pulay mixing parameter (charge_mix_param). Value:   0.200000 .
  Kept the default occupation width. Value:   0.010000 eV.

  Total energy components:
  | Sum of eigenvalues            :         -44.06629803 Ha       -1199.10497929 eV
  | XC energy correction          :          -8.89020143 Ha        -241.91468949 eV
  | XC potential correction       :          11.70819919 Ha         318.59630990 eV
  | Free-atom electrostatic energy:         -35.29500321 Ha        -960.42590337 eV
  | Hartree energy correction     :           0.33490609 Ha           9.11325852 eV
  | Entropy correction            :          -0.00000000 Ha          -0.00000000 eV
  | ---------------------------
  | Total energy                  :         -76.20839740 Ha       -2073.73600374 eV
  | Total energy, T -> 0          :         -76.20839740 Ha       -2073.73600374 eV  <-- do not rely on this value for anything but (periodic) metals
  | Electronic free energy        :         -76.20839740 Ha       -2073.73600374 eV

  Derived energy quantities:
  | Kinetic energy                :          76.28645557 Ha        2075.86007477 eV
  | Electrostatic energy          :        -143.60465154 Ha       -3907.68138901 eV
  | Energy correction for multipole
  | error in Hartree potential    :           0.00418916 Ha           0.11399290 eV
  | Sum of eigenvalues per atom                           :        -299.77624482 eV
  | Total energy (T->0) per atom                          :        -518.43400093 eV  <-- do not rely on this value for anything but (periodic) metals
  | Electronic free energy per atom                       :        -518.43400093 eV

  Self-consistency convergence accuracy:
  | Change of charge density      :  0.2325E+00
  | Change of sum of eigenvalues  : -0.6100E+01 eV
  | Change of total energy        :  0.2369E+01 eV

  End self-consistency iteration #     2       :  max(cpu_time)    wall_clock(cpu1)
  | Time for this iteration                    :        0.059 s           0.058 s
  | Charge density update                      :        0.012 s           0.011 s
  | Density mixing                             :        0.000 s           0.000 s
  | Hartree multipole update                   :        0.001 s           0.002 s
  | Hartree multipole summation                :        0.017 s           0.017 s
  | Integration                                :        0.028 s           0.028 s
  | Solution of K.-S. eqns.                    :        0.000 s           0.000 s
  | Total energy evaluation                    :        0.000 s           0.000 s

  Partial memory accounting:
  | Current value for overall tracked memory usage on task 0  :           0.018 MB
  | Peak value for overall tracked memory usage on task 0     :           0.083 MB after allocating wave
  | Largest tracked array allocation on task 0 so far         :           0.019 MB  when allocating H_times_psi
  Note:  These values currently only include a subset of arrays which are explicitly tracked.
  The "true" memory usage will be greater.
------------------------------------------------------------

------------------------------------------------------------
          Begin self-consistency iteration #    3

  Date     :  20190509, Time     :  114709.152
------------------------------------------------------------
  Evaluating new KS density.
  Integration grid: deviation in total charge (<rho> - N_e) =  -8.881784E-15
  Pulay mixing of updated and previous charge densities.

  Evaluating partitioned Hartree potential by multipole expansion.
  | Analytical far-field extrapolation by fixed multipoles:
  | Hartree multipole sum: apparent total charge =   0.853495E+00
  Summing up the Hartree potential.
  Time summed over all CPUs for potential: real work        0.017 s, elapsed        0.017 s
  | RMS charge density error from multipole expansion :   0.783325E-02

  Integrating Hamiltonian matrix: batch-based integration.
  Time summed over all CPUs for integration: real work        0.028 s, elapsed        0.028 s

  Updating Kohn-Sham eigenvalues, eigenvectors, occupation numbers, and Fermi level.
  Solving generalized eigenproblem
  Updating Kohn-Sham eigenvalues and eigenfunctions.
  Solving real generalised eigenvalue problem by standard LAPACK (fast)

  Obtaining occupation numbers and chemical potential using ELSI.
  | Chemical potential (Fermi level):   -11.61337475eV
  Highest occupied state (VBM) at    -18.15979451 eV
  | Occupation number:      2.00000000

  Lowest unoccupied state (CBM) at    -7.59165992 eV
  | Occupation number:      0.00000000

  Overall HOMO-LUMO gap:     10.56813460 eV.

  Total energy components:
  | Sum of eigenvalues            :         -45.45207506 Ha       -1236.81389084 eV
  | XC energy correction          :          -8.79570603 Ha        -239.34333872 eV
  | XC potential correction       :          11.58480628 Ha         315.23861806 eV
  | Free-atom electrostatic energy:         -35.29500321 Ha        -960.42590337 eV
  | Hartree energy correction     :           1.78176171 Ha          48.48420308 eV
  | Entropy correction            :          -0.00000000 Ha          -0.00000000 eV
  | ---------------------------
  | Total energy                  :         -76.17621631 Ha       -2072.86031180 eV
  | Total energy, T -> 0          :         -76.17621631 Ha       -2072.86031180 eV  <-- do not rely on this value for anything but (periodic) metals
  | Electronic free energy        :         -76.17621631 Ha       -2072.86031180 eV

  Derived energy quantities:
  | Kinetic energy                :          75.82045195 Ha        2063.17947091 eV
  | Electrostatic energy          :        -143.20096223 Ha       -3896.69644399 eV
  | Energy correction for multipole
  | error in Hartree potential    :           0.00575119 Ha           0.15649778 eV
  | Sum of eigenvalues per atom                           :        -309.20347271 eV
  | Total energy (T->0) per atom                          :        -518.21507795 eV  <-- do not rely on this value for anything but (periodic) metals
  | Electronic free energy per atom                       :        -518.21507795 eV

  Self-consistency convergence accuracy:
  | Change of charge density      :  0.1082E+00
  | Change of sum of eigenvalues  : -0.3771E+02 eV
  | Change of total energy        :  0.8757E+00 eV

  End self-consistency iteration #     3       :  max(cpu_time)    wall_clock(cpu1)
  | Time for this iteration                    :        0.059 s           0.060 s
  | Charge density update                      :        0.011 s           0.012 s
  | Density mixing                             :        0.000 s           0.000 s
  | Hartree multipole update                   :        0.001 s           0.002 s
  | Hartree multipole summation                :        0.017 s           0.017 s
  | Integration                                :        0.029 s           0.028 s
  | Solution of K.-S. eqns.                    :        0.000 s           0.001 s
  | Total energy evaluation                    :        0.000 s           0.000 s

  Partial memory accounting:
  | Current value for overall tracked memory usage on task 0  :           0.018 MB
  | Peak value for overall tracked memory usage on task 0     :           0.083 MB after allocating wave
  | Largest tracked array allocation on task 0 so far         :           0.019 MB  when allocating H_times_psi
  Note:  These values currently only include a subset of arrays which are explicitly tracked.
  The "true" memory usage will be greater.
------------------------------------------------------------

------------------------------------------------------------
          Begin self-consistency iteration #    4

  Date     :  20190509, Time     :  114709.212
------------------------------------------------------------
  Evaluating new KS density.
  Integration grid: deviation in total charge (<rho> - N_e) =  -1.953993E-14
  Pulay mixing of updated and previous charge densities.

  Evaluating partitioned Hartree potential by multipole expansion.
  | Analytical far-field extrapolation by fixed multipoles:
  | Hartree multipole sum: apparent total charge =   0.100712E+01
  Summing up the Hartree potential.
  Time summed over all CPUs for potential: real work        0.017 s, elapsed        0.017 s
  | RMS charge density error from multipole expansion :   0.926000E-02

  Integrating Hamiltonian matrix: batch-based integration.
  Time summed over all CPUs for integration: real work        0.028 s, elapsed        0.028 s

  Updating Kohn-Sham eigenvalues, eigenvectors, occupation numbers, and Fermi level.
  Solving generalized eigenproblem
  Updating Kohn-Sham eigenvalues and eigenfunctions.
  Solving real generalised eigenvalue problem by standard LAPACK (fast)

  Obtaining occupation numbers and chemical potential using ELSI.
  | Chemical potential (Fermi level):   -12.33114405eV
  Highest occupied state (VBM) at    -18.92954466 eV
  | Occupation number:      2.00000000

  Lowest unoccupied state (CBM) at    -8.35574482 eV
  | Occupation number:      0.00000000

  Overall HOMO-LUMO gap:     10.57379984 eV.

  Total energy components:
  | Sum of eigenvalues            :         -45.73962406 Ha       -1244.63849708 eV
  | XC energy correction          :          -8.79182541 Ha        -239.23774181 eV
  | XC potential correction       :          11.58015187 Ha         315.11196520 eV
  | Free-atom electrostatic energy:         -35.29500321 Ha        -960.42590337 eV
  | Hartree energy correction     :           2.07241849 Ha          56.39337639 eV
  | Entropy correction            :          -0.00000000 Ha          -0.00000000 eV
  | ---------------------------
  | Total energy                  :         -76.17388232 Ha       -2072.79680067 eV
  | Total energy, T -> 0          :         -76.17388232 Ha       -2072.79680067 eV  <-- do not rely on this value for anything but (periodic) metals
  | Electronic free energy        :         -76.17388232 Ha       -2072.79680067 eV

  Derived energy quantities:
  | Kinetic energy                :          75.80225130 Ha        2062.68420621 eV
  | Electrostatic energy          :        -143.18430821 Ha       -3896.24326508 eV
  | Energy correction for multipole
  | error in Hartree potential    :           0.00666709 Ha           0.18142069 eV
  | Sum of eigenvalues per atom                           :        -311.15962427 eV
  | Total energy (T->0) per atom                          :        -518.19920017 eV  <-- do not rely on this value for anything but (periodic) metals
  | Electronic free energy per atom                       :        -518.19920017 eV

  Self-consistency convergence accuracy:
  | Change of charge density      :  0.4484E-01
  | Change of sum of eigenvalues  : -0.7825E+01 eV
  | Change of total energy        :  0.6351E-01 eV

  End self-consistency iteration #     4       :  max(cpu_time)    wall_clock(cpu1)
  | Time for this iteration                    :        0.058 s           0.058 s
  | Charge density update                      :        0.011 s           0.011 s
  | Density mixing                             :        0.000 s           0.000 s
  | Hartree multipole update                   :        0.001 s           0.002 s
  | Hartree multipole summation                :        0.017 s           0.017 s
  | Integration                                :        0.028 s           0.028 s
  | Solution of K.-S. eqns.                    :        0.000 s           0.000 s
  | Total energy evaluation                    :        0.000 s           0.000 s

  Partial memory accounting:
  | Current value for overall tracked memory usage on task 0  :           0.019 MB
  | Peak value for overall tracked memory usage on task 0     :           0.083 MB after allocating wave
  | Largest tracked array allocation on task 0 so far         :           0.019 MB  when allocating H_times_psi
  Note:  These values currently only include a subset of arrays which are explicitly tracked.
  The "true" memory usage will be greater.
------------------------------------------------------------

------------------------------------------------------------
          Begin self-consistency iteration #    5

  Date     :  20190509, Time     :  114709.270
------------------------------------------------------------
  Evaluating new KS density.
  Integration grid: deviation in total charge (<rho> - N_e) =   3.552714E-15
  Pulay mixing of updated and previous charge densities.

  Evaluating partitioned Hartree potential by multipole expansion.
  | Analytical far-field extrapolation by fixed multipoles:
  | Hartree multipole sum: apparent total charge =   0.101050E+01
  Summing up the Hartree potential.
  Time summed over all CPUs for potential: real work        0.017 s, elapsed        0.017 s
  | RMS charge density error from multipole expansion :   0.935829E-02

  Integrating Hamiltonian matrix: batch-based integration.
  Time summed over all CPUs for integration: real work        0.028 s, elapsed        0.028 s

  Updating Kohn-Sham eigenvalues, eigenvectors, occupation numbers, and Fermi level.
  Solving generalized eigenproblem
  Updating Kohn-Sham eigenvalues and eigenfunctions.
  Solving real generalised eigenvalue problem by standard LAPACK (fast)

  Obtaining occupation numbers and chemical potential using ELSI.
  | Chemical potential (Fermi level):   -12.17010185eV
  Highest occupied state (VBM) at    -18.71146118 eV
  | Occupation number:      2.00000000

  Lowest unoccupied state (CBM) at    -8.23468697 eV
  | Occupation number:      0.00000000

  Overall HOMO-LUMO gap:     10.47677421 eV.

  Total energy components:
  | Sum of eigenvalues            :         -45.64521451 Ha       -1242.06948271 eV
  | XC energy correction          :          -8.80540617 Ha        -239.60729295 eV
  | XC potential correction       :          11.59804388 Ha         315.59883143 eV
  | Free-atom electrostatic energy:         -35.29500321 Ha        -960.42590337 eV
  | Hartree energy correction     :           1.97379785 Ha          53.70977211 eV
  | Entropy correction            :          -0.00000000 Ha          -0.00000000 eV
  | ---------------------------
  | Total energy                  :         -76.17378217 Ha       -2072.79407550 eV
  | Total energy, T -> 0          :         -76.17378217 Ha       -2072.79407550 eV  <-- do not rely on this value for anything but (periodic) metals
  | Electronic free energy        :         -76.17378217 Ha       -2072.79407550 eV

  Derived energy quantities:
  | Kinetic energy                :          75.84995237 Ha        2063.98221830 eV
  | Electrostatic energy          :        -143.21832837 Ha       -3897.16900085 eV
  | Energy correction for multipole
  | error in Hartree potential    :           0.00646481 Ha           0.17591652 eV
  | Sum of eigenvalues per atom                           :        -310.51737068 eV
  | Total energy (T->0) per atom                          :        -518.19851887 eV  <-- do not rely on this value for anything but (periodic) metals
  | Electronic free energy per atom                       :        -518.19851887 eV

  Self-consistency convergence accuracy:
  | Change of charge density      :  0.1072E-01
  | Change of sum of eigenvalues  :  0.2569E+01 eV
  | Change of total energy        :  0.2725E-02 eV

  End self-consistency iteration #     5       :  max(cpu_time)    wall_clock(cpu1)
  | Time for this iteration                    :        0.059 s           0.060 s
  | Charge density update                      :        0.012 s           0.012 s
  | Density mixing                             :        0.001 s           0.001 s
  | Hartree multipole update                   :        0.002 s           0.001 s
  | Hartree multipole summation                :        0.017 s           0.017 s
  | Integration                                :        0.028 s           0.028 s
  | Solution of K.-S. eqns.                    :        0.000 s           0.001 s
  | Total energy evaluation                    :        0.000 s           0.000 s

  Partial memory accounting:
  | Current value for overall tracked memory usage on task 0  :           0.019 MB
  | Peak value for overall tracked memory usage on task 0     :           0.083 MB after allocating wave
  | Largest tracked array allocation on task 0 so far         :           0.019 MB  when allocating H_times_psi
  Note:  These values currently only include a subset of arrays which are explicitly tracked.
  The "true" memory usage will be greater.
------------------------------------------------------------

------------------------------------------------------------
          Begin self-consistency iteration #    6

  Date     :  20190509, Time     :  114709.330
------------------------------------------------------------
  Evaluating new KS density.
  Integration grid: deviation in total charge (<rho> - N_e) =   1.243450E-14
  Pulay mixing of updated and previous charge densities.

  Evaluating partitioned Hartree potential by multipole expansion.
  | Analytical far-field extrapolation by fixed multipoles:
  | Hartree multipole sum: apparent total charge =   0.100143E+01
  Summing up the Hartree potential.
  Time summed over all CPUs for potential: real work        0.017 s, elapsed        0.017 s
  | RMS charge density error from multipole expansion :   0.926496E-02

  Integrating Hamiltonian matrix: batch-based integration.
  Time summed over all CPUs for integration: real work        0.032 s, elapsed        0.032 s

  Updating Kohn-Sham eigenvalues, eigenvectors, occupation numbers, and Fermi level.
  Solving generalized eigenproblem
  Updating Kohn-Sham eigenvalues and eigenfunctions.
  Solving real generalised eigenvalue problem by standard LAPACK (fast)

  Obtaining occupation numbers and chemical potential using ELSI.
  | Chemical potential (Fermi level):   -12.19966604eV
  Highest occupied state (VBM) at    -18.76157600 eV
  | Occupation number:      2.00000000

  Lowest unoccupied state (CBM) at    -8.23502526 eV
  | Occupation number:      0.00000000

  Overall HOMO-LUMO gap:     10.52655074 eV.

  Total energy components:
  | Sum of eigenvalues            :         -45.67065080 Ha       -1242.76163931 eV
  | XC energy correction          :          -8.80021240 Ha        -239.46596323 eV
  | XC potential correction       :          11.59116141 Ha         315.41154992 eV
  | Free-atom electrostatic energy:         -35.29500321 Ha        -960.42590337 eV
  | Hartree energy correction     :           2.00094618 Ha          54.44851580 eV
  | Entropy correction            :          -0.00000000 Ha          -0.00000000 eV
  | ---------------------------
  | Total energy                  :         -76.17375883 Ha       -2072.79344020 eV
  | Total energy, T -> 0          :         -76.17375883 Ha       -2072.79344020 eV  <-- do not rely on this value for anything but (periodic) metals
  | Electronic free energy        :         -76.17375883 Ha       -2072.79344020 eV

  Derived energy quantities:
  | Kinetic energy                :          75.81950318 Ha        2063.15365356 eV
  | Electrostatic energy          :        -143.19304960 Ha       -3896.48113052 eV
  | Energy correction for multipole
  | error in Hartree potential    :           0.00635904 Ha           0.17303817 eV
  | Sum of eigenvalues per atom                           :        -310.69040983 eV
  | Total energy (T->0) per atom                          :        -518.19836005 eV  <-- do not rely on this value for anything but (periodic) metals
  | Electronic free energy per atom                       :        -518.19836005 eV

  Self-consistency convergence accuracy:
  | Change of charge density      :  0.7275E-02
  | Change of sum of eigenvalues  : -0.6922E+00 eV
  | Change of total energy        :  0.6353E-03 eV

  End self-consistency iteration #     6       :  max(cpu_time)    wall_clock(cpu1)
  | Time for this iteration                    :        0.062 s           0.062 s
  | Charge density update                      :        0.011 s           0.011 s
  | Density mixing                             :        0.001 s           0.001 s
  | Hartree multipole update                   :        0.001 s           0.001 s
  | Hartree multipole summation                :        0.017 s           0.017 s
  | Integration                                :        0.032 s           0.032 s
  | Solution of K.-S. eqns.                    :        0.000 s           0.000 s
  | Total energy evaluation                    :        0.000 s           0.000 s

  Partial memory accounting:
  | Current value for overall tracked memory usage on task 0  :           0.019 MB
  | Peak value for overall tracked memory usage on task 0     :           0.084 MB after allocating wave
  | Largest tracked array allocation on task 0 so far         :           0.019 MB  when allocating H_times_psi
  Note:  These values currently only include a subset of arrays which are explicitly tracked.
  The "true" memory usage will be greater.
------------------------------------------------------------

------------------------------------------------------------
          Begin self-consistency iteration #    7

  Date     :  20190509, Time     :  114709.392
------------------------------------------------------------
  Evaluating new KS density.
  Integration grid: deviation in total charge (<rho> - N_e) =  -3.019807E-14
  Pulay mixing of updated and previous charge densities.

  Evaluating partitioned Hartree potential by multipole expansion.
  | Analytical far-field extrapolation by fixed multipoles:
  | Hartree multipole sum: apparent total charge =   0.999107E+00
  Summing up the Hartree potential.
  Time summed over all CPUs for potential: real work        0.017 s, elapsed        0.017 s
  | RMS charge density error from multipole expansion :   0.925881E-02

  Integrating Hamiltonian matrix: batch-based integration.
  Time summed over all CPUs for integration: real work        0.028 s, elapsed        0.028 s

  Updating Kohn-Sham eigenvalues, eigenvectors, occupation numbers, and Fermi level.
  Solving generalized eigenproblem
  Updating Kohn-Sham eigenvalues and eigenfunctions.
  Solving real generalised eigenvalue problem by standard LAPACK (fast)

  Obtaining occupation numbers and chemical potential using ELSI.
  | Chemical potential (Fermi level):   -12.14743929eV
  Highest occupied state (VBM) at    -18.68239482 eV
  | Occupation number:      2.00000000

  Lowest unoccupied state (CBM) at    -8.19104910 eV
  | Occupation number:      0.00000000

  Overall HOMO-LUMO gap:     10.49134572 eV.

  Total energy components:
  | Sum of eigenvalues            :         -45.64025693 Ha       -1241.93458005 eV
  | XC energy correction          :          -8.80374941 Ha        -239.56221023 eV
  | XC potential correction       :          11.59580890 Ha         315.53801444 eV
  | Free-atom electrostatic energy:         -35.29500321 Ha        -960.42590337 eV
  | Hartree energy correction     :           1.96945644 Ha          53.59163633 eV
  | Entropy correction            :          -0.00000000 Ha          -0.00000000 eV
  | ---------------------------
  | Total energy                  :         -76.17374422 Ha       -2072.79304289 eV
  | Total energy, T -> 0          :         -76.17374422 Ha       -2072.79304289 eV  <-- do not rely on this value for anything but (periodic) metals
  | Electronic free energy        :         -76.17374422 Ha       -2072.79304289 eV

  Derived energy quantities:
  | Kinetic energy                :          75.82919282 Ha        2063.41732214 eV
  | Electrostatic energy          :        -143.19918763 Ha       -3896.64815480 eV
  | Energy correction for multipole
  | error in Hartree potential    :           0.00624891 Ha           0.17004163 eV
  | Sum of eigenvalues per atom                           :        -310.48364501 eV
  | Total energy (T->0) per atom                          :        -518.19826072 eV  <-- do not rely on this value for anything but (periodic) metals
  | Electronic free energy per atom                       :        -518.19826072 eV

  Self-consistency convergence accuracy:
  | Change of charge density      :  0.3740E-02
  | Change of sum of eigenvalues  :  0.8271E+00 eV
  | Change of total energy        :  0.3973E-03 eV

  End self-consistency iteration #     7       :  max(cpu_time)    wall_clock(cpu1)
  | Time for this iteration                    :        0.059 s           0.059 s
  | Charge density update                      :        0.011 s           0.012 s
  | Density mixing                             :        0.001 s           0.000 s
  | Hartree multipole update                   :        0.001 s           0.002 s
  | Hartree multipole summation                :        0.017 s           0.017 s
  | Integration                                :        0.028 s           0.028 s
  | Solution of K.-S. eqns.                    :        0.000 s           0.000 s
  | Total energy evaluation                    :        0.000 s           0.000 s

  Partial memory accounting:
  | Current value for overall tracked memory usage on task 0  :           0.019 MB
  | Peak value for overall tracked memory usage on task 0     :           0.084 MB after allocating wave
  | Largest tracked array allocation on task 0 so far         :           0.019 MB  when allocating H_times_psi
  Note:  These values currently only include a subset of arrays which are explicitly tracked.
  The "true" memory usage will be greater.
------------------------------------------------------------

------------------------------------------------------------
          Begin self-consistency iteration #    8

  Date     :  20190509, Time     :  114709.451
------------------------------------------------------------
  Evaluating new KS density.
  Integration grid: deviation in total charge (<rho> - N_e) =  -5.329071E-15
  Pulay mixing of updated and previous charge densities.

  Evaluating partitioned Hartree potential by multipole expansion.
  | Analytical far-field extrapolation by fixed multipoles:
  | Hartree multipole sum: apparent total charge =   0.999325E+00
  Summing up the Hartree potential.
  Time summed over all CPUs for potential: real work        0.017 s, elapsed        0.017 s
  | RMS charge density error from multipole expansion :   0.926197E-02

  Integrating Hamiltonian matrix: batch-based integration.
  Time summed over all CPUs for integration: real work        0.030 s, elapsed        0.030 s

  Updating Kohn-Sham eigenvalues, eigenvectors, occupation numbers, and Fermi level.
  Solving generalized eigenproblem
  Updating Kohn-Sham eigenvalues and eigenfunctions.
  Solving real generalised eigenvalue problem by standard LAPACK (fast)

  Obtaining occupation numbers and chemical potential using ELSI.
  | Chemical potential (Fermi level):   -12.14339745eV
  Highest occupied state (VBM) at    -18.67668531 eV
  | Occupation number:      2.00000000

  Lowest unoccupied state (CBM) at    -8.18807374 eV
  | Occupation number:      0.00000000

  Overall HOMO-LUMO gap:     10.48861156 eV.

  Total energy components:
  | Sum of eigenvalues            :         -45.63814595 Ha       -1241.87713725 eV
  | XC energy correction          :          -8.80408650 Ha        -239.57138299 eV
  | XC potential correction       :          11.59625256 Ha         315.55008704 eV
  | Free-atom electrostatic energy:         -35.29500321 Ha        -960.42590337 eV
  | Hartree energy correction     :           1.96723907 Ha          53.53129873 eV
  | Entropy correction            :          -0.00000000 Ha          -0.00000000 eV
  | ---------------------------
  | Total energy                  :         -76.17374404 Ha       -2072.79303785 eV
  | Total energy, T -> 0          :         -76.17374404 Ha       -2072.79303785 eV  <-- do not rely on this value for anything but (periodic) metals
  | Electronic free energy        :         -76.17374404 Ha       -2072.79303785 eV

  Derived energy quantities:
  | Kinetic energy                :          75.82965247 Ha        2063.42982991 eV
  | Electrostatic energy          :        -143.19931001 Ha       -3896.65148478 eV
  | Energy correction for multipole
  | error in Hartree potential    :           0.00623446 Ha           0.16964835 eV
  | Sum of eigenvalues per atom                           :        -310.46928431 eV
  | Total energy (T->0) per atom                          :        -518.19825946 eV  <-- do not rely on this value for anything but (periodic) metals
  | Electronic free energy per atom                       :        -518.19825946 eV

  Self-consistency convergence accuracy:
  | Change of charge density      :  0.5256E-03
  | Change of sum of eigenvalues  :  0.5744E-01 eV
  | Change of total energy        :  0.5042E-05 eV

  End self-consistency iteration #     8       :  max(cpu_time)    wall_clock(cpu1)
  | Time for this iteration                    :        0.061 s           0.062 s
  | Charge density update                      :        0.011 s           0.012 s
  | Density mixing                             :        0.001 s           0.000 s
  | Hartree multipole update                   :        0.001 s           0.002 s
  | Hartree multipole summation                :        0.017 s           0.017 s
  | Integration                                :        0.030 s           0.030 s
  | Solution of K.-S. eqns.                    :        0.000 s           0.000 s
  | Total energy evaluation                    :        0.000 s           0.001 s

  Partial memory accounting:
  | Current value for overall tracked memory usage on task 0  :           0.020 MB
  | Peak value for overall tracked memory usage on task 0     :           0.084 MB after allocating wave
  | Largest tracked array allocation on task 0 so far         :           0.019 MB  when allocating H_times_psi
  Note:  These values currently only include a subset of arrays which are explicitly tracked.
  The "true" memory usage will be greater.
------------------------------------------------------------

------------------------------------------------------------
          Begin self-consistency iteration #    9

  Date     :  20190509, Time     :  114709.513
------------------------------------------------------------
  Evaluating new KS density.
  Integration grid: deviation in total charge (<rho> - N_e) =  -1.065814E-14
  Pulay mixing of updated and previous charge densities.

  Evaluating partitioned Hartree potential by multipole expansion.
  | Analytical far-field extrapolation by fixed multipoles:
  | Hartree multipole sum: apparent total charge =   0.999549E+00
  Summing up the Hartree potential.
  Time summed over all CPUs for potential: real work        0.018 s, elapsed        0.018 s
  | RMS charge density error from multipole expansion :   0.926223E-02

  Integrating Hamiltonian matrix: batch-based integration.
  Time summed over all CPUs for integration: real work        0.028 s, elapsed        0.028 s

  Updating Kohn-Sham eigenvalues, eigenvectors, occupation numbers, and Fermi level.
  Solving generalized eigenproblem
  Updating Kohn-Sham eigenvalues and eigenfunctions.
  Solving real generalised eigenvalue problem by standard LAPACK (fast)

  Obtaining occupation numbers and chemical potential using ELSI.
  | Chemical potential (Fermi level):   -12.14250008eV
  Highest occupied state (VBM) at    -18.67563179 eV
  | Occupation number:      2.00000000

  Lowest unoccupied state (CBM) at    -8.18746631 eV
  | Occupation number:      0.00000000

  Overall HOMO-LUMO gap:     10.48816548 eV.

  Total energy components:
  | Sum of eigenvalues            :         -45.63807547 Ha       -1241.87521945 eV
  | XC energy correction          :          -8.80413538 Ha        -239.57271288 eV
  | XC potential correction       :          11.59631645 Ha         315.55182569 eV
  | Free-atom electrostatic energy:         -35.29500321 Ha        -960.42590337 eV
  | Hartree energy correction     :           1.96715389 Ha          53.52898084 eV
  | Entropy correction            :          -0.00000000 Ha          -0.00000000 eV
  | ---------------------------
  | Total energy                  :         -76.17374372 Ha       -2072.79302917 eV
  | Total energy, T -> 0          :         -76.17374372 Ha       -2072.79302917 eV  <-- do not rely on this value for anything but (periodic) metals
  | Electronic free energy        :         -76.17374372 Ha       -2072.79302917 eV

  Derived energy quantities:
  | Kinetic energy                :          75.82883476 Ha        2063.40757891 eV
  | Electrostatic energy          :        -143.19844311 Ha       -3896.62789520 eV
  | Energy correction for multipole
  | error in Hartree potential    :           0.00621786 Ha           0.16919669 eV
  | Sum of eigenvalues per atom                           :        -310.46880486 eV
  | Total energy (T->0) per atom                          :        -518.19825729 eV  <-- do not rely on this value for anything but (periodic) metals
  | Electronic free energy per atom                       :        -518.19825729 eV

  Self-consistency convergence accuracy:
  | Change of charge density      :  0.2097E-03
  | Change of sum of eigenvalues  :  0.1918E-02 eV
  | Change of total energy        :  0.8682E-05 eV

  End self-consistency iteration #     9       :  max(cpu_time)    wall_clock(cpu1)
  | Time for this iteration                    :        0.061 s           0.060 s
  | Charge density update                      :        0.012 s           0.012 s
  | Density mixing                             :        0.001 s           0.001 s
  | Hartree multipole update                   :        0.001 s           0.001 s
  | Hartree multipole summation                :        0.018 s           0.018 s
  | Integration                                :        0.028 s           0.028 s
  | Solution of K.-S. eqns.                    :        0.000 s           0.000 s
  | Total energy evaluation                    :        0.000 s           0.000 s

  Partial memory accounting:
  | Current value for overall tracked memory usage on task 0  :           0.020 MB
  | Peak value for overall tracked memory usage on task 0     :           0.085 MB after allocating wave
  | Largest tracked array allocation on task 0 so far         :           0.019 MB  when allocating H_times_psi
  Note:  These values currently only include a subset of arrays which are explicitly tracked.
  The "true" memory usage will be greater.
------------------------------------------------------------

------------------------------------------------------------
          Begin self-consistency iteration #   10

  Date     :  20190509, Time     :  114709.573
------------------------------------------------------------
  Evaluating new KS density.
  Integration grid: deviation in total charge (<rho> - N_e) =   1.776357E-14
  Pulay mixing of updated and previous charge densities.

  Evaluating partitioned Hartree potential by multipole expansion.
  | Analytical far-field extrapolation by fixed multipoles:
  | Hartree multipole sum: apparent total charge =   0.999556E+00
  Summing up the Hartree potential.
  Time summed over all CPUs for potential: real work        0.016 s, elapsed        0.016 s
  | RMS charge density error from multipole expansion :   0.926234E-02

  Integrating Hamiltonian matrix: batch-based integration.
  Time summed over all CPUs for integration: real work        0.029 s, elapsed        0.029 s

  Updating Kohn-Sham eigenvalues, eigenvectors, occupation numbers, and Fermi level.
  Solving generalized eigenproblem
  Updating Kohn-Sham eigenvalues and eigenfunctions.
  Solving real generalised eigenvalue problem by standard LAPACK (fast)

  Obtaining occupation numbers and chemical potential using ELSI.
  | Chemical potential (Fermi level):   -12.14257868eV
  Highest occupied state (VBM) at    -18.67583642 eV
  | Occupation number:      2.00000000

  Lowest unoccupied state (CBM) at    -8.18752369 eV
  | Occupation number:      0.00000000

  Overall HOMO-LUMO gap:     10.48831273 eV.

  Total energy components:
  | Sum of eigenvalues            :         -45.63816875 Ha       -1241.87775765 eV
  | XC energy correction          :          -8.80412598 Ha        -239.57245722 eV
  | XC potential correction       :          11.59630404 Ha         315.55148812 eV
  | Free-atom electrostatic energy:         -35.29500321 Ha        -960.42590337 eV
  | Hartree energy correction     :           1.96725018 Ha          53.53160115 eV
  | Entropy correction            :          -0.00000000 Ha          -0.00000000 eV
  | ---------------------------
  | Total energy                  :         -76.17374371 Ha       -2072.79302898 eV
  | Total energy, T -> 0          :         -76.17374371 Ha       -2072.79302898 eV  <-- do not rely on this value for anything but (periodic) metals
  | Electronic free energy        :         -76.17374371 Ha       -2072.79302898 eV

  Derived energy quantities:
  | Kinetic energy                :          75.82877735 Ha        2063.40601652 eV
  | Electrostatic energy          :        -143.19839508 Ha       -3896.62658828 eV
  | Energy correction for multipole
  | error in Hartree potential    :           0.00621759 Ha           0.16918912 eV
  | Sum of eigenvalues per atom                           :        -310.46943941 eV
  | Total energy (T->0) per atom                          :        -518.19825724 eV  <-- do not rely on this value for anything but (periodic) metals
  | Electronic free energy per atom                       :        -518.19825724 eV

  Self-consistency convergence accuracy:
  | Change of charge density      :  0.2317E-04
  | Change of sum of eigenvalues  : -0.2538E-02 eV
  | Change of total energy        :  0.1889E-06 eV

  End self-consistency iteration #    10       :  max(cpu_time)    wall_clock(cpu1)
  | Time for this iteration                    :        0.060 s           0.060 s
  | Charge density update                      :        0.012 s           0.012 s
  | Density mixing                             :        0.001 s           0.001 s
  | Hartree multipole update                   :        0.002 s           0.002 s
  | Hartree multipole summation                :        0.017 s           0.016 s
  | Integration                                :        0.028 s           0.029 s
  | Solution of K.-S. eqns.                    :        0.000 s           0.000 s
  | Total energy evaluation                    :        0.000 s           0.000 s

  Partial memory accounting:
  | Current value for overall tracked memory usage on task 0  :           0.020 MB
  | Peak value for overall tracked memory usage on task 0     :           0.085 MB after allocating wave
  | Largest tracked array allocation on task 0 so far         :           0.019 MB  when allocating H_times_psi
  Note:  These values currently only include a subset of arrays which are explicitly tracked.
  The "true" memory usage will be greater.
------------------------------------------------------------

------------------------------------------------------------
          Begin self-consistency iteration #   11

  Date     :  20190509, Time     :  114709.633
------------------------------------------------------------
  Evaluating new KS density.
  Integration grid: deviation in total charge (<rho> - N_e) =  -2.131628E-14
  Pulay mixing of updated and previous charge densities.

  Evaluating partitioned Hartree potential by multipole expansion.
  | Analytical far-field extrapolation by fixed multipoles:
  | Hartree multipole sum: apparent total charge =   0.999565E+00
  Summing up the Hartree potential.
  Time summed over all CPUs for potential: real work        0.017 s, elapsed        0.017 s
  | RMS charge density error from multipole expansion :   0.926237E-02

  Integrating Hamiltonian matrix: batch-based integration.
  Time summed over all CPUs for integration: real work        0.033 s, elapsed        0.033 s

  Updating Kohn-Sham eigenvalues, eigenvectors, occupation numbers, and Fermi level.
  Solving generalized eigenproblem
  Updating Kohn-Sham eigenvalues and eigenfunctions.
  Solving real generalised eigenvalue problem by standard LAPACK (fast)

  Obtaining occupation numbers and chemical potential using ELSI.
  | Chemical potential (Fermi level):   -12.14258943eV
  Highest occupied state (VBM) at    -18.67587147 eV
  | Occupation number:      2.00000000

  Lowest unoccupied state (CBM) at    -8.18753795 eV
  | Occupation number:      0.00000000

  Overall HOMO-LUMO gap:     10.48833352 eV.

  Total energy components:
  | Sum of eigenvalues            :         -45.63819270 Ha       -1241.87840942 eV
  | XC energy correction          :          -8.80412477 Ha        -239.57242431 eV
  | XC potential correction       :          11.59630244 Ha         315.55144461 eV
  | Free-atom electrostatic energy:         -35.29500321 Ha        -960.42590337 eV
  | Hartree energy correction     :           1.96727454 Ha          53.53226379 eV
  | Entropy correction            :          -0.00000000 Ha          -0.00000000 eV
  | ---------------------------
[...]
  | Largest tracked array allocation on task 0 so far         :           0.019 MB  when allocating H_times_psi
  Note:  These values currently only include a subset of arrays which are explicitly tracked.
  The "true" memory usage will be greater.
------------------------------------------------------------

------------------------------------------------------------
          Begin self-consistency iteration #   12

  Date     :  20190509, Time     :  114709.698
------------------------------------------------------------
  Evaluating new KS density.
  Integration grid: deviation in total charge (<rho> - N_e) =  -1.065814E-14
  Pulay mixing of updated and previous charge densities.

  Evaluating partitioned Hartree potential by multipole expansion.
  | Analytical far-field extrapolation by fixed multipoles:
  | Hartree multipole sum: apparent total charge =   0.999566E+00
  Summing up the Hartree potential.
  Time summed over all CPUs for potential: real work        0.016 s, elapsed        0.016 s
  | RMS charge density error from multipole expansion :   0.926238E-02

  Integrating Hamiltonian matrix: batch-based integration.
  Time summed over all CPUs for integration: real work        0.028 s, elapsed        0.028 s

  Updating Kohn-Sham eigenvalues, eigenvectors, occupation numbers, and Fermi level.
  Solving generalized eigenproblem
  Updating Kohn-Sham eigenvalues and eigenfunctions.
  Solving real generalised eigenvalue problem by standard LAPACK (fast)

  Obtaining occupation numbers and chemical potential using ELSI.
  | Chemical potential (Fermi level):   -12.14258455eV
  Highest occupied state (VBM) at    -18.67586594 eV
  | Occupation number:      2.00000000

  Lowest unoccupied state (CBM) at    -8.18753526 eV
  | Occupation number:      0.00000000

  Overall HOMO-LUMO gap:     10.48833068 eV.

  Total energy components:
  | Sum of eigenvalues            :         -45.63818988 Ha       -1241.87833262 eV
  | XC energy correction          :          -8.80412526 Ha        -239.57243764 eV
  | XC potential correction       :          11.59630309 Ha         315.55146220 eV
  | Free-atom electrostatic energy:         -35.29500321 Ha        -960.42590337 eV
  | Hartree energy correction     :           1.96727156 Ha          53.53218270 eV
  | Entropy correction            :          -0.00000000 Ha          -0.00000000 eV
  | ---------------------------
  | Total energy                  :         -76.17374370 Ha       -2072.79302873 eV
  | Total energy, T -> 0          :         -76.17374370 Ha       -2072.79302873 eV  <-- do not rely on this value for anything but (periodic) metals
  | Electronic free energy        :         -76.17374370 Ha       -2072.79302873 eV

  Derived energy quantities:
  | Kinetic energy                :          75.82874635 Ha        2063.40517316 eV
  | Electrostatic energy          :        -143.19836480 Ha       -3896.62576425 eV
  | Energy correction for multipole
  | error in Hartree potential    :           0.00621713 Ha           0.16917680 eV
  | Sum of eigenvalues per atom                           :        -310.46958315 eV
  | Total energy (T->0) per atom                          :        -518.19825718 eV  <-- do not rely on this value for anything but (periodic) metals
  | Electronic free energy per atom                       :        -518.19825718 eV

  Self-consistency convergence accuracy:
  | Change of charge density      :  0.6937E-06
  | Change of sum of eigenvalues  :  0.7680E-04 eV
  | Change of total energy        : -0.2352E-07 eV

  Electronic self-consistency reached - switching on the force computation.

  End self-consistency iteration #    12       :  max(cpu_time)    wall_clock(cpu1)
  | Time for this iteration                    :        0.059 s           0.059 s
  | Charge density & force component update    :        0.012 s           0.011 s
  | Density mixing                             :        0.001 s           0.001 s
  | Hartree multipole update                   :        0.002 s           0.002 s
  | Hartree multipole summation                :        0.017 s           0.016 s
  | Integration                                :        0.028 s           0.028 s
  | Solution of K.-S. eqns.                    :        0.000 s           0.001 s
  | Total energy evaluation                    :        0.000 s           0.000 s

  Partial memory accounting:
  | Current value for overall tracked memory usage on task 0  :           0.020 MB
  | Peak value for overall tracked memory usage on task 0     :           0.085 MB after allocating wave
  | Largest tracked array allocation on task 0 so far         :           0.019 MB  when allocating H_times_psi
  Note:  These values currently only include a subset of arrays which are explicitly tracked.
  The "true" memory usage will be greater.
------------------------------------------------------------

------------------------------------------------------------
          Begin self-consistency iteration #   13

  Date     :  20190509, Time     :  114709.757
------------------------------------------------------------
  Evaluating new KS density and force components.
  Integration grid: deviation in total charge (<rho> - N_e) =  -2.309264E-14
  Pulay mixing of updated and previous charge densities.

  Evaluating partitioned Hartree potential by multipole expansion.
  | Analytical far-field extrapolation by fixed multipoles:
  | Hartree multipole sum: apparent total charge =   0.999566E+00
  Summing up the Hartree potential.
  Time summed over all CPUs for potential: real work        0.051 s, elapsed        0.051 s
  | RMS charge density error from multipole expansion :   0.926238E-02

  Integrating Hamiltonian matrix: batch-based integration.
  Time summed over all CPUs for integration: real work        0.029 s, elapsed        0.029 s

  Updating Kohn-Sham eigenvalues, eigenvectors, occupation numbers, and Fermi level.
  Solving generalized eigenproblem
  Updating Kohn-Sham eigenvalues and eigenfunctions.
  Solving real generalised eigenvalue problem by standard LAPACK (fast)

  Obtaining occupation numbers and chemical potential using ELSI.
  | Chemical potential (Fermi level):   -12.14258409eV
  Highest occupied state (VBM) at    -18.67586522 eV
  | Occupation number:      2.00000000

  Lowest unoccupied state (CBM) at    -8.18753490 eV
  | Occupation number:      0.00000000

  Overall HOMO-LUMO gap:     10.48833032 eV.

  Total energy components:
  | Sum of eigenvalues            :         -45.63818954 Ha       -1241.87832334 eV
  | XC energy correction          :          -8.80412530 Ha        -239.57243882 eV
  | XC potential correction       :          11.59630315 Ha         315.55146375 eV
  | Free-atom electrostatic energy:         -35.29500321 Ha        -960.42590337 eV
  | Hartree energy correction     :           1.96727120 Ha          53.53217305 eV
  | Entropy correction            :          -0.00000000 Ha          -0.00000000 eV
  | ---------------------------
  | Total energy                  :         -76.17374370 Ha       -2072.79302873 eV
  | Total energy, T -> 0          :         -76.17374370 Ha       -2072.79302873 eV  <-- do not rely on this value for anything but (periodic) metals
  | Electronic free energy        :         -76.17374370 Ha       -2072.79302873 eV

  Derived energy quantities:
  | Kinetic energy                :          75.82874660 Ha        2063.40517977 eV
  | Electrostatic energy          :        -143.19836500 Ha       -3896.62576968 eV
  | Energy correction for multipole
  | error in Hartree potential    :           0.00621713 Ha           0.16917683 eV
  | Sum of eigenvalues per atom                           :        -310.46958084 eV
  | Total energy (T->0) per atom                          :        -518.19825718 eV  <-- do not rely on this value for anything but (periodic) metals
  | Electronic free energy per atom                       :        -518.19825718 eV

  atomic forces [eV/Ang]:
  -----------------------
  atom #    1
   Hellmann-Feynman              : -0.283876E-01  0.293550E-01 -0.884126E+01
   Ionic forces                  :  0.000000E+00  0.000000E+00  0.000000E+00
   Multipole                     : -0.879789E-03 -0.162300E-02 -0.325956E+00
   Pulay                         :  0.128834E-02  0.336907E-02  0.915693E+01
   ----------------------------------------------------------------
   Total forces(   1)            : -0.279790E-01  0.311011E-01 -0.102834E-01
  atom #    2
   Hellmann-Feynman              :  0.239542E+00 -0.148882E+00  0.145920E+00
   Ionic forces                  :  0.000000E+00  0.000000E+00  0.000000E+00
   Multipole                     :  0.500067E-01 -0.286903E-01  0.629803E-01
   Pulay                         : -0.258716E+00  0.148356E+00 -0.196938E+00
   ----------------------------------------------------------------
   Total forces(   2)            :  0.308330E-01 -0.292158E-01  0.119624E-01
  atom #    3
   Hellmann-Feynman              : -0.204828E+00 -0.123089E+00  0.135756E+00
   Ionic forces                  :  0.000000E+00  0.000000E+00  0.000000E+00
   Multipole                     : -0.499314E-01 -0.288580E-01  0.629369E-01
   Pulay                         :  0.257483E+00  0.148467E+00 -0.196356E+00
   ----------------------------------------------------------------
   Total forces(   3)            :  0.272346E-02 -0.347985E-02  0.233694E-02
  atom #    4
   Hellmann-Feynman              : -0.548354E-02  0.241271E+00  0.131717E+00
   Ionic forces                  :  0.000000E+00  0.000000E+00  0.000000E+00
   Multipole                     :  0.767095E-04  0.574540E-01  0.626439E-01
   Pulay                         : -0.167650E-03 -0.296967E+00 -0.196449E+00
   ----------------------------------------------------------------
   Total forces(   4)            : -0.557449E-02  0.175808E-02 -0.208824E-02


  Self-consistency convergence accuracy:
  | Change of charge density      :  0.4683E-07
  | Change of sum of eigenvalues  :  0.9275E-05 eV
  | Change of total energy        : -0.1696E-08 eV
  | Change of forces              :  0.4595E+01 eV/A

  Writing Kohn-Sham eigenvalues.

  State    Occupation    Eigenvalue [Ha]    Eigenvalue [eV]
      1       2.00000         -19.024270         -517.67672
      2       2.00000          -1.348770          -36.70190
      3       2.00000          -0.880070          -23.94793
      4       2.00000          -0.879659          -23.93674
      5       2.00000          -0.686325          -18.67587
      6       0.00000          -0.300886           -8.18753
      7       0.00000          -0.207099           -5.63546
      8       0.00000          -0.206719           -5.62511
      9       0.00000           0.016525            0.44967
     10       0.00000           0.052201            1.42045
     11       0.00000           0.052565            1.43038
     12       0.00000           0.240762            6.55147
     13       0.00000           0.467442           12.71975

  Highest occupied state (VBM) at    -18.67586522 eV
  | Occupation number:      2.00000000

  Lowest unoccupied state (CBM) at    -8.18753490 eV
  | Occupation number:      0.00000000

  Overall HOMO-LUMO gap:     10.48833032 eV.

  Self-consistency cycle converged.

  End self-consistency iteration #    13       :  max(cpu_time)    wall_clock(cpu1)
  | Time for this iteration                    :        0.126 s           0.126 s
  | Charge density & force component update    :        0.043 s           0.042 s
  | Density mixing                             :        0.001 s           0.001 s
  | Hartree multipole update                   :        0.002 s           0.002 s
  | Hartree multipole summation                :        0.052 s           0.052 s
  | Integration                                :        0.028 s           0.029 s
  | Solution of K.-S. eqns.                    :        0.000 s           0.000 s
  | Total energy evaluation                    :        0.000 s           0.000 s

  Partial memory accounting:
  | Current value for overall tracked memory usage on task 0  :           0.020 MB
  | Peak value for overall tracked memory usage on task 0     :           0.116 MB after allocating h_times_wave
  | Largest tracked array allocation on task 0 so far         :           0.058 MB  when allocating gradient_basis_wave
  Note:  These values currently only include a subset of arrays which are explicitly tracked.
  The "true" memory usage will be greater.
------------------------------------------------------------
  ------------------------------------------------------------
   Computing monopole / dipole moments for complete molecule:
  | Total electronic charge [e]         :          0.100000000126665E+02
  | Total ionic charge [e]              :          0.110000000000000E+02
  | Total charge [e]                    :          0.999999987333485E+00
 * Warning: The system has a total charge of      0.99999999 .
 * The dipole moment depends on the choice of the origin.
  | Total dipole moment [eAng]          :         -0.230933698262886E-03         0.846849539524213E-03         0.587633625890582E+00
  | Absolute dipole moment              :          0.587634281472608E+00 eAng              /                   0.282208785624154E+01 Debye  .
  Removing unitary transformations (pure translations, rotations) from forces on atoms.
  Atomic forces before filtering:
  | Net force on center of mass :   0.295953E-05  0.163504E-03  0.192770E-02 eV/A
  | Net torque on center of mass:   0.347478E-04 -0.383893E-05 -0.186838E-06 eV
  Atomic forces after filtering:
  | Net force on center of mass :  -0.278760E-17 -0.209070E-17 -0.104535E-17 eV/A
  | Net torque on center of mass:   0.253538E-17  0.350344E-17  0.295026E-17 eV

  Energy and forces in a compact form:
  | Total energy uncorrected      :         -0.207279302873161E+04 eV
  | Total energy corrected        :         -0.207279302873161E+04 eV  <-- do not rely on this value for anything but (periodic) metals
  | Electronic free energy        :         -0.207279302873161E+04 eV
  Total atomic forces (unitary forces cleaned) [eV/Ang]:
  |   1         -0.279803570253207E-01          0.310550267606219E-01         -0.107652833756164E-01
  |   2          0.308325198750949E-01         -0.292549243985604E-01          0.114898728132882E-01
  |   3          0.272293777049585E-02         -0.351904971167651E-02          0.186890253480978E-02
  |   4         -0.557510062027004E-02          0.171894734961498E-02         -0.259349197248157E-02

  ------------------------------------ 
  Start decomposition of the XC Energy 
  ------------------------------------ 
  X and C from original XC functional choice 
  Hartree-Fock Energy :          0.000000000 Ha              0.000000000 eV
  X Energy            :         -8.140476117 Ha           -221.513625639 eV
  C Energy            :         -0.663649186 Ha            -18.058813182 eV
  Total XC Energy     :         -8.804125304 Ha           -239.572438821 eV
  ------------------------------------ 
  LDA X and C from self-consistent density 
  X Energy LDA        :         -8.140476117 Ha           -221.513625639 eV
  C Energy LDA        :         -0.663649186 Ha            -18.058813182 eV
  ------------------------------------ 
  End decomposition of the XC Energy 
  ------------------------------------ 

------------------------------------------------------------

------------------------------------------------------------------------------
  Final output of selected total energy values:

  The following output summarizes some interesting total energy values
  at the end of a run (AFTER all relaxation, molecular dynamics, etc.).

  | Total energy of the DFT / Hartree-Fock s.c.f. calculation      :          -2072.793028732 eV
  | Final zero-broadening corrected energy (caution - metals only) :          -2072.793028732 eV
  | For reference only, the value of 1 Hartree used in FHI-aims is :             27.211384500 eV

  Before relying on these values, please be sure to understand exactly which
  total energy value is referred to by a given number. Different objects may
  all carry the same name 'total energy'. Definitions:

  Total energy of the DFT / Hartree-Fock s.c.f. calculation:
  | Note that this energy does not include ANY quantities calculated after the
  | s.c.f. cycle, in particular not ANY RPA, MP2, etc. many-body perturbation terms.

  Final zero-broadening corrected energy:
  | For metallic systems only, a broadening of the occupation numbers at the Fermi
  | level can be extrapolated back to zero broadening by an electron-gas inspired
  | formula. For all systems that are not real metals, this value can be
  | meaningless and should be avoided.

------------------------------------------------------------------------------
  Methods described in the following list of references were used in this FHI-aims run.
  If you publish the results, please make sure to cite these reference if they apply.
  FHI-aims is an academic code, and for our developers (often, Ph.D. students
  and postdocs), scientific credit in the community is essential.
  Thank you for helping us!

  For any use of FHI-aims, please cite:

    Volker Blum, Ralf Gehrke, Felix Hanke, Paula Havu, Ville Havu,
    Xinguo Ren, Karsten Reuter, and Matthias Scheffler
    'Ab initio molecular simulations with numeric atom-centered orbitals'
    Computer Physics Communications 180, 2175-2196 (2009)
    http://dx.doi.org/10.1016/j.cpc.2009.06.022


  For the real-space grid partitioning and parallelization used in this calculation, please cite:

    Ville Havu, Volker Blum, Paula Havu, and Matthias Scheffler,
    'Efficient O(N) integration for all-electron electronic structure calculation'
    'using numerically tabulated basis functions'
    Journal of Computational Physics 228, 8367-8379 (2009).
    http://dx.doi.org/10.1016/j.jcp.2009.08.008

  Of course, there are many other important community references, e.g., those cited in the
  above references. Our list is limited to references that describe implementations in the
  FHI-aims code. The reason is purely practical (length of this list) - please credit others as well.

------------------------------------------------------------
          Leaving FHI-aims.
          Date     :  20190509, Time     :  114709.897

          Computational steps:
          | Number of self-consistency cycles          :           13
          | Number of SCF (re)initializations          :            1

          Detailed time accounting                     :  max(cpu_time)    wall_clock(cpu1)
          | Total time                                 :        1.001 s           1.001 s
          | Preparation time                           :        0.049 s           0.049 s
          | Boundary condition initalization           :        0.000 s           0.000 s
          | Grid partitioning                          :        0.015 s           0.015 s
          | Preloading free-atom quantities on grid    :        0.001 s           0.000 s
          | Free-atom superposition energy             :        0.012 s           0.012 s
          | Total time for integrations                :        0.425 s           0.422 s
          | Total time for solution of K.-S. equations :        0.003 s           0.003 s
          | Total time for density & force components  :        0.181 s           0.181 s
          | Total time for mixing                      :        0.009 s           0.008 s
          | Total time for Hartree multipole update    :        0.020 s           0.022 s
          | Total time for Hartree multipole sum       :        0.255 s           0.255 s
          | Total time for total energy evaluation     :        0.001 s           0.002 s

 This is a stub MPI_ALLREDUCE call.
 You should not be here. Check your
 setting on the use_mpi variable, or
 link against true MPI-libraries.
