------------------------------------------------------------
          Invoking FHI-aims ...
          Version 171221_1
          Compiled on 2019/05/06 at 14:26:40 on host ffph0xx.

          When using FHI-aims, please cite the following reference:

          Volker Blum, Ralf Gehrke, Felix Hanke, Paula Havu,
          Ville Havu, Xinguo Ren, Karsten Reuter, and Matthias Scheffler,
          'Ab Initio Molecular Simulations with Numeric Atom-Centered Orbitals',
          Computer Physics Communications 180, 2175-2196 (2009)

          For any questions about FHI-aims, please visit the aimsclub website
          with its forums and wiki. Contributions to both the forums and the
          wiki are warmly encouraged - they are for you, and everyone is welcome there.

------------------------------------------------------------



  Date     :  20190513, Time     :  143941.992
  Time zero on CPU 1             :   0.327000000000000E-02  s.
  Internal wall clock time zero  :           326990381.992  s.

  FHI-aims created a unique identifier for this run for later identification
  aims_uuid : 5DD93CC8-ABFA-4430-AEA5-C82237000B28


  Performing system and environment tests:
  *** Environment variable OMP_NUM_THREADS is not set
  *** For performance reasons you might want to set it to 1
  | Stacksize not measured: no C compiler

  Obtaining array dimensions for all initial allocations:
  
  -----------------------------------------------------------------------
  Parsing control.in (first pass over file, find array dimensions only).
  The contents of control.in will be repeated verbatim below
  unless switched off by setting 'verbatim_writeout .false.' .
  in the first line of control.in .
  -----------------------------------------------------------------------
  
  #--- method ---
  xc pw-lda
  spin none
  relativistic atomic_zora scalar
  #---
  
  #--- k-grid settings ---
  k_grid 12 12 12
  #---
  
  
  #--- geometry relaxation ---
  
  # atom relaxation until forces are below 1e-2 eV/Angstrom
  relax_geometry trm 1E-2
  
  # relaxation of unit cell size/shape
  relax_unit_cell full
  #---
  
  
  
  
  
  
  
  
  
  #-------------------------------------------------------------------------------
  #--- Species defaults for Si
  #-------------------------------------------------------------------------------
  
  ################################################################################
  #
  #  FHI-aims code project
  #  VB, Fritz-Haber Institut, 2009
  #
  #  Suggested "light" defaults for Si atom (to be pasted into control.in file)
  #  Be sure to double-check any results obtained with these settings for post-processing,
  #  e.g., with the "tight" defaults and larger basis sets.
  #
  ################################################################################
    species        Si
  #     global species definitions
      nucleus             14
      mass                28.0855
  #
      l_hartree           4
  #
      cut_pot             3.5          1.5  1.0
      basis_dep_cutoff    1e-4
  #
      radial_base         42 5.0
      radial_multiplier   1
      angular_grids       specified
        division   0.5866   50
        division   0.9616  110
        division   1.2249  194
        division   1.3795  302
  #      division   1.4810  434
  #      division   1.5529  590
  #      division   1.6284  770
  #      division   1.7077  974
  #      division   2.4068 1202
  #      outer_grid   974
        outer_grid 302
  ################################################################################
  #
  #  Definition of "minimal" basis
  #
  ################################################################################
  #     valence basis states
      valence      3  s   2.
      valence      3  p   2.
  #     ion occupancy
      ion_occ      3  s   1.
      ion_occ      3  p   1.
  ################################################################################
  #
  #  Suggested additional basis functions. For production calculations,
  #  uncomment them one after another (the most important basis functions are
  #  listed first).
  #
  #  Constructed for dimers: 1.75 A, 2.0 A, 2.25 A, 2.75 A, 3.75 A
  #
  ################################################################################
  #  "First tier" - improvements: -571.96 meV to -37.03 meV
       hydro 3 d 4.2
       hydro 2 p 1.4
  #     hydro 4 f 6.2
       ionic 3 s auto
  #  "Second tier" - improvements: -16.76 meV to -3.03 meV
  #     hydro 3 d 9
  #     hydro 5 g 9.4
  #     hydro 4 p 4
  #     hydro 1 s 0.65
  #  "Third tier" - improvements: -3.89 meV to -0.60 meV
  #     ionic 3 d auto
  #     hydro 3 s 2.6
  #     hydro 4 f 8.4
  #     hydro 3 d 3.4
  #     hydro 3 p 7.8
  #  "Fourth tier" - improvements: -0.33 meV to -0.11 meV
  #     hydro 2 p 1.6
  #     hydro 5 g 10.8
  #     hydro 5 f 11.2
  #     hydro 3 d 1
  #     hydro 4 s 4.5
  #  Further basis functions that fell out of the optimization - noise
  #  level... < -0.08 meV
  #     hydro 4 d 6.6
  #     hydro 5 g 16.4
  #     hydro 4 d 9
  
  -----------------------------------------------------------------------
  Completed first pass over input file control.in .
  -----------------------------------------------------------------------
  
  
  -----------------------------------------------------------------------
  Parsing geometry.in (first pass over file, find array dimensions only).
  The contents of geometry.in will be repeated verbatim below
  unless switched off by setting 'verbatim_writeout .false.' .
  in the first line of geometry.in .
  -----------------------------------------------------------------------
  
  lattice_vector   3.1   0.4   0.4
  lattice_vector   0.45  3.1   0.4
  lattice_vector   0.45  0.45  3.1
  
  atom_frac        0.0   0.0   0.0  Si
  atom_frac        0.3   0.3   0.3  Si
  
  -----------------------------------------------------------------------
  Completed first pass over input file geometry.in .
  -----------------------------------------------------------------------
  

  Basic array size parameters:
  | Number of species                 :        1
  | Number of atoms                   :        2
  | Number of lattice vectors         :        3
  | Max. basis fn. angular momentum   :        2
  | Max. atomic/ionic basis occupied n:        3
  | Max. number of basis fn. types    :        3
  | Max. radial fns per species/type  :        5
  | Max. logarithmic grid size        :     1346
  | Max. radial integration grid size :       42
  | Max. angular integration grid size:      302
  | Max. angular grid division number :        8
  | Radial grid for Hartree potential :     1346
  | Number of spin channels           :        1

------------------------------------------------------------
          Reading file control.in.
------------------------------------------------------------
  XC: Using Perdew-Wang parametrisation of Ceperley-Alder LDA.
  Spin treatment: No spin polarisation.
  Scalar relativistic treatment of kinetic energy: on-site free-atom approximation to ZORA.
  Found k-point grid:        12        12        12
  Geometry relaxation: Modified BFGS - TRM (trust radius method, i.e., trusted quadratic extrapolation).
  Convergence accuracy for geometry relaxation: Maximum force <   0.100000E-01 eV/A.

  Reading configuration options for species Si                  .
  | Found nuclear charge :  14.0000
  | Found atomic mass :    28.085500000000000      amu
  | Found l_max for Hartree potential  :   4
  | Found cutoff potl. onset [A], width [A], scale factor :    3.50000    1.50000    1.00000
  | Threshold for basis-dependent cutoff potential is   0.100000E-03
  | Found data for basic radial integration grid :    42 points, outermost radius =    5.000 A
  | Found multiplier for basic radial grid :   1
  | Found angular grid specification: user-specified.
  | Specified grid contains     5 separate shells.
  | Check grid settings after all constraints further below.
  | Found free-atom valence shell :  3 s   2.000
  | Found free-atom valence shell :  3 p   2.000
  | Found free-ion valence shell :  3 s   1.000
  | Found free-ion valence shell :  3 p   1.000
  | Found hydrogenic basis function :  3 d   4.200
  | Found hydrogenic basis function :  2 p   1.400
  | Found ionic basis function :  3 s , default cutoff radius.
  Species Si                  : Missing cutoff potential type.
  Defaulting to exp(1/x)/(1-x)^2 type cutoff potential.
  Species Si: No 'logarithmic' tag. Using default grid for free atom:
  | Default logarithmic grid data [bohr] : 0.1000E-03 0.1000E+03 0.1012E+01
  | Will include ionic basis functions of  2.0-fold positive Si                   ion.
  Species Si: On-site basis accuracy parameter (for Gram-Schmidt orthonormalisation) not specified.
  Using default value basis_acc =  0.1000000E-03.
  Species Si                  : Using default innermost maximum threshold i_radial=  2 for radial functions.
  Species Si                  : Default cutoff onset for free atom density etc. : 0.35000000E+01 AA.
  Species Si                  : Basic radial grid will be enhanced according to radial_multiplier =   1, to contain    42 grid points.

  Finished reading input file 'control.in'. Consistency checks are next.

  MPI_IN_PLACE appears to work with this MPI implementation.
  | Keeping use_mpi_in_place .true. (see manual).
  Target number of points in a grid batch is not set. Defaulting to  100
  Method for grid partitioning is not set. Defaulting to 'maxmin' partitioning.
  Batch size limit is not set. Defaulting to    200
  By default, will store active basis functions for each batch.
  If in need of memory, prune_basis_once .false. can be used to disable this option.
  communication_type for Hartree potential was not specified.
  Defaulting to calc_hartree .
 * Attention: 
 * You may want to set distributed_spline_storage to .true. in order to save memory.
 * This doesn't harm performance and is perfectly ok unless:
 * - you get error messages in postprocessing (about missing atoms in get_rho_multipole_spl)
 * - you need full spline storage in hirshfeld_analysis
  Defaulting to Pulay charge density mixer.
  Pulay mixer: Number of relevant iterations not set.
  Defaulting to    8 iterations.
  Pulay mixer: Number of initial linear mixing iterations not set.
  Defaulting to    0 iterations.
  Work space size for distributed Hartree potential not set.
  Defaulting to   0.200000E+03 MB.
  Mixing parameter for charge density mixing has not been set.
  Using default: charge_mix_param =     0.0500.
  The mixing parameter will be adjusted in iteration number     2 of the first full s.c.f. cycle only.
  Algorithm-dependent basis array size parameters:
  | n_max_pulay                         :        8
 * Notice: The s.c.f. convergence criterion sc_accuracy_rho was not provided.
 * We used to stop in this case, and ask the user to provide reasonable
 * scf convergence criteria. However, this led some users to employ criteria
 * that led to extremely long run times, e.g., for simple relaxation.
 * We now preset a default value for sc_accuracy_rho if it is not set.
 * You may still wish to check if this setting is too tight or too loose for your needs.
 * Based on n_atoms, FHI-aims chose sc_accuracy_rho =  0.100000E-05 .
  Maximum number of self-consistency iterations not provided.
  Presetting  1000 iterations.
  Presetting      1001 iterations before the initial mixing cycle
  is restarted anyway using the sc_init_iter criterion / keyword.
  Presetting a factor      1.000 between actual scf density residual
  and density convergence criterion sc_accuracy_rho below which sc_init_iter
  takes no effect.
 * No s.c.f. convergence criteria (sc_accuracy_*) were provided in control.in.
 * The run will proceed with a reasonable default guess, but please check whether.
 * the s.c.f. cycles seem to take too much or too little time.
  No maximum number of relaxation steps, defaulting to     1000
  Default initial Hessian is Lindh matrix (thres = 15.00) plus  0.200000E+01 eV/A^2 times unity.
  No maximum energy tolerance for TRM/BFGS moves, defaulting to   0.200000E-03
  No harmonic length scale. Defaulting to   0.250000E-01 A.
  No trust radius initializer. Defaulting to   0.200000E+00 A.
  Unit cell relaxation: Unit cell will be relaxed fully.
  Unit cell relaxation: Analytical stress will be used.
  Analytical stress will be computed.
  Analytical stress calculation: Only the upper triangle is calculated.
                                 Final output is symmetrized.
  Analytical stress calculation: scf convergence accuracy of stress not set.
                                 Analytical stress self-consistency will not be checked explicitly.
                                 Be sure to set other criteria like sc_accuracy_rho tight enough.
  Force calculation: scf convergence accuracy of forces not set.
  Defaulting to 'sc_accuracy_forces not_checked'.
  Handling of forces: Unphysical translation and rotation will be removed from forces.
  No accuracy limit for integral partition fn. given. Defaulting to  0.1000E-14.
  No threshold value for u(r) in integrations given. Defaulting to  0.1000E-05.
  No occupation type (smearing scheme) given. Defaulting to Gaussian broadening, width =  0.1000E-01 eV.
  The width will be adjusted in iteration number     2 of the first full s.c.f. cycle only.
  S.C.F. convergence parameters will be adjusted in iteration number     2 of the first full s.c.f. cycle only.
  No accuracy for occupation numbers given. Defaulting to  0.1000E-12.
  No threshold value for occupation numbers given. Defaulting to  0.0000E+00.
  No accuracy for fermi level given. Defaulting to  0.1000E-19.
  Maximum # of iterations to find E_F not set. Defaulting to  200.
  Preferred method for the eigenvalue solver ('KS_method') not specified in 'control.in'.
  Defaulting to serial version, 'lapack_fast'.
  Will not use alltoall communication since running on < 1024 CPUs.
  Threshold for basis singularities not set.
  Default threshold for basis singularities:  0.1000E-04
  partition_type (choice of integration weights) for integrals was not specified.
  | Using a version of the partition function of Stratmann and coworkers ('stratmann_smoother').
  | At each grid point, the set of atoms used to build the partition table is smoothly restricted to
  | only those atoms whose free-atom density would be non-zero at that grid point.
  Partitioning for Hartree potential was not defined. Using partition_type for integrals.
  | Adjusted default value of keyword multip_moments_threshold to:       0.10000000E-11
  | This value may affect high angular momentum components of the Hartree potential in periodic systems.
  Angular momentum expansion for Kerker preconditioner not set explicitly.
  | Using default value of   0
  No explicit requirement for turning off preconditioner.
  | By default, it will be turned off when the charge convergence reaches
  | sc_accuracy_rho  =   0.100000E-05
  No special mixing parameter while Kerker preconditioner is on.
  Using default: charge_mix_param =     0.0500.
  No q(lm)/r^(l+1) cutoff set for long-range Hartree potential.
  | Using default value of  0.100000E-09 .
  | Verify using the multipole_threshold keyword.
  Defaulting to new monopole extrapolation.
  Density update method: automatic selection selected.
  Using density matrix based charge density update.
  Using density matrix based charge density update.
  Using packed matrix style: index .
  Geometry relaxation: A file "geometry.in.next_step" is written out by default after each step.
  | This file contains the geometry of the current relaxation step as well as
  | the current Hessian matrix needed to restart the relaxation algorithm.
  | If you do not want part or all of this information, use the keywords
  | "write_restart_geometry" or "hessian_to_restart_geometry" to switch the output off.
  Defaulting to use time-reversal symmetry for k-point grid.
------------------------------------------------------------


------------------------------------------------------------
          Reading geometry description geometry.in.
------------------------------------------------------------
  Input structure read successfully.
  The structure contains        2 atoms,  and a total of         28.000 electrons.

  Input geometry:
  | Unit cell:
  |        3.10000000        0.40000000        0.40000000
  |        0.45000000        3.10000000        0.40000000
  |        0.45000000        0.45000000        3.10000000
  | Atomic structure:
  |       Atom                x [A]            y [A]            z [A]
  |    1: Species Si            0.00000000        0.00000000        0.00000000
  |    2: Species Si            1.20000000        1.18500000        1.17000000

  Lattice parameters for 3D lattice (in Angstroms) :     3.151190    3.157927    3.164648
  Angle(s) between unit vectors (in degrees)      :    73.505214   73.603741   73.687871

  |

  | The smallest distance between any two atoms is         2.05258983 AA.
  |
  | The first atom of this pair is atom number                      1 .
  | The second atom of this pair is atom number                     2 .
  | Wigner-Seitz cell of the first atom image           0     0     0 .
  | (The Wigner-Seitz cell of the second atom is 0 0 0  by definition.)

  Quantities derived from the lattice vectors:
  | Reciprocal lattice vector 1:  2.095877 -0.270041 -0.265041
  | Reciprocal lattice vector 2: -0.235592  2.095877 -0.270041
  | Reciprocal lattice vector 3: -0.240037 -0.235592  2.095877
  | Unit cell volume                               :   0.282700E+02  A^3

  Range separation radius for Ewald summation (hartree_convergence_parameter):      3.41279899 bohr.

  Fractional coordinates:
                         L1                L2                L3
       atom_frac         0.00000000        0.00000000        0.00000000  Si
       atom_frac         0.30000000        0.30000000        0.30000000  Si

  Number of empty states per atom not set in control.in - providing a guess from actual geometry.
  | Total number of empty states used during s.c.f. cycle:        6
  If you use a very high smearing, use empty_states (per atom!) in control.in to increase this value.

  Structure-dependent array size parameters: 
  | Maximum number of distinct radial functions  :        8
  | Maximum number of basis functions            :       36
  | Number of Kohn-Sham states (occupied + empty):       20
------------------------------------------------------------

------------------------------------------------------------
          Preparing all fixed parts of the calculation.
------------------------------------------------------------
  Determining machine precision:
     2.2250738585072014E-308
  Setting up grids for atomic and cluster calculations.

  Creating wave function, potential, and density for free atoms.

  Species: Si

  List of occupied orbitals and eigenvalues:
    n    l              occ      energy [Ha]    energy [eV]
    1    0           2.0000       -65.491668     -1782.1190
    2    0           2.0000        -5.087967      -138.4506
    3    0           2.0000        -0.391471       -10.6525
    2    1           6.0000        -3.502246       -95.3010
    3    1           2.0000        -0.143943        -3.9169

  Creating fixed part of basis set: Ionic, confined, hydrogenic.

  Si                   ion:

  List of free ionic orbitals and eigenvalues:
    n    l      energy [Ha]    energy [eV]
    1    0       -66.364436     -1805.8682
    2    0        -5.935799      -161.5213
    3    0        -1.078166       -29.3384
    2    1        -4.351123      -118.4001
    3    1        -0.781733       -21.2720


  List of ionic basis orbitals and eigenvalues:
    n    l      energy [Ha]    energy [eV]    outer radius [A]
    3    0        -1.078146       -29.3378       4.214062


  Si                   hydrogenic:

  List of hydrogenic basis orbitals: 
    n    l      effective z      eigenvalue [eV]  inner max. [A]     outer max. [A]     outer radius [A]   
    3    2         4.200000       -26.6624           1.139231           1.139231           4.534782
    2    1         1.400000        -6.4613           1.472672           1.472672           4.590560


  Adding cutoff potential to free-atom effective potential.
  Creating atomic-like basis functions for current effective potential.

  Species Si                  :

  List of atomic basis orbitals and eigenvalues:
    n    l      energy [Ha]    energy [eV]    outer radius [A]
    1    0       -65.491668     -1782.1190       0.789468
    2    0        -5.087967      -138.4506       2.815114
    3    0        -0.391471       -10.6525       4.534782
    2    1        -3.502246       -95.3010       3.259919
    3    1        -0.143943        -3.9169       4.590560

  Assembling full basis from fixed parts.
  | Species Si :   atomic orbital   1 s accepted.
  | Species Si :   atomic orbital   2 s accepted.
  | Species Si :    ionic orbital   3 s accepted.
  | Species Si :   atomic orbital   3 s accepted.
  | Species Si :   atomic orbital   2 p accepted.
  | Species Si :   atomic orbital   3 p accepted.
  | Species Si :    hydro orbital   2 p accepted.
  | Species Si :    hydro orbital   3 d accepted.

  Basis size parameters after reduction:
  | Total number of radial functions:        8
  | Total number of basis functions :       36

  Per-task memory consumption for arrays in subroutine allocate_ext:
  |           2.757868MB.
  Testing on-site integration grid accuracy.
  |  Species  Function  <phi|h_atom|phi> (log., in eV)  <phi|h_atom|phi> (rad., in eV)
           1        1              -1782.1189727076              -1782.1182429251
           1        2               -138.4506350693               -138.4506310079
           1        3                -10.3030408815                -10.3029120678
           1        4                  5.0238999146                  4.9457540310 ***
           1        5                -95.3009689499                -95.3009689315
           1        6                 -3.9266496564                 -3.9420918374
           1        7                  6.3453628447                  6.1632372158 ***
           1        8                  6.2883050744                  6.2861881409
 * Note: Onsite integrals marked "***" above are less accurate than
 * onsite_accuracy_threshold =    0.03000 eV. Usually, this is harmless.
 * When in doubt, tighten the "radial" and/or "radial_multiplier" flags to check.

  Preparing densities etc. for the partition functions (integrals / Hartree potential).

  Preparations completed.
  max(cpu_time)          :      0.124 s.
  Wall clock time (cpu1) :      0.124 s.
------------------------------------------------------------

------------------------------------------------------------
          Begin self-consistency loop: Initialization.

          Date     :  20190513, Time     :  143942.125
------------------------------------------------------------

  Initializing index lists of integration centers etc. from given atomic structure:
  Mapping all atomic coordinates to central unit cell.

  Initializing the k-points
          Using symmetry for reducing the k-points
  | k-points reduced from:     1728 to      868
  | Number of k-points                             :       868
  The eigenvectors in the calculations are COMPLEX.
  | K-points in task   0:       868
  | Number of basis functions in the Hamiltonian integrals :      1549
  | Number of basis functions in a single unit cell        :        36
  | Number of centers in hartree potential         :       830
  | Number of centers in hartree multipole         :       424
  | Number of centers in electron density summation:       302
  | Number of centers in basis integrals           :       312
  | Number of centers in integrals                 :       128
  | Number of centers in hamiltonian               :       302
  | Consuming       2359 KiB for k_phase.
  | Number of super-cells (origin) [n_cells]                     :        2197
  | Number of super-cells (after PM_index) [n_cells]             :         174
  | Number of super-cells in hamiltonian [n_cells_in_hamiltonian]:         174
  | Size of matrix packed + index [n_hamiltonian_matrix_size] :       62418
  Initializing relaxation algorithms.
  Partitioning the integration grid into batches with maxmin method.
  | Maximal weight for a single point:     1.000
  | Minimal weight for a single point:     0.733
  | Number of batches:      128
  | Maximal batch size:      90
  | Minimal batch size:      85
  | Average batch size:      87.562
  | Standard deviation of batch sizes:       1.493
  Initializing partition tables, free-atom densities, potentials, etc. across the integration grid (initialize_grid_storage).
  | initialize_grid_storage: Actual outermost partition radius vs. multipole_radius_free
  | (-- VB: in principle, multipole_radius_free should be larger, hence this output)
  | Species        1: Confinement radius =              4.999999999999999 AA, multipole_radius_free =              5.000694715736543 AA.
  | Species        1: outer_partition_radius set to              5.000694715736543 AA .
  | Original list of interatomic distances with         312 x        312 entries is created.
  | Net number of integration points:    11208
  | of which are non-zero points    :     9212
  | Numerical average free-atom electrostatic potential    :    -18.61250430 eV
  Renormalizing the initial density to the exact electron count on the 3D integration grid.
  | Initial density: Formal number of electrons (from input files) :      28.0000000000
  | Integrated number of electrons on 3D grid     :      28.0019407862
  | Charge integration error                      :       0.0019407862
  | Normalization factor for density and gradient :       0.9999306910
  Obtaining max. number of non-zero basis functions in each batch (get_n_compute_maxes).
  | Maximal number of non-zero basis functions:      631 in task     0
  Allocating        9.999 MB for KS_eigenvector_complex
  Integrating Hamiltonian matrix: batch-based integration.
  Time summed over all CPUs for integration: real work        0.961 s, elapsed        0.961 s
  Integrating overlap matrix.
  Time summed over all CPUs for integration: real work        0.707 s, elapsed        0.707 s
  Decreasing sparse matrix size:
   Tolerance:   9.9999998245167004E-014
   Hamiltonian matrix
  | Array has    56553 nonzero elements out of    62418 elements
  | Sparsity factor is 0.094
   Overlap matrix
  | Array has    51490 nonzero elements out of    62418 elements
  | Sparsity factor is 0.175
  New size of hamiltonian matrix:       56556

  Updating Kohn-Sham eigenvalues, eigenvectors, occupation numbers, and Fermi level.
  Solving generalized eigenproblem
  Transforming overlap matrix and checking for singularities.
  Overlap matrix is nonsingular at first k-point:
  | Lowest eigenvalue:  0.488318E-03

  Obtaining occupation numbers and chemical potential using ELSI.
  | Chemical potential (Fermi level):    -7.02844431eV
  Writing Kohn-Sham eigenvalues.
  K-point:       1 at    0.000000    0.000000    0.000000 (in units of recip. lattice)

  State    Occupation    Eigenvalue [Ha]    Eigenvalue [eV]
      1       2.00000         -65.535995        -1783.32517
      2       2.00000         -65.535995        -1783.32517
      3       2.00000          -5.141931         -139.91906
      4       2.00000          -5.140836         -139.88926
      5       2.00000          -3.556894          -96.78800
      6       2.00000          -3.555864          -96.75998
      7       2.00000          -3.555834          -96.75916
      8       2.00000          -3.554423          -96.72077
      9       2.00000          -3.554367          -96.71924
     10       2.00000          -3.554351          -96.71882
     11       2.00000          -0.793765          -21.59946
     12       2.00000          -0.282477           -7.68660
     13       2.00000          -0.281396           -7.65716
     14       0.00000          -0.216198           -5.88305
     15       0.00000          -0.194626           -5.29603
     16       0.00000          -0.192962           -5.25076
     17       0.00000          -0.126527           -3.44298
     18       0.00000           0.092478            2.51646
     19       0.00000           0.096185            2.61733
     20       0.00000           0.157588            4.28820

  What follows are estimated values for band gap, HOMO, LUMO, etc.
  | They are estimated on a discrete k-point grid and not necessarily exact.
  | For converged numbers, create a DOS and/or band structure plot on a denser k-grid.

  Highest occupied state (VBM) at     -7.03229285 eV (relative to internal zero)
  | Occupation number:      1.41374100
  | K-point:     727 at    0.666667    0.000000    0.916667 (in units of recip. lattice)

  Lowest unoccupied state (CBM) at    -7.02613836 eV (relative to internal zero)
  | Occupation number:      0.74434088
  | K-point:     735 at    0.666667    0.250000    0.583333 (in units of recip. lattice)

  ESTIMATED overall HOMO-LUMO gap:      0.00615448 eV between HOMO at k-point 727 and LUMO at k-point 735
  | This appears to be an indirect band gap.
  | Smallest direct gap :      0.78057486 eV for k_point 724 at    0.666667    0.250000    0.583333 (in units of recip. lattice)
  However, this system has fractional occupation numbers. Since we use a finite k-point grid,
  this material is metallic within the approximate finite broadening function (occupation_type)
  applied to determine the occupation numbers.
  Calculating total energy contributions from superposition of free atom densities.

  Total energy components:
  | Sum of eigenvalues            :        -329.16884200 Ha       -8957.13992501 eV
  | XC energy correction          :         -39.87382893 Ha       -1085.02209038 eV
  | XC potential correction       :          52.67834905 Ha        1433.45081087 eV
  | Free-atom electrostatic energy:        -262.31381332 Ha       -7137.92203392 eV
  | Hartree energy correction     :          -0.00000000 Ha          -0.00000000 eV
  | Entropy correction            :          -0.00000090 Ha          -0.00002460 eV
  | ---------------------------
  | Total energy                  :        -578.67813519 Ha      -15746.63323843 eV
  | Total energy, T -> 0          :        -578.67813610 Ha      -15746.63326303 eV  <-- do not rely on this value for anything but (periodic) metals
  | Electronic free energy        :        -578.67813700 Ha      -15746.63328763 eV

  Derived energy quantities:
  | Kinetic energy                :         580.34652455 Ha       15792.03242267 eV
  | Electrostatic energy          :       -1119.15083081 Ha      -30453.64357072 eV
  | Energy correction for multipole
  | error in Hartree potential    :           0.00000000 Ha           0.00000000 eV
  | Sum of eigenvalues per atom                           :       -4478.56996250 eV
  | Total energy (T->0) per atom                          :       -7873.31663152 eV  <-- do not rely on this value for anything but (periodic) metals
  | Electronic free energy per atom                       :       -7873.31664382 eV
  Initialize hartree_potential_storage
  Max. number of atoms included in rho_multipole:            2

  End scf initialization - timings             :  max(cpu_time)    wall_clock(cpu1)
  | Time for scf. initialization               :        3.156 s           3.156 s
  | Boundary condition initialization          :        0.037 s           0.038 s
  | Relaxation initialization                  :        0.001 s           0.001 s
  | Integration                                :        1.668 s           1.668 s
  | Solution of K.-S. eqns.                    :        1.122 s           1.122 s
  | Grid partitioning                          :        0.034 s           0.034 s
  | Preloading free-atom quantities on grid    :        0.001 s           0.001 s
  | Free-atom superposition energy             :        0.042 s           0.042 s
  | Total energy evaluation                    :        0.000 s           0.000 s

  Partial memory accounting:
  | Current value for overall tracked memory usage on task 0  :          11.131 MB
  | Peak value for overall tracked memory usage on task 0     :          15.796 MB after allocating wave
  | Largest tracked array allocation on task 0 so far         :           9.999 MB  when allocating +KS_eigenvector_complex
  Note:  These values currently only include a subset of arrays which are explicitly tracked.
  The "true" memory usage will be greater.
------------------------------------------------------------

------------------------------------------------------------
          Begin self-consistency iteration #    1

  Date     :  20190513, Time     :  143945.282
------------------------------------------------------------
  Evaluating new KS density using the density matrix
  Evaluating density matrix
  Time summed over all CPUs for getting density from density matrix: real work        1.641 s, elapsed        1.641 s
  Integration grid: deviation in total charge (<rho> - N_e) =   8.306245E-12
  Pulay mixing of updated and previous charge densities.

  Evaluating partitioned Hartree potential by multipole expansion.
  | Analytical far-field extrapolation by fixed multipoles:
  | Hartree multipole sum: apparent total charge =   0.213220E-02
  Summing up the Hartree potential.
  | Estimated reciprocal-space cutoff momentum G_max:         2.75249322 bohr^-1 .
  | Reciprocal lattice points for long-range Hartree potential:      68
  Time summed over all CPUs for potential: real work        0.354 s, elapsed        0.354 s
  | RMS charge density error from multipole expansion :   0.700548E-03
  | Average real-space part of the electrostatic potential :      0.01124817 eV

  Integrating Hamiltonian matrix: batch-based integration.
  Time summed over all CPUs for integration: real work        0.965 s, elapsed        0.965 s

  Updating Kohn-Sham eigenvalues, eigenvectors, occupation numbers, and Fermi level.
  Solving generalized eigenproblem

  Obtaining occupation numbers and chemical potential using ELSI.
  | Chemical potential (Fermi level):    -6.99393658eV
  Writing Kohn-Sham eigenvalues.
  K-point:       1 at    0.000000    0.000000    0.000000 (in units of recip. lattice)

  State    Occupation    Eigenvalue [Ha]    Eigenvalue [eV]
      1       2.00000         -65.534989        -1783.29778
      2       2.00000         -65.534989        -1783.29778
      3       2.00000          -5.140638         -139.88388
      4       2.00000          -5.139545         -139.85414
      5       2.00000          -3.555580          -96.75226
      6       2.00000          -3.554553          -96.72432
      7       2.00000          -3.554522          -96.72345
      8       2.00000          -3.553114          -96.68516
      9       2.00000          -3.553056          -96.68358
     10       2.00000          -3.553039          -96.68311
     11       2.00000          -0.792777          -21.57256
     12       2.00000          -0.281707           -7.66564
     13       2.00000          -0.280617           -7.63597
     14       0.00000          -0.214081           -5.82544
     15       0.00000          -0.193567           -5.26723
     16       0.00000          -0.191901           -5.22189
     17       0.00000          -0.127100           -3.45855
     18       0.00000           0.092841            2.52632
     19       0.00000           0.096552            2.62732
     20       0.00000           0.159578            4.34235

  What follows are estimated values for band gap, HOMO, LUMO, etc.
  | They are estimated on a discrete k-point grid and not necessarily exact.
  | For converged numbers, create a DOS and/or band structure plot on a denser k-grid.

  Highest occupied state (VBM) at     -6.99992190 eV (relative to internal zero)
  | Occupation number:      1.60269914
  | K-point:     515 at    0.416667    0.000000    0.916667 (in units of recip. lattice)

  Lowest unoccupied state (CBM) at    -6.98868420 eV (relative to internal zero)
  | Occupation number:      0.45760288
  | K-point:     727 at    0.666667    0.000000    0.916667 (in units of recip. lattice)

  ESTIMATED overall HOMO-LUMO gap:      0.01123770 eV between HOMO at k-point 515 and LUMO at k-point 727
  | This appears to be an indirect band gap.
  | Smallest direct gap :      0.80108811 eV for k_point 724 at    0.666667    0.000000    0.916667 (in units of recip. lattice)
  However, this system has fractional occupation numbers. Since we use a finite k-point grid,
  this material is metallic within the approximate finite broadening function (occupation_type)
  applied to determine the occupation numbers.

  Total energy components:
  | Sum of eigenvalues            :        -329.13617310 Ha       -8956.25095922 eV
  | XC energy correction          :         -39.87710875 Ha       -1085.11133907 eV
  | XC potential correction       :          52.68268365 Ha        1433.56876135 eV
  | Free-atom electrostatic energy:        -262.31381332 Ha       -7137.92203392 eV
  | Hartree energy correction     :          -0.03179257 Ha          -0.86511987 eV
  | Entropy correction            :          -0.00000034 Ha          -0.00000926 eV
  | ---------------------------
  | Total energy                  :        -578.67620410 Ha      -15746.58069072 eV
  | Total energy, T -> 0          :        -578.67620444 Ha      -15746.58069998 eV  <-- do not rely on this value for anything but (periodic) metals
  | Electronic free energy        :        -578.67620478 Ha      -15746.58070924 eV

  Derived energy quantities:
  | Kinetic energy                :         580.31509844 Ha       15791.17727469 eV
  | Electrostatic energy          :       -1119.11419378 Ha      -30452.64662634 eV
  | Energy correction for multipole
  | error in Hartree potential    :           0.00030674 Ha           0.00834694 eV
  | Sum of eigenvalues per atom                           :       -4478.12547961 eV
  | Total energy (T->0) per atom                          :       -7873.29034999 eV  <-- do not rely on this value for anything but (periodic) metals
  | Electronic free energy per atom                       :       -7873.29035462 eV

  Self-consistency convergence accuracy:
  | Change of charge density      :  0.1270E+00
  | Change of sum of eigenvalues  :  0.8890E+00 eV
  | Change of total energy        :  0.5255E-01 eV

  End self-consistency iteration #     1       :  max(cpu_time)    wall_clock(cpu1)
  | Time for this iteration                    :        3.712 s           3.712 s
  | Charge density update                      :        1.733 s           1.732 s
  | Density mixing & preconditioning           :        0.056 s           0.057 s
  | Hartree multipole update                   :        0.001 s           0.001 s
  | Hartree multipole summation                :        0.359 s           0.359 s
  | Integration                                :        0.966 s           0.965 s
  | Solution of K.-S. eqns.                    :        0.597 s           0.597 s
  | Total energy evaluation                    :        0.000 s           0.001 s

  Partial memory accounting:
  | Current value for overall tracked memory usage on task 0  :          11.131 MB
  | Peak value for overall tracked memory usage on task 0     :          15.796 MB after allocating wave
  | Largest tracked array allocation on task 0 so far         :           9.999 MB  when allocating +KS_eigenvector_complex
  Note:  These values currently only include a subset of arrays which are explicitly tracked.
  The "true" memory usage will be greater.
------------------------------------------------------------

------------------------------------------------------------
          Begin self-consistency iteration #    2

  Date     :  20190513, Time     :  143948.994
------------------------------------------------------------
  Evaluating new KS density using the density matrix
  Evaluating density matrix
  Time summed over all CPUs for getting density from density matrix: real work        1.621 s, elapsed        1.621 s
  Integration grid: deviation in total charge (<rho> - N_e) =   8.398615E-12
  Pulay mixing of updated and previous charge densities.

  Evaluating partitioned Hartree potential by multipole expansion.
  | Analytical far-field extrapolation by fixed multipoles:
  | Hartree multipole sum: apparent total charge =   0.477529E-02
  Summing up the Hartree potential.
  Time summed over all CPUs for potential: real work        0.419 s, elapsed        0.419 s
  | RMS charge density error from multipole expansion :   0.104755E-01
  | Average real-space part of the electrostatic potential :      0.29401586 eV

  Integrating Hamiltonian matrix: batch-based integration.
  Time summed over all CPUs for integration: real work        0.962 s, elapsed        0.962 s

  Updating Kohn-Sham eigenvalues, eigenvectors, occupation numbers, and Fermi level.
  Solving generalized eigenproblem

  Obtaining occupation numbers and chemical potential using ELSI.
  | Chemical potential (Fermi level):    -6.59339978eV
  What follows are estimated values for band gap, HOMO, LUMO, etc.
  | They are estimated on a discrete k-point grid and not necessarily exact.
  | For converged numbers, create a DOS and/or band structure plot on a denser k-grid.

  Highest occupied state (VBM) at     -6.59393258 eV (relative to internal zero)
  | Occupation number:      1.06006232
  | K-point:     654 at    0.500000    0.333333    0.583333 (in units of recip. lattice)

  Lowest unoccupied state (CBM) at    -6.59195568 eV (relative to internal zero)
  | Occupation number:      0.83817653
  | K-point:     567 at    0.416667    0.500000    0.666667 (in units of recip. lattice)

  ESTIMATED overall HOMO-LUMO gap:      0.00197689 eV between HOMO at k-point 654 and LUMO at k-point 567
  | This appears to be an indirect band gap.
  | Smallest direct gap :      1.08241183 eV for k_point 516 at    0.416667    0.500000    0.666667 (in units of recip. lattice)
  However, this system has fractional occupation numbers. Since we use a finite k-point grid,
  this material is metallic within the approximate finite broadening function (occupation_type)
  applied to determine the occupation numbers.

  Checking to see if s.c.f. parameters should be adjusted.
  Adjusted the Pulay mixing parameter (charge_mix_param) for an expected low-gap system. New value:   0.020000 .
  Adjusted the occupation broadening width for an expected low-gap system. New value:      0.05000000 eV.

  Total energy components:
  | Sum of eigenvalues            :        -328.37485515 Ha       -8935.53444356 eV
  | XC energy correction          :         -39.92988612 Ha       -1086.54748420 eV
  | XC potential correction       :          52.75240201 Ha        1435.46589452 eV
  | Free-atom electrostatic energy:        -262.31381332 Ha       -7137.92203392 eV
  | Hartree energy correction     :          -0.79891663 Ha         -21.73962770 eV
  | Entropy correction            :          -0.00001962 Ha          -0.00053401 eV
  | ---------------------------
  | Total energy                  :        -578.66506920 Ha      -15746.27769485 eV
  | Total energy, T -> 0          :        -578.66508883 Ha      -15746.27822887 eV  <-- do not rely on this value for anything but (periodic) metals
  | Electronic free energy        :        -578.66510845 Ha      -15746.27876288 eV

  Derived energy quantities:
  | Kinetic energy                :         580.67317812 Ha       15800.92111854 eV
  | Electrostatic energy          :       -1119.40836120 Ha      -30460.65132920 eV
  | Energy correction for multipole
  | error in Hartree potential    :           0.00446099 Ha           0.12138980 eV
  | Sum of eigenvalues per atom                           :       -4467.76722178 eV
  | Total energy (T->0) per atom                          :       -7873.13911443 eV  <-- do not rely on this value for anything but (periodic) metals
  | Electronic free energy per atom                       :       -7873.13938144 eV

  Self-consistency convergence accuracy:
  | Change of charge density      :  0.1190E+00
  | Change of sum of eigenvalues  :  0.2072E+02 eV
  | Change of total energy        :  0.3030E+00 eV

  End self-consistency iteration #     2       :  max(cpu_time)    wall_clock(cpu1)
  | Time for this iteration                    :        3.762 s           3.762 s
  | Charge density update                      :        1.712 s           1.712 s
  | Density mixing & preconditioning           :        0.056 s           0.056 s
  | Hartree multipole update                   :        0.001 s           0.001 s
  | Hartree multipole summation                :        0.425 s           0.425 s
  | Integration                                :        0.962 s           0.962 s
  | Solution of K.-S. eqns.                    :        0.606 s           0.605 s
  | Total energy evaluation                    :        0.000 s           0.000 s

  Partial memory accounting:
  | Current value for overall tracked memory usage on task 0  :          11.132 MB
  | Peak value for overall tracked memory usage on task 0     :          15.796 MB after allocating wave
  | Largest tracked array allocation on task 0 so far         :           9.999 MB  when allocating +KS_eigenvector_complex
  Note:  These values currently only include a subset of arrays which are explicitly tracked.
  The "true" memory usage will be greater.
------------------------------------------------------------

------------------------------------------------------------
          Begin self-consistency iteration #    3

  Date     :  20190513, Time     :  143952.756
------------------------------------------------------------
  Evaluating new KS density using the density matrix
  Evaluating density matrix
  Time summed over all CPUs for getting density from density matrix: real work        1.617 s, elapsed        1.617 s
  Integration grid: deviation in total charge (<rho> - N_e) =   8.352430E-12
  Pulay mixing of updated and previous charge densities.

  Evaluating partitioned Hartree potential by multipole expansion.
  | Analytical far-field extrapolation by fixed multipoles:
  | Hartree multipole sum: apparent total charge =   0.456840E-02
  Summing up the Hartree potential.
  Time summed over all CPUs for potential: real work        0.419 s, elapsed        0.419 s
  | RMS charge density error from multipole expansion :   0.100185E-01
  | Average real-space part of the electrostatic potential :      0.27776266 eV

  Integrating Hamiltonian matrix: batch-based integration.
  Time summed over all CPUs for integration: real work        0.980 s, elapsed        0.980 s

  Updating Kohn-Sham eigenvalues, eigenvectors, occupation numbers, and Fermi level.
  Solving generalized eigenproblem

  Obtaining occupation numbers and chemical potential using ELSI.
  | Chemical potential (Fermi level):    -6.60612940eV
  What follows are estimated values for band gap, HOMO, LUMO, etc.
  | They are estimated on a discrete k-point grid and not necessarily exact.
  | For converged numbers, create a DOS and/or band structure plot on a denser k-grid.

  Highest occupied state (VBM) at     -6.60777247 eV (relative to internal zero)
  | Occupation number:      1.03706681
  | K-point:     129 at    0.083333    0.500000    0.000000 (in units of recip. lattice)

  Lowest unoccupied state (CBM) at    -6.60156295 eV (relative to internal zero)
  | Occupation number:      0.89723204
  | K-point:     468 at    0.333333    0.583333    0.666667 (in units of recip. lattice)

  ESTIMATED overall HOMO-LUMO gap:      0.00620952 eV between HOMO at k-point 129 and LUMO at k-point 468
  | This appears to be an indirect band gap.
  | Smallest direct gap :      1.06012209 eV for k_point 516 at    0.333333    0.583333    0.666667 (in units of recip. lattice)
  However, this system has fractional occupation numbers. Since we use a finite k-point grid,
  this material is metallic within the approximate finite broadening function (occupation_type)
  applied to determine the occupation numbers.

  Total energy components:
  | Sum of eigenvalues            :        -328.42426919 Ha       -8936.87906802 eV
  | XC energy correction          :         -39.92619244 Ha       -1086.44697419 eV
  | XC potential correction       :          52.74752261 Ha        1435.33311905 eV
  | Free-atom electrostatic energy:        -262.31381332 Ha       -7137.92203392 eV
  | Hartree energy correction     :          -0.74798680 Ha         -20.35375648 eV
  | Entropy correction            :          -0.00002004 Ha          -0.00054533 eV
  | ---------------------------
  | Total energy                  :        -578.66473915 Ha      -15746.26871356 eV
  | Total energy, T -> 0          :        -578.66475919 Ha      -15746.26925889 eV  <-- do not rely on this value for anything but (periodic) metals
  | Electronic free energy        :        -578.66477923 Ha      -15746.26980422 eV

  Derived energy quantities:
  | Kinetic energy                :         580.64846635 Ha       15800.24867717 eV
  | Electrostatic energy          :       -1119.38701305 Ha      -30460.07041653 eV
  | Energy correction for multipole
  | error in Hartree potential    :           0.00424949 Ha           0.11563455 eV
  | Sum of eigenvalues per atom                           :       -4468.43953401 eV
  | Total energy (T->0) per atom                          :       -7873.13462944 eV  <-- do not rely on this value for anything but (periodic) metals
  | Electronic free energy per atom                       :       -7873.13490211 eV

  Self-consistency convergence accuracy:
  | Change of charge density      :  0.2885E-01
  | Change of sum of eigenvalues  : -0.1345E+01 eV
  | Change of total energy        :  0.8981E-02 eV

  End self-consistency iteration #     3       :  max(cpu_time)    wall_clock(cpu1)
  | Time for this iteration                    :        3.780 s           3.780 s
  | Charge density update                      :        1.708 s           1.708 s
  | Density mixing & preconditioning           :        0.052 s           0.051 s
  | Hartree multipole update                   :        0.001 s           0.001 s
  | Hartree multipole summation                :        0.425 s           0.425 s
  | Integration                                :        0.980 s           0.980 s
  | Solution of K.-S. eqns.                    :        0.614 s           0.614 s
  | Total energy evaluation                    :        0.000 s           0.001 s

  Partial memory accounting:
  | Current value for overall tracked memory usage on task 0  :          11.132 MB
  | Peak value for overall tracked memory usage on task 0     :          15.796 MB after allocating wave
  | Largest tracked array allocation on task 0 so far         :           9.999 MB  when allocating +KS_eigenvector_complex
  Note:  These values currently only include a subset of arrays which are explicitly tracked.
  The "true" memory usage will be greater.
------------------------------------------------------------

------------------------------------------------------------
          Begin self-consistency iteration #    4

  Date     :  20190513, Time     :  143956.536
------------------------------------------------------------
  Evaluating new KS density using the density matrix
  Evaluating density matrix
  Time summed over all CPUs for getting density from density matrix: real work        1.625 s, elapsed        1.625 s
  Integration grid: deviation in total charge (<rho> - N_e) =   8.334666E-12
  Pulay mixing of updated and previous charge densities.

  Evaluating partitioned Hartree potential by multipole expansion.
  | Analytical far-field extrapolation by fixed multipoles:
  | Hartree multipole sum: apparent total charge =   0.396233E-02
  Summing up the Hartree potential.
  Time summed over all CPUs for potential: real work        0.419 s, elapsed        0.419 s
  | RMS charge density error from multipole expansion :   0.124279E-01
  | Average real-space part of the electrostatic potential :      0.30325890 eV

  Integrating Hamiltonian matrix: batch-based integration.
  Time summed over all CPUs for integration: real work        0.962 s, elapsed        0.962 s

  Updating Kohn-Sham eigenvalues, eigenvectors, occupation numbers, and Fermi level.
  Solving generalized eigenproblem

  Obtaining occupation numbers and chemical potential using ELSI.
  | Chemical potential (Fermi level):    -6.59775830eV
  What follows are estimated values for band gap, HOMO, LUMO, etc.
  | They are estimated on a discrete k-point grid and not necessarily exact.
  | For converged numbers, create a DOS and/or band structure plot on a denser k-grid.

  Highest occupied state (VBM) at     -6.60159610 eV (relative to internal zero)
  | Occupation number:      1.08643997
  | K-point:     491 at    0.333333    0.833333    0.250000 (in units of recip. lattice)

  Lowest unoccupied state (CBM) at    -6.59442500 eV (relative to internal zero)
  | Occupation number:      0.92488662
  | K-point:     809 at    0.833333    0.333333    0.250000 (in units of recip. lattice)

  ESTIMATED overall HOMO-LUMO gap:      0.00717110 eV between HOMO at k-point 491 and LUMO at k-point 809
  | This appears to be an indirect band gap.
  | Smallest direct gap :      0.97851790 eV for k_point 516 at    0.833333    0.333333    0.250000 (in units of recip. lattice)
  However, this system has fractional occupation numbers. Since we use a finite k-point grid,
  this material is metallic within the approximate finite broadening function (occupation_type)
  applied to determine the occupation numbers.

  Total energy components:
  | Sum of eigenvalues            :        -328.43872281 Ha       -8937.27237115 eV
  | XC energy correction          :         -39.92793280 Ha       -1086.49433183 eV
  | XC potential correction       :          52.74979594 Ha        1435.39497953 eV
  | Free-atom electrostatic energy:        -262.31381332 Ha       -7137.92203392 eV
  | Hartree energy correction     :          -0.73365320 Ha         -19.96371919 eV
  | Entropy correction            :          -0.00002174 Ha          -0.00059148 eV
  | ---------------------------
  | Total energy                  :        -578.66432620 Ha      -15746.25747655 eV
  | Total energy, T -> 0          :        -578.66434793 Ha      -15746.25806804 eV  <-- do not rely on this value for anything but (periodic) metals
  | Electronic free energy        :        -578.66436967 Ha      -15746.25865952 eV

  Derived energy quantities:
  | Kinetic energy                :         580.59861036 Ha       15798.89202661 eV
  | Electrostatic energy          :       -1119.33500375 Ha      -30458.65517134 eV
  | Energy correction for multipole
  | error in Hartree potential    :           0.00494590 Ha           0.13458481 eV
  | Sum of eigenvalues per atom                           :       -4468.63618557 eV
  | Total energy (T->0) per atom                          :       -7873.12903402 eV  <-- do not rely on this value for anything but (periodic) metals
  | Electronic free energy per atom                       :       -7873.12932976 eV

  Self-consistency convergence accuracy:
  | Change of charge density      :  0.2698E-01
  | Change of sum of eigenvalues  : -0.3933E+00 eV
  | Change of total energy        :  0.1124E-01 eV

  End self-consistency iteration #     4       :  max(cpu_time)    wall_clock(cpu1)
  | Time for this iteration                    :        3.757 s           3.757 s
  | Charge density update                      :        1.714 s           1.714 s
  | Density mixing & preconditioning           :        0.052 s           0.052 s
  | Hartree multipole update                   :        0.001 s           0.001 s
  | Hartree multipole summation                :        0.425 s           0.425 s
  | Integration                                :        0.962 s           0.962 s
  | Solution of K.-S. eqns.                    :        0.603 s           0.603 s
  | Total energy evaluation                    :        0.000 s           0.000 s

  Partial memory accounting:
  | Current value for overall tracked memory usage on task 0  :          11.132 MB
  | Peak value for overall tracked memory usage on task 0     :          15.796 MB after allocating wave
  | Largest tracked array allocation on task 0 so far         :           9.999 MB  when allocating +KS_eigenvector_complex
  Note:  These values currently only include a subset of arrays which are explicitly tracked.
  The "true" memory usage will be greater.
------------------------------------------------------------

------------------------------------------------------------
          Begin self-consistency iteration #    5

  Date     :  20190513, Time     :  144000.293
------------------------------------------------------------
  Evaluating new KS density using the density matrix
  Evaluating density matrix
  Time summed over all CPUs for getting density from density matrix: real work        1.628 s, elapsed        1.628 s
  Integration grid: deviation in total charge (<rho> - N_e) =   8.405721E-12
  Pulay mixing of updated and previous charge densities.

  Evaluating partitioned Hartree potential by multipole expansion.
  | Analytical far-field extrapolation by fixed multipoles:
  | Hartree multipole sum: apparent total charge =   0.359271E-02
  Summing up the Hartree potential.
  Time summed over all CPUs for potential: real work        0.420 s, elapsed        0.420 s
  | RMS charge density error from multipole expansion :   0.123426E-01
  | Average real-space part of the electrostatic potential :      0.29350333 eV

  Integrating Hamiltonian matrix: batch-based integration.
  Time summed over all CPUs for integration: real work        0.963 s, elapsed        0.963 s

  Updating Kohn-Sham eigenvalues, eigenvectors, occupation numbers, and Fermi level.
  Solving generalized eigenproblem

  Obtaining occupation numbers and chemical potential using ELSI.
  | Chemical potential (Fermi level):    -6.61329572eV
  What follows are estimated values for band gap, HOMO, LUMO, etc.
  | They are estimated on a discrete k-point grid and not necessarily exact.
  | For converged numbers, create a DOS and/or band structure plot on a denser k-grid.

  Highest occupied state (VBM) at     -6.61457288 eV (relative to internal zero)
  | Occupation number:      1.02881622
  | K-point:     120 at    0.083333    0.416667    0.000000 (in units of recip. lattice)

  Lowest unoccupied state (CBM) at    -6.61065204 eV (relative to internal zero)
  | Occupation number:      0.94039423
  | K-point:     864 at    0.916667    0.833333    0.583333 (in units of recip. lattice)

  ESTIMATED overall HOMO-LUMO gap:      0.00392084 eV between HOMO at k-point 120 and LUMO at k-point 864
  | This appears to be an indirect band gap.
  | Smallest direct gap :      0.95753635 eV for k_point 724 at    0.916667    0.833333    0.583333 (in units of recip. lattice)
  However, this system has fractional occupation numbers. Since we use a finite k-point grid,
  this material is metallic within the approximate finite broadening function (occupation_type)
  applied to determine the occupation numbers.

  Total energy components:
  | Sum of eigenvalues            :        -328.48027281 Ha       -8938.40300411 eV
  | XC energy correction          :         -39.92516051 Ha       -1086.41889381 eV
  | XC potential correction       :          52.74612952 Ha        1435.29521126 eV
  | Free-atom electrostatic energy:        -262.31381332 Ha       -7137.92203392 eV
  | Hartree energy correction     :          -0.69113417 Ha         -18.80671777 eV
  | Entropy correction            :          -0.00001869 Ha          -0.00050859 eV
  | ---------------------------
  | Total energy                  :        -578.66425129 Ha      -15746.25543835 eV
  | Total energy, T -> 0          :        -578.66426998 Ha      -15746.25594694 eV  <-- do not rely on this value for anything but (periodic) metals
  | Electronic free energy        :        -578.66428867 Ha      -15746.25645553 eV

  Derived energy quantities:
  | Kinetic energy                :         580.57193273 Ha       15798.16609140 eV
  | Electrostatic energy          :       -1119.31102351 Ha      -30458.00263595 eV
  | Energy correction for multipole
  | error in Hartree potential    :           0.00486109 Ha           0.13227690 eV
  | Sum of eigenvalues per atom                           :       -4469.20150206 eV
  | Total energy (T->0) per atom                          :       -7873.12797347 eV  <-- do not rely on this value for anything but (periodic) metals
  | Electronic free energy per atom                       :       -7873.12822776 eV

  Self-consistency convergence accuracy:
  | Change of charge density      :  0.8194E-02
  | Change of sum of eigenvalues  : -0.1131E+01 eV
  | Change of total energy        :  0.2038E-02 eV

  End self-consistency iteration #     5       :  max(cpu_time)    wall_clock(cpu1)
  | Time for this iteration                    :        3.766 s           3.767 s
  | Charge density update                      :        1.729 s           1.729 s
  | Density mixing & preconditioning           :        0.050 s           0.050 s
  | Hartree multipole update                   :        0.001 s           0.001 s
  | Hartree multipole summation                :        0.426 s           0.426 s
  | Integration                                :        0.962 s           0.963 s
  | Solution of K.-S. eqns.                    :        0.598 s           0.597 s
  | Total energy evaluation                    :        0.000 s           0.001 s

  Partial memory accounting:
  | Current value for overall tracked memory usage on task 0  :          11.133 MB
  | Peak value for overall tracked memory usage on task 0     :          15.796 MB after allocating wave
  | Largest tracked array allocation on task 0 so far         :           9.999 MB  when allocating +KS_eigenvector_complex
  Note:  These values currently only include a subset of arrays which are explicitly tracked.
  The "true" memory usage will be greater.
------------------------------------------------------------

------------------------------------------------------------
          Begin self-consistency iteration #    6

  Date     :  20190513, Time     :  144004.060
------------------------------------------------------------
  Evaluating new KS density using the density matrix
  Evaluating density matrix
  Time summed over all CPUs for getting density from density matrix: real work        1.634 s, elapsed        1.634 s
  Integration grid: deviation in total charge (<rho> - N_e) =   8.380852E-12
  Pulay mixing of updated and previous charge densities.

  Evaluating partitioned Hartree potential by multipole expansion.
  | Analytical far-field extrapolation by fixed multipoles:
  | Hartree multipole sum: apparent total charge =  -0.215046E-03
  Summing up the Hartree potential.
  Time summed over all CPUs for potential: real work        0.423 s, elapsed        0.423 s
  | RMS charge density error from multipole expansion :   0.124412E-01
  | Average real-space part of the electrostatic potential :      0.29088346 eV

  Integrating Hamiltonian matrix: batch-based integration.
  Time summed over all CPUs for integration: real work        0.965 s, elapsed        0.965 s

  Updating Kohn-Sham eigenvalues, eigenvectors, occupation numbers, and Fermi level.
  Solving generalized eigenproblem

  Obtaining occupation numbers and chemical potential using ELSI.
  | Chemical potential (Fermi level):    -6.61551653eV
  What follows are estimated values for band gap, HOMO, LUMO, etc.
  | They are estimated on a discrete k-point grid and not necessarily exact.
  | For converged numbers, create a DOS and/or band structure plot on a denser k-grid.

  Highest occupied state (VBM) at     -6.61849970 eV (relative to internal zero)
  | Occupation number:      1.06724325
  | K-point:     203 at    0.166667    0.166667    0.250000 (in units of recip. lattice)

  Lowest unoccupied state (CBM) at    -6.61407744 eV (relative to internal zero)
  | Occupation number:      0.96753215
  | K-point:     516 at    0.416667    0.083333    0.000000 (in units of recip. lattice)

  ESTIMATED overall HOMO-LUMO gap:      0.00442227 eV between HOMO at k-point 203 and LUMO at k-point 516
  | This appears to be an indirect band gap.
  | Smallest direct gap :      0.98289270 eV for k_point 516 at    0.416667    0.083333    0.000000 (in units of recip. lattice)
  However, this system has fractional occupation numbers. Since we use a finite k-point grid,
  this material is metallic within the approximate finite broadening function (occupation_type)
  applied to determine the occupation numbers.

  Total energy components:
  | Sum of eigenvalues            :        -328.54877156 Ha       -8940.26694981 eV
  | XC energy correction          :         -39.92084641 Ha       -1086.30150119 eV
  | XC potential correction       :          52.74039059 Ha        1435.13904701 eV
  | Free-atom electrostatic energy:        -262.31381332 Ha       -7137.92203392 eV
  | Hartree energy correction     :          -0.62117783 Ha         -16.90310873 eV
  | Entropy correction            :          -0.00001994 Ha          -0.00054268 eV
  | ---------------------------
  | Total energy                  :        -578.66421852 Ha      -15746.25454664 eV
  | Total energy, T -> 0          :        -578.66423847 Ha      -15746.25508932 eV  <-- do not rely on this value for anything but (periodic) metals
  | Electronic free energy        :        -578.66425841 Ha      -15746.25563200 eV

  Derived energy quantities:
  | Kinetic energy                :         580.50534051 Ha       15796.35402502 eV
  | Electrostatic energy          :       -1119.24871263 Ha      -30456.30707047 eV
  | Energy correction for multipole
  | error in Hartree potential    :           0.00494132 Ha           0.13446008 eV
  | Sum of eigenvalues per atom                           :       -4470.13347491 eV
  | Total energy (T->0) per atom                          :       -7873.12754466 eV  <-- do not rely on this value for anything but (periodic) metals
  | Electronic free energy per atom                       :       -7873.12781600 eV

  Self-consistency convergence accuracy:
  | Change of charge density      :  0.5467E-02
  | Change of sum of eigenvalues  : -0.1864E+01 eV
  | Change of total energy        :  0.8917E-03 eV

  End self-consistency iteration #     6       :  max(cpu_time)    wall_clock(cpu1)
  | Time for this iteration                    :        3.773 s           3.773 s
  | Charge density update                      :        1.725 s           1.724 s
  | Density mixing & preconditioning           :        0.050 s           0.051 s
  | Hartree multipole update                   :        0.001 s           0.001 s
  | Hartree multipole summation                :        0.429 s           0.429 s
  | Integration                                :        0.965 s           0.966 s
  | Solution of K.-S. eqns.                    :        0.601 s           0.601 s
  | Total energy evaluation                    :        0.000 s           0.000 s

  Partial memory accounting:
  | Current value for overall tracked memory usage on task 0  :          11.133 MB
  | Peak value for overall tracked memory usage on task 0     :          15.796 MB after allocating wave
  | Largest tracked array allocation on task 0 so far         :           9.999 MB  when allocating +KS_eigenvector_complex
  Note:  These values currently only include a subset of arrays which are explicitly tracked.
  The "true" memory usage will be greater.
------------------------------------------------------------

------------------------------------------------------------
          Begin self-consistency iteration #    7

  Date     :  20190513, Time     :  144007.833
------------------------------------------------------------
  Evaluating new KS density using the density matrix
  Evaluating density matrix
  Time summed over all CPUs for getting density from density matrix: real work        1.616 s, elapsed        1.616 s
  Integration grid: deviation in total charge (<rho> - N_e) =   8.334666E-12
  Pulay mixing of updated and previous charge densities.

  Evaluating partitioned Hartree potential by multipole expansion.
  | Analytical far-field extrapolation by fixed multipoles:
  | Hartree multipole sum: apparent total charge =  -0.191937E-02
  Summing up the Hartree potential.
  Time summed over all CPUs for potential: real work        0.420 s, elapsed        0.420 s
  | RMS charge density error from multipole expansion :   0.123062E-01
  | Average real-space part of the electrostatic potential :      0.28005779 eV

  Integrating Hamiltonian matrix: batch-based integration.
  Time summed over all CPUs for integration: real work        0.971 s, elapsed        0.971 s

  Updating Kohn-Sham eigenvalues, eigenvectors, occupation numbers, and Fermi level.
  Solving generalized eigenproblem

  Obtaining occupation numbers and chemical potential using ELSI.
  | Chemical potential (Fermi level):    -6.63154109eV
  What follows are estimated values for band gap, HOMO, LUMO, etc.
  | They are estimated on a discrete k-point grid and not necessarily exact.
  | For converged numbers, create a DOS and/or band structure plot on a denser k-grid.

  Highest occupied state (VBM) at     -6.63207793 eV (relative to internal zero)
  | Occupation number:      1.01211464
  | K-point:     121 at    0.083333    0.416667    0.166667 (in units of recip. lattice)

  Lowest unoccupied state (CBM) at    -6.62470962 eV (relative to internal zero)
  | Occupation number:      0.84678402
  | K-point:     691 at    0.583333    0.000000    0.916667 (in units of recip. lattice)

  ESTIMATED overall HOMO-LUMO gap:      0.00736832 eV between HOMO at k-point 121 and LUMO at k-point 691
  | This appears to be an indirect band gap.
  | Smallest direct gap :      0.97591339 eV for k_point 724 at    0.583333    0.000000    0.916667 (in units of recip. lattice)
  However, this system has fractional occupation numbers. Since we use a finite k-point grid,
  this material is metallic within the approximate finite broadening function (occupation_type)
  applied to determine the occupation numbers.

  Total energy components:
  | Sum of eigenvalues            :        -328.61077091 Ha       -8941.95403807 eV
  | XC energy correction          :         -39.91671417 Ha       -1086.18905722 eV
  | XC potential correction       :          52.73491475 Ha        1434.99004190 eV
  | Free-atom electrostatic energy:        -262.31381332 Ha       -7137.92203392 eV
  | Hartree energy correction     :          -0.55780925 Ha         -15.17876191 eV
  | Entropy correction            :          -0.00001737 Ha          -0.00047266 eV
  | ---------------------------
  | Total energy                  :        -578.66419289 Ha      -15746.25384922 eV
  | Total energy, T -> 0          :        -578.66421026 Ha      -15746.25432187 eV  <-- do not rely on this value for anything but (periodic) metals
  | Electronic free energy        :        -578.66422763 Ha      -15746.25479453 eV

  Derived energy quantities:
  | Kinetic energy                :         580.45951386 Ha       15795.10701844 eV
  | Electrostatic energy          :       -1119.20699259 Ha      -30455.17181044 eV
  | Energy correction for multipole
  | error in Hartree potential    :           0.00486969 Ha           0.13251100 eV
  | Sum of eigenvalues per atom                           :       -4470.97701904 eV
  | Total energy (T->0) per atom                          :       -7873.12716094 eV  <-- do not rely on this value for anything but (periodic) metals
  | Electronic free energy per atom                       :       -7873.12739726 eV

  Self-consistency convergence accuracy:
  | Change of charge density      :  0.3394E-02
  | Change of sum of eigenvalues  : -0.1687E+01 eV
  | Change of total energy        :  0.6974E-03 eV

  End self-consistency iteration #     7       :  max(cpu_time)    wall_clock(cpu1)
  | Time for this iteration                    :        3.752 s           3.752 s
  | Charge density update                      :        1.706 s           1.706 s
  | Density mixing & preconditioning           :        0.051 s           0.050 s
  | Hartree multipole update                   :        0.001 s           0.001 s
  | Hartree multipole summation                :        0.425 s           0.426 s
  | Integration                                :        0.971 s           0.971 s
  | Solution of K.-S. eqns.                    :        0.598 s           0.598 s
  | Total energy evaluation                    :        0.000 s           0.000 s

  Partial memory accounting:
  | Current value for overall tracked memory usage on task 0  :          11.133 MB
  | Peak value for overall tracked memory usage on task 0     :          15.796 MB after allocating wave
  | Largest tracked array allocation on task 0 so far         :           9.999 MB  when allocating +KS_eigenvector_complex
  Note:  These values currently only include a subset of arrays which are explicitly tracked.
  The "true" memory usage will be greater.
------------------------------------------------------------

------------------------------------------------------------
          Begin self-consistency iteration #    8

  Date     :  20190513, Time     :  144011.585
------------------------------------------------------------
  Evaluating new KS density using the density matrix
  Evaluating density matrix
  Time summed over all CPUs for getting density from density matrix: real work        1.619 s, elapsed        1.619 s
  Integration grid: deviation in total charge (<rho> - N_e) =   8.309797E-12
  Pulay mixing of updated and previous charge densities.

  Evaluating partitioned Hartree potential by multipole expansion.
  | Analytical far-field extrapolation by fixed multipoles:
  | Hartree multipole sum: apparent total charge =  -0.795403E-03
  Summing up the Hartree potential.
  Time summed over all CPUs for potential: real work        0.427 s, elapsed        0.427 s
  | RMS charge density error from multipole expansion :   0.123668E-01
  | Average real-space part of the electrostatic potential :      0.28075141 eV

  Integrating Hamiltonian matrix: batch-based integration.
  Time summed over all CPUs for integration: real work        0.960 s, elapsed        0.960 s

  Updating Kohn-Sham eigenvalues, eigenvectors, occupation numbers, and Fermi level.
  Solving generalized eigenproblem

  Obtaining occupation numbers and chemical potential using ELSI.
  | Chemical potential (Fermi level):    -6.62771904eV
  What follows are estimated values for band gap, HOMO, LUMO, etc.
  | They are estimated on a discrete k-point grid and not necessarily exact.
  | For converged numbers, create a DOS and/or band structure plot on a denser k-grid.

  Highest occupied state (VBM) at     -6.62795849 eV (relative to internal zero)
  | Occupation number:      1.00540374
  | K-point:     120 at    0.083333    0.416667    0.000000 (in units of recip. lattice)

  Lowest unoccupied state (CBM) at    -6.61956040 eV (relative to internal zero)
  | Occupation number:      0.81750034
  | K-point:     691 at    0.583333    0.000000    0.916667 (in units of recip. lattice)

  ESTIMATED overall HOMO-LUMO gap:      0.00839809 eV between HOMO at k-point 120 and LUMO at k-point 691
  | This appears to be an indirect band gap.
  | Smallest direct gap :      0.97591062 eV for k_point 724 at    0.583333    0.000000    0.916667 (in units of recip. lattice)
  However, this system has fractional occupation numbers. Since we use a finite k-point grid,
  this material is metallic within the approximate finite broadening function (occupation_type)
  applied to determine the occupation numbers.

  Total energy components:
  | Sum of eigenvalues            :        -328.59111184 Ha       -8941.41908750 eV
  | XC energy correction          :         -39.91826345 Ha       -1086.23121522 eV
  | XC potential correction       :          52.73697606 Ha        1435.04613306 eV
  | Free-atom electrostatic energy:        -262.31381332 Ha       -7137.92203392 eV
  | Hartree energy correction     :          -0.57797652 Ha         -15.72754127 eV
  | Entropy correction            :          -0.00001778 Ha          -0.00048382 eV
  | ---------------------------
  | Total energy                  :        -578.66418906 Ha      -15746.25374485 eV
  | Total energy, T -> 0          :        -578.66420684 Ha      -15746.25422867 eV  <-- do not rely on this value for anything but (periodic) metals
  | Electronic free energy        :        -578.66422462 Ha      -15746.25471249 eV

  Derived energy quantities:
  | Kinetic energy                :         580.48592675 Ha       15795.82574974 eV
  | Electrostatic energy          :       -1119.23185237 Ha      -30455.84827937 eV
  | Energy correction for multipole
  | error in Hartree potential    :           0.00491274 Ha           0.13368241 eV
  | Sum of eigenvalues per atom                           :       -4470.70954375 eV
  | Total energy (T->0) per atom                          :       -7873.12711433 eV  <-- do not rely on this value for anything but (periodic) metals
  | Electronic free energy per atom                       :       -7873.12735625 eV

  Self-consistency convergence accuracy:
  | Change of charge density      :  0.3723E-02
  | Change of sum of eigenvalues  :  0.5350E+00 eV
  | Change of total energy        :  0.1044E-03 eV

  End self-consistency iteration #     8       :  max(cpu_time)    wall_clock(cpu1)
  | Time for this iteration                    :        3.751 s           3.751 s
  | Charge density update                      :        1.710 s           1.710 s
  | Density mixing & preconditioning           :        0.050 s           0.050 s
  | Hartree multipole update                   :        0.001 s           0.001 s
  | Hartree multipole summation                :        0.433 s           0.433 s
  | Integration                                :        0.960 s           0.960 s
  | Solution of K.-S. eqns.                    :        0.596 s           0.596 s
  | Total energy evaluation                    :        0.000 s           0.000 s

  Partial memory accounting:
  | Current value for overall tracked memory usage on task 0  :          11.134 MB
  | Peak value for overall tracked memory usage on task 0     :          15.796 MB after allocating wave
  | Largest tracked array allocation on task 0 so far         :           9.999 MB  when allocating +KS_eigenvector_complex
  Note:  These values currently only include a subset of arrays which are explicitly tracked.
  The "true" memory usage will be greater.
------------------------------------------------------------

------------------------------------------------------------
          Begin self-consistency iteration #    9

  Date     :  20190513, Time     :  144015.336
------------------------------------------------------------
  Evaluating new KS density using the density matrix
  Evaluating density matrix
  Time summed over all CPUs for getting density from density matrix: real work        1.642 s, elapsed        1.642 s
  Integration grid: deviation in total charge (<rho> - N_e) =   8.355983E-12
  Pulay mixing of updated and previous charge densities.

  Evaluating partitioned Hartree potential by multipole expansion.
  | Analytical far-field extrapolation by fixed multipoles:
[...]
  | RMS charge density error from multipole expansion :   0.107883E-01
  | Average real-space part of the electrostatic potential :      0.29167221 eV

  Integrating Hamiltonian matrix: batch-based integration.
  Time summed over all CPUs for integration: real work        0.600 s, elapsed        0.600 s

  Updating Kohn-Sham eigenvalues, eigenvectors, occupation numbers, and Fermi level.
  Solving generalized eigenproblem

  Obtaining occupation numbers and chemical potential using ELSI.
  | Chemical potential (Fermi level):    -5.58571863eV
  What follows are estimated values for band gap, HOMO, LUMO, etc.
  | They are estimated on a discrete k-point grid and not necessarily exact.
  | For converged numbers, create a DOS and/or band structure plot on a denser k-grid.

  Highest occupied state (VBM) at     -5.86166044 eV (relative to internal zero)
  | Occupation number:      2.00000000
  | K-point:       1 at    0.000000    0.000000    0.000000 (in units of recip. lattice)

  Lowest unoccupied state (CBM) at    -5.38056708 eV (relative to internal zero)
  | Occupation number:      0.00000001
  | K-point:     552 at    0.416667    0.416667    0.000000 (in units of recip. lattice)

  ESTIMATED overall HOMO-LUMO gap:      0.48109336 eV between HOMO at k-point 1 and LUMO at k-point 552
  | This appears to be an indirect band gap.
  | Smallest direct gap :      2.55968233 eV for k_point 1 at    0.416667    0.416667    0.000000 (in units of recip. lattice)
  The gap value is above 0.2 eV. Unless you are using a very sparse k-point grid,
  this system is most likely an insulator or a semiconductor.

  Total energy components:
  | Sum of eigenvalues            :        -327.69200394 Ha       -8916.95311671 eV
  | XC energy correction          :         -39.71010296 Ha       -1080.56688005 eV
  | XC potential correction       :          52.46321997 Ha        1427.59685081 eV
  | Free-atom electrostatic energy:        -263.28343903 Ha       -7164.30689191 eV
  | Hartree energy correction     :          -0.51440773 Ha         -13.99774661 eV
  | Entropy correction            :          -0.00000000 Ha          -0.00000000 eV
  | ---------------------------
  | Total energy                  :        -578.73673368 Ha      -15748.22778447 eV
  | Total energy, T -> 0          :        -578.73673368 Ha      -15748.22778447 eV  <-- do not rely on this value for anything but (periodic) metals
  | Electronic free energy        :        -578.73673368 Ha      -15748.22778447 eV

  Derived energy quantities:
  | Kinetic energy                :         579.61049017 Ha       15772.00390827 eV
  | Electrostatic energy          :       -1118.63712090 Ha      -30439.66481269 eV
  | Energy correction for multipole
  | error in Hartree potential    :           0.01396546 Ha           0.38001941 eV
  | Sum of eigenvalues per atom                           :       -4458.47655835 eV
  | Total energy (T->0) per atom                          :       -7874.11389223 eV  <-- do not rely on this value for anything but (periodic) metals
  | Electronic free energy per atom                       :       -7874.11389223 eV

  atomic forces [eV/Ang]:
  -----------------------
  atom #    1
   Hellmann-Feynman              : -0.605126E-01 -0.184780E-01  0.139388E-01
   Ionic forces                  :  0.000000E+00  0.000000E+00  0.000000E+00
   Multipole                     :  0.600172E-02  0.450355E-02  0.342989E-02
   Pulay                         :  0.559170E-01  0.179365E-01 -0.114491E-01
   ----------------------------------------------------------------
   Total forces(   1)            :  0.140614E-02  0.396203E-02  0.591960E-02
  atom #    2
   Hellmann-Feynman              :  0.605126E-01  0.184780E-01 -0.139389E-01
   Ionic forces                  :  0.000000E+00  0.000000E+00  0.000000E+00
   Multipole                     : -0.600172E-02 -0.450355E-02 -0.342989E-02
   Pulay                         : -0.559170E-01 -0.179365E-01  0.114491E-01
   ----------------------------------------------------------------
   Total forces(   2)            : -0.140606E-02 -0.396205E-02 -0.591965E-02


  Analytical stress tensor components [eV]         xx                  yy                  zz                  xy                  xz                  yz
  -----------------------------------------------------------------------------------------------------------------------------------------------------------
    Nuclear Hellmann-Feynman      :    -0.1841174921E+02   -0.1843055652E+02   -0.1844917617E+02    0.5004352883E-02   -0.8197162061E-02   -0.1539751582E-01
    Multipole Hellmann-Feynman    :    -0.4054909459E+02   -0.4061062055E+02   -0.4065840546E+02    0.8064737256E-01    0.2227131437E-01   -0.3672354569E-01
    On-site Multipole corrections :    -0.2806935400E+00   -0.2807117756E+00   -0.2807284121E+00    0.1107341333E-03    0.7320282985E-04    0.3251671673E-04
    Strain deriv. of the orbitals :     0.5921830107E+02    0.5933320777E+02    0.5942599324E+02   -0.9696557382E-01   -0.5881207525E-02    0.8094934024E-01
  -----------------------------------------------------------------------------------------------------------------------------------------------------------
  Sum of all contributions        :    -0.2323627074E-01    0.1131892884E-01    0.3768319806E-01   -0.1120311425E-01    0.8266147614E-02    0.2886079544E-01

  +-------------------------------------------------------------------+
  |              Analytical stress tensor - Symmetrized               |
  |                  Cartesian components [eV/A**3]                   |
  +-------------------------------------------------------------------+
  |                x                y                z                |
  |                                                                   |
  |  x        -0.00058411      -0.00028162       0.00020779           |
  |  y        -0.00028162       0.00028453       0.00072549           |
  |  z         0.00020779       0.00072549       0.00094727           |
  |                                                                   |
  |  Pressure:      -0.00021590   [eV/A**3]                           |
  |                                                                   |
  +-------------------------------------------------------------------+

 * Warning: Stress tensor is anisotropic. Be aware that pressure is an isotropic quantity.


  Self-consistency convergence accuracy:
  | Change of charge density      :  0.3156E-07
  | Change of sum of eigenvalues  :  0.1819E-04 eV
  | Change of total energy        : -0.6002E-08 eV
  | Change of forces              :  0.1528E-04 eV/A

  Writing Kohn-Sham eigenvalues.
  K-point:       1 at    0.000000    0.000000    0.000000 (in units of recip. lattice)

  State    Occupation    Eigenvalue [Ha]    Eigenvalue [eV]
      1       2.00000         -65.489557        -1782.06151
      2       2.00000         -65.489557        -1782.06151
      3       2.00000          -5.097051         -138.69783
      4       2.00000          -5.096743         -138.68942
      5       2.00000          -3.510489          -95.52526
      6       2.00000          -3.510484          -95.52513
      7       2.00000          -3.510479          -95.52500
      8       2.00000          -3.509842          -95.50765
      9       2.00000          -3.509836          -95.50750
     10       2.00000          -3.509827          -95.50724
     11       2.00000          -0.657154          -17.88206
     12       2.00000          -0.216375           -5.88787
     13       2.00000          -0.215814           -5.87260
     14       2.00000          -0.215412           -5.86166
     15       0.00000          -0.121345           -3.30198
     16       0.00000          -0.121289           -3.30044
     17       0.00000          -0.120703           -3.28449
     18       0.00000          -0.090970           -2.47542
     19       0.00000           0.073443            1.99848
     20       0.00000           0.075255            2.04779

  What follows are estimated values for band gap, HOMO, LUMO, etc.
  | They are estimated on a discrete k-point grid and not necessarily exact.
  | For converged numbers, create a DOS and/or band structure plot on a denser k-grid.

  Highest occupied state (VBM) at     -5.86166044 eV (relative to internal zero)
  | Occupation number:      2.00000000
  | K-point:       1 at    0.000000    0.000000    0.000000 (in units of recip. lattice)

  Lowest unoccupied state (CBM) at    -5.38056708 eV (relative to internal zero)
  | Occupation number:      0.00000001
  | K-point:     552 at    0.416667    0.416667    0.000000 (in units of recip. lattice)

  ESTIMATED overall HOMO-LUMO gap:      0.48109336 eV between HOMO at k-point 1 and LUMO at k-point 552
  | This appears to be an indirect band gap.
  | Smallest direct gap :      2.55968233 eV for k_point 1 at    0.416667    0.416667    0.000000 (in units of recip. lattice)
  The gap value is above 0.2 eV. Unless you are using a very sparse k-point grid,
  this system is most likely an insulator or a semiconductor.

  Self-consistency cycle converged.

  End self-consistency iteration #     9       :  max(cpu_time)    wall_clock(cpu1)
  | Time for this iteration                    :       30.685 s          30.684 s
  | Charge density & force component update    :       28.181 s          28.180 s
  | Density mixing                             :        0.001 s           0.001 s
  | Hartree multipole update                   :        0.001 s           0.001 s
  | Hartree multipole summation                :        1.360 s           1.360 s
  | Integration                                :        0.600 s           0.600 s
  | Solution of K.-S. eqns.                    :        0.540 s           0.540 s
  | Total energy evaluation                    :        0.001 s           0.001 s

  Partial memory accounting:
  | Current value for overall tracked memory usage on task 0  :          20.789 MB
  | Peak value for overall tracked memory usage on task 0     :          30.608 MB after allocating wave_pulay
  | Largest tracked array allocation on task 0 so far         :           9.999 MB  when allocating +KS_eigenvector_complex
  Note:  These values currently only include a subset of arrays which are explicitly tracked.
  The "true" memory usage will be greater.
------------------------------------------------------------
  Removing unitary transformations (pure translations, rotations) from forces on atoms.
  Atomic forces before filtering:
  | Net force on center of mass :   0.809463E-07 -0.183895E-07 -0.468695E-07 eV/A
  Atomic forces after filtering:
  | Net force on center of mass :   0.000000E+00  0.696899E-18  0.139380E-17 eV/A

  Energy and forces in a compact form:
  | Total energy uncorrected      :         -0.157482277844680E+05 eV
  | Total energy corrected        :         -0.157482277844680E+05 eV  <-- do not rely on this value for anything but (periodic) metals
  | Electronic free energy        :         -0.157482277844680E+05 eV
  Total atomic forces (unitary forces cleaned) [eV/Ang]:
  |   1          0.140610223109253E-02          0.396203977455060E-02          0.591962190206514E-02
  |   2         -0.140610223109253E-02         -0.396203977455060E-02         -0.591962190206514E-02

  ------------------------------------ 
  Start decomposition of the XC Energy 
  ------------------------------------ 
  X and C from original XC functional choice 
  Hartree-Fock Energy :          0.000000000 Ha              0.000000000 eV
  X Energy            :        -37.564448417 Ha          -1022.180649398 eV
  C Energy            :         -2.145654539 Ha            -58.386230653 eV
  Total XC Energy     :        -39.710102955 Ha          -1080.566880051 eV
  ------------------------------------ 
  LDA X and C from self-consistent density 
  X Energy LDA        :        -37.564448417 Ha          -1022.180649398 eV
  C Energy LDA        :         -2.145654539 Ha            -58.386230653 eV
  ------------------------------------ 
  End decomposition of the XC Energy 
  ------------------------------------ 

------------------------------------------------------------
  Relaxation / MD: End force evaluation.       :  max(cpu_time)    wall_clock(cpu1)
  | Time for this force evaluation             :       53.349 s          53.348 s

------------------------------------------------------------
  Geometry optimization: Attempting to predict improved coordinates.

  +-------------------------------------------------------------------+
  | Generalized derivatives on lattice vectors [eV/A]                 |
  +-------------------------------------------------------------------+
  |lattice_vector      -0.00693417      -0.00598547      -0.00169209  |
  |lattice_vector      -0.00259492       0.00230257       0.00597907  |
  |lattice_vector       0.00460487       0.00890197       0.00941711  |
  +-------------------------------------------------------------------+
  | Forces on lattice vectors cleaned from atomic contributions [eV/A]|
  +-------------------------------------------------------------------+
  |lattice_vector       0.00728520       0.00697460       0.00316993  |
  |lattice_vector       0.00294642      -0.00131215      -0.00449928  |
  |lattice_vector      -0.00425301      -0.00791051      -0.00793578  |
  +-------------------------------------------------------------------+
  Removing unitary transformations (pure translations, rotations) from forces on atoms.
  Atomic forces before filtering:
  | Net force on center of mass :   0.000000E+00  0.696899E-18  0.139380E-17 eV/A
  Atomic forces after filtering:
  | Net force on center of mass :   0.000000E+00  0.696899E-18  0.000000E+00 eV/A
  || Forces on lattice vectors || =   0.793578E-02 eV/A.
  Net remaining forces (excluding translations, rotations) in present geometry:
  Maximum force component is  0.793578E-02 eV/A.
  Present geometry is converged.

------------------------------------------------------------
  Final atomic structure:
                         x [A]             y [A]             z [A]
  lattice_vector         3.62149614        0.88029824        0.87453515
  lattice_vector         0.93551301        3.61321515        0.87340280
  lattice_vector         0.93452984        0.92880887        3.60417065

            atom        -0.08591120       -0.08521014       -0.08428358  Si
            atom         1.28591120        1.27021014        1.25428358  Si

  Fractional coordinates:
                         L1                L2                L3
       atom_frac        -0.01558486       -0.01572634       -0.01579244  Si
       atom_frac         0.23406529        0.23425290        0.23444731  Si
------------------------------------------------------------

------------------------------------------------------------------------------
  Final output of selected total energy values:

  The following output summarizes some interesting total energy values
  at the end of a run (AFTER all relaxation, molecular dynamics, etc.).

  | Total energy of the DFT / Hartree-Fock s.c.f. calculation      :         -15748.227784468 eV
  | Final zero-broadening corrected energy (caution - metals only) :         -15748.227784468 eV
  | For reference only, the value of 1 Hartree used in FHI-aims is :             27.211384500 eV

  Before relying on these values, please be sure to understand exactly which
  total energy value is referred to by a given number. Different objects may
  all carry the same name 'total energy'. Definitions:

  Total energy of the DFT / Hartree-Fock s.c.f. calculation:
  | Note that this energy does not include ANY quantities calculated after the
  | s.c.f. cycle, in particular not ANY RPA, MP2, etc. many-body perturbation terms.

  Final zero-broadening corrected energy:
  | For metallic systems only, a broadening of the occupation numbers at the Fermi
  | level can be extrapolated back to zero broadening by an electron-gas inspired
  | formula. For all systems that are not real metals, this value can be
  | meaningless and should be avoided.

------------------------------------------------------------------------------
  Methods described in the following list of references were used in this FHI-aims run.
  If you publish the results, please make sure to cite these reference if they apply.
  FHI-aims is an academic code, and for our developers (often, Ph.D. students
  and postdocs), scientific credit in the community is essential.
  Thank you for helping us!

  For any use of FHI-aims, please cite:

    Volker Blum, Ralf Gehrke, Felix Hanke, Paula Havu, Ville Havu,
    Xinguo Ren, Karsten Reuter, and Matthias Scheffler
    'Ab initio molecular simulations with numeric atom-centered orbitals'
    Computer Physics Communications 180, 2175-2196 (2009)
    http://dx.doi.org/10.1016/j.cpc.2009.06.022


  For the analytical stress tensor used in your run, please cite:

    Franz Knuth, Christian Carbogno, Viktor Atalla, Volker Blum, Matthias Scheffler
    'All-electron formalism for total energy strain derivatives and
    stress tensor components for numeric atom-centered orbitals'
    Computer Physics Communications 190, 33-50 (2015).
    http://dx.doi.org/10.1016/j.cpc.2015.01.003


  For the real-space grid partitioning and parallelization used in this calculation, please cite:

    Ville Havu, Volker Blum, Paula Havu, and Matthias Scheffler,
    'Efficient O(N) integration for all-electron electronic structure calculation'
    'using numerically tabulated basis functions'
    Journal of Computational Physics 228, 8367-8379 (2009).
    http://dx.doi.org/10.1016/j.jcp.2009.08.008

  Of course, there are many other important community references, e.g., those cited in the
  above references. Our list is limited to references that describe implementations in the
  FHI-aims code. The reason is purely practical (length of this list) - please credit others as well.

------------------------------------------------------------
          Leaving FHI-aims.
          Date     :  20190513, Time     :  145622.580

          Computational steps:
          | Number of self-consistency cycles          :          184
          | Number of SCF (re)initializations          :           15
          | Number of relaxation steps                 :           14

          Detailed time accounting                     :  max(cpu_time)    wall_clock(cpu1)
          | Total time                                 :     1000.585 s        1000.588 s
          | Preparation time                           :        0.124 s           0.124 s
          | Boundary condition initalization           :        0.585 s           0.586 s
          | Grid partitioning                          :        0.463 s           0.461 s
          | Preloading free-atom quantities on grid    :        2.257 s           2.258 s
          | Free-atom superposition energy             :        0.473 s           0.473 s
          | Total time for integrations                :      127.038 s         127.044 s
          | Total time for solution of K.-S. equations :      102.326 s         102.317 s
          | Total time for EV reorthonormalization     :        1.773 s           1.774 s
          | Total time for density & force components  :      652.081 s         652.084 s
          | Total time for mixing & preconditioning    :        6.497 s           6.501 s
          | Total time for Hartree multipole update    :        0.204 s           0.202 s
          | Total time for Hartree multipole sum       :      106.043 s         106.037 s
          | Total time for total energy evaluation     :        0.070 s           0.064 s
          | Total time for scaled ZORA corrections     :        0.000 s           0.000 s

 This is a stub MPI_ALLREDUCE call.
 You should not be here. Check your
 setting on the use_mpi variable, or
 link against true MPI-libraries.
