------------------------------------------------------------
          Invoking FHI-aims ...
          Version 171221_1
          Compiled on 2019/05/06 at 14:26:40 on host ffph0xx.

          When using FHI-aims, please cite the following reference:

          Volker Blum, Ralf Gehrke, Felix Hanke, Paula Havu,
          Ville Havu, Xinguo Ren, Karsten Reuter, and Matthias Scheffler,
          'Ab Initio Molecular Simulations with Numeric Atom-Centered Orbitals',
          Computer Physics Communications 180, 2175-2196 (2009)

          For any questions about FHI-aims, please visit the aimsclub website
          with its forums and wiki. Contributions to both the forums and the
          wiki are warmly encouraged - they are for you, and everyone is welcome there.

------------------------------------------------------------



  Date     :  20190514, Time     :  123531.791
  Time zero on CPU 1             :   0.663000000000000E-03  s.
  Internal wall clock time zero  :           327069331.791  s.

  FHI-aims created a unique identifier for this run for later identification
  aims_uuid : 4F628D8A-92A3-4D34-AF3B-4AD2E43485A1


  Performing system and environment tests:
  *** Environment variable OMP_NUM_THREADS is not set
  *** For performance reasons you might want to set it to 1
  | Stacksize not measured: no C compiler

  Obtaining array dimensions for all initial allocations:
  
  -----------------------------------------------------------------------
  Parsing control.in (first pass over file, find array dimensions only).
  The contents of control.in will be repeated verbatim below
  unless switched off by setting 'verbatim_writeout .false.' .
  in the first line of control.in .
  -----------------------------------------------------------------------
  
  #--- method ---
  xc pw-lda
  spin none
  relativistic atomic_zora scalar
  #---
  
  #--- k-grid settings ---
  k_grid 12 12 12
  #---
  
  
  
  
  
  
  
  
  
  
  
  #-------------------------------------------------------------------------------
  #--- Species defaults for Si
  #-------------------------------------------------------------------------------
  
  ################################################################################
  #
  #  FHI-aims code project
  #  VB, Fritz-Haber Institut, 2009
  #
  #  Suggested "light" defaults for Si atom (to be pasted into control.in file)
  #  Be sure to double-check any results obtained with these settings for post-processing,
  #  e.g., with the "tight" defaults and larger basis sets.
  #
  ################################################################################
    species        Si
  #     global species definitions
      nucleus             14
      mass                28.0855
  #
      l_hartree           4
  #
      cut_pot             3.5          1.5  1.0
      basis_dep_cutoff    1e-4
  #
      radial_base         42 5.0
      radial_multiplier   1
      angular_grids       specified
        division   0.5866   50
        division   0.9616  110
        division   1.2249  194
        division   1.3795  302
  #      division   1.4810  434
  #      division   1.5529  590
  #      division   1.6284  770
  #      division   1.7077  974
  #      division   2.4068 1202
  #      outer_grid   974
        outer_grid 302
  ################################################################################
  #
  #  Definition of "minimal" basis
  #
  ################################################################################
  #     valence basis states
      valence      3  s   2.
      valence      3  p   2.
  #     ion occupancy
      ion_occ      3  s   1.
      ion_occ      3  p   1.
  ################################################################################
  #
  #  Suggested additional basis functions. For production calculations,
  #  uncomment them one after another (the most important basis functions are
  #  listed first).
  #
  #  Constructed for dimers: 1.75 A, 2.0 A, 2.25 A, 2.75 A, 3.75 A
  #
  ################################################################################
  #  "First tier" - improvements: -571.96 meV to -37.03 meV
       hydro 3 d 4.2
       hydro 2 p 1.4
  #     hydro 4 f 6.2
       ionic 3 s auto
  #  "Second tier" - improvements: -16.76 meV to -3.03 meV
  #     hydro 3 d 9
  #     hydro 5 g 9.4
  #     hydro 4 p 4
  #     hydro 1 s 0.65
  #  "Third tier" - improvements: -3.89 meV to -0.60 meV
  #     ionic 3 d auto
  #     hydro 3 s 2.6
  #     hydro 4 f 8.4
  #     hydro 3 d 3.4
  #     hydro 3 p 7.8
  #  "Fourth tier" - improvements: -0.33 meV to -0.11 meV
  #     hydro 2 p 1.6
  #     hydro 5 g 10.8
  #     hydro 5 f 11.2
  #     hydro 3 d 1
  #     hydro 4 s 4.5
  #  Further basis functions that fell out of the optimization - noise
  #  level... < -0.08 meV
  #     hydro 4 d 6.6
  #     hydro 5 g 16.4
  #     hydro 4 d 9
  
  -----------------------------------------------------------------------
  Completed first pass over input file control.in .
  -----------------------------------------------------------------------
  
  
  -----------------------------------------------------------------------
  Parsing geometry.in (first pass over file, find array dimensions only).
  The contents of geometry.in will be repeated verbatim below
  unless switched off by setting 'verbatim_writeout .false.' .
  in the first line of geometry.in .
  -----------------------------------------------------------------------
  
  lattice_vector   0.000000   2.450000   2.450000
  lattice_vector   2.450000   0.000000   2.450000
  lattice_vector   2.450000   2.450000   0.000000
  atom_frac   0.000000   0.000000   0.000000 Si
  
  -----------------------------------------------------------------------
  Completed first pass over input file geometry.in .
  -----------------------------------------------------------------------
  

  Basic array size parameters:
  | Number of species                 :        1
  | Number of atoms                   :        1
  | Number of lattice vectors         :        3
  | Max. basis fn. angular momentum   :        2
  | Max. atomic/ionic basis occupied n:        3
  | Max. number of basis fn. types    :        3
  | Max. radial fns per species/type  :        5
  | Max. logarithmic grid size        :     1346
  | Max. radial integration grid size :       42
  | Max. angular integration grid size:      302
  | Max. angular grid division number :        8
  | Radial grid for Hartree potential :     1346
  | Number of spin channels           :        1

------------------------------------------------------------
          Reading file control.in.
------------------------------------------------------------
  XC: Using Perdew-Wang parametrisation of Ceperley-Alder LDA.
  Spin treatment: No spin polarisation.
  Scalar relativistic treatment of kinetic energy: on-site free-atom approximation to ZORA.
  Found k-point grid:        12        12        12

  Reading configuration options for species Si                  .
  | Found nuclear charge :  14.0000
  | Found atomic mass :    28.085500000000000      amu
  | Found l_max for Hartree potential  :   4
  | Found cutoff potl. onset [A], width [A], scale factor :    3.50000    1.50000    1.00000
  | Threshold for basis-dependent cutoff potential is   0.100000E-03
  | Found data for basic radial integration grid :    42 points, outermost radius =    5.000 A
  | Found multiplier for basic radial grid :   1
  | Found angular grid specification: user-specified.
  | Specified grid contains     5 separate shells.
  | Check grid settings after all constraints further below.
  | Found free-atom valence shell :  3 s   2.000
  | Found free-atom valence shell :  3 p   2.000
  | Found free-ion valence shell :  3 s   1.000
  | Found free-ion valence shell :  3 p   1.000
  | Found hydrogenic basis function :  3 d   4.200
  | Found hydrogenic basis function :  2 p   1.400
  | Found ionic basis function :  3 s , default cutoff radius.
  Species Si                  : Missing cutoff potential type.
  Defaulting to exp(1/x)/(1-x)^2 type cutoff potential.
  Species Si: No 'logarithmic' tag. Using default grid for free atom:
  | Default logarithmic grid data [bohr] : 0.1000E-03 0.1000E+03 0.1012E+01
  | Will include ionic basis functions of  2.0-fold positive Si                   ion.
  Species Si: On-site basis accuracy parameter (for Gram-Schmidt orthonormalisation) not specified.
  Using default value basis_acc =  0.1000000E-03.
  Species Si                  : Using default innermost maximum threshold i_radial=  2 for radial functions.
  Species Si                  : Default cutoff onset for free atom density etc. : 0.35000000E+01 AA.
  Species Si                  : Basic radial grid will be enhanced according to radial_multiplier =   1, to contain    42 grid points.

  Finished reading input file 'control.in'. Consistency checks are next.

  MPI_IN_PLACE appears to work with this MPI implementation.
  | Keeping use_mpi_in_place .true. (see manual).
  Target number of points in a grid batch is not set. Defaulting to  100
  Method for grid partitioning is not set. Defaulting to 'maxmin' partitioning.
  Batch size limit is not set. Defaulting to    200
  By default, will store active basis functions for each batch.
  If in need of memory, prune_basis_once .false. can be used to disable this option.
  communication_type for Hartree potential was not specified.
  Defaulting to calc_hartree .
 * Attention: 
 * You may want to set distributed_spline_storage to .true. in order to save memory.
 * This doesn't harm performance and is perfectly ok unless:
 * - you get error messages in postprocessing (about missing atoms in get_rho_multipole_spl)
 * - you need full spline storage in hirshfeld_analysis
  Defaulting to Pulay charge density mixer.
  Pulay mixer: Number of relevant iterations not set.
  Defaulting to    8 iterations.
  Pulay mixer: Number of initial linear mixing iterations not set.
  Defaulting to    0 iterations.
  Work space size for distributed Hartree potential not set.
  Defaulting to   0.200000E+03 MB.
  Mixing parameter for charge density mixing has not been set.
  Using default: charge_mix_param =     0.0500.
  The mixing parameter will be adjusted in iteration number     2 of the first full s.c.f. cycle only.
  Algorithm-dependent basis array size parameters:
  | n_max_pulay                         :        8
 * Notice: The s.c.f. convergence criterion sc_accuracy_rho was not provided.
 * We used to stop in this case, and ask the user to provide reasonable
 * scf convergence criteria. However, this led some users to employ criteria
 * that led to extremely long run times, e.g., for simple relaxation.
 * We now preset a default value for sc_accuracy_rho if it is not set.
 * You may still wish to check if this setting is too tight or too loose for your needs.
 * Based on n_atoms, FHI-aims chose sc_accuracy_rho =  0.100000E-05 .
  Maximum number of self-consistency iterations not provided.
  Presetting  1000 iterations.
  Presetting      1001 iterations before the initial mixing cycle
  is restarted anyway using the sc_init_iter criterion / keyword.
  Presetting a factor      1.000 between actual scf density residual
  and density convergence criterion sc_accuracy_rho below which sc_init_iter
  takes no effect.
 * No s.c.f. convergence criteria (sc_accuracy_*) were provided in control.in.
 * The run will proceed with a reasonable default guess, but please check whether.
 * the s.c.f. cycles seem to take too much or too little time.
  Calculation of forces was not defined in control.in. No forces will be calculated.
  Geometry relaxation not requested: no relaxation will be performed.
  No accuracy limit for integral partition fn. given. Defaulting to  0.1000E-14.
  No threshold value for u(r) in integrations given. Defaulting to  0.1000E-05.
  No occupation type (smearing scheme) given. Defaulting to Gaussian broadening, width =  0.1000E-01 eV.
  The width will be adjusted in iteration number     2 of the first full s.c.f. cycle only.
  S.C.F. convergence parameters will be adjusted in iteration number     2 of the first full s.c.f. cycle only.
  No accuracy for occupation numbers given. Defaulting to  0.1000E-12.
  No threshold value for occupation numbers given. Defaulting to  0.0000E+00.
  No accuracy for fermi level given. Defaulting to  0.1000E-19.
  Maximum # of iterations to find E_F not set. Defaulting to  200.
  Preferred method for the eigenvalue solver ('KS_method') not specified in 'control.in'.
  Defaulting to serial version, 'lapack_fast'.
  Will not use alltoall communication since running on < 1024 CPUs.
  Threshold for basis singularities not set.
  Default threshold for basis singularities:  0.1000E-04
  partition_type (choice of integration weights) for integrals was not specified.
  | Using a version of the partition function of Stratmann and coworkers ('stratmann_smoother').
  | At each grid point, the set of atoms used to build the partition table is smoothly restricted to
  | only those atoms whose free-atom density would be non-zero at that grid point.
  Partitioning for Hartree potential was not defined. Using partition_type for integrals.
  | Adjusted default value of keyword multip_moments_threshold to:       0.10000000E-11
  | This value may affect high angular momentum components of the Hartree potential in periodic systems.
  Angular momentum expansion for Kerker preconditioner not set explicitly.
  | Using default value of   0
  No explicit requirement for turning off preconditioner.
  | By default, it will be turned off when the charge convergence reaches
  | sc_accuracy_rho  =   0.100000E-05
  No special mixing parameter while Kerker preconditioner is on.
  Using default: charge_mix_param =     0.0500.
  No q(lm)/r^(l+1) cutoff set for long-range Hartree potential.
  | Using default value of  0.100000E-09 .
  | Verify using the multipole_threshold keyword.
  Defaulting to new monopole extrapolation.
  Density update method: automatic selection selected.
  Using density matrix based charge density update.
  Using density matrix based charge density update.
  Using packed matrix style: index .
  Defaulting to use time-reversal symmetry for k-point grid.
------------------------------------------------------------


------------------------------------------------------------
          Reading geometry description geometry.in.
------------------------------------------------------------
  Input structure read successfully.
  The structure contains        1 atoms,  and a total of         14.000 electrons.

  Input geometry:
  | Unit cell:
  |        0.00000000        2.45000000        2.45000000
  |        2.45000000        0.00000000        2.45000000
  |        2.45000000        2.45000000        0.00000000
  | Atomic structure:
  |       Atom                x [A]            y [A]            z [A]
  |    1: Species Si            0.00000000        0.00000000        0.00000000

  Lattice parameters for 3D lattice (in Angstroms) :     3.464823    3.464823    3.464823
  Angle(s) between unit vectors (in degrees)      :    60.000000   60.000000   60.000000

  |

  | The smallest distance between any two atoms is         3.46482323 AA.
  |
  | The first atom of this pair is atom number                      1 .
  | The second atom of this pair is atom number                     1 .
  | Wigner-Seitz cell of the first atom image          -1     0     1 .
  | (The Wigner-Seitz cell of the second atom is 0 0 0  by definition.)

  Quantities derived from the lattice vectors:
  | Reciprocal lattice vector 1: -1.282283  1.282283  1.282283
  | Reciprocal lattice vector 2:  1.282283 -1.282283  1.282283
  | Reciprocal lattice vector 3:  1.282283  1.282283 -1.282283
  | Unit cell volume                               :   0.294123E+02  A^3

  Range separation radius for Ewald summation (hartree_convergence_parameter):      4.46835423 bohr.

  Fractional coordinates:
                         L1                L2                L3
       atom_frac         0.00000000        0.00000000        0.00000000  Si

  Number of empty states per atom not set in control.in - providing a guess from actual geometry.
  | Total number of empty states used during s.c.f. cycle:        3
  If you use a very high smearing, use empty_states (per atom!) in control.in to increase this value.

  Structure-dependent array size parameters: 
  | Maximum number of distinct radial functions  :        8
  | Maximum number of basis functions            :       18
  | Number of Kohn-Sham states (occupied + empty):       10
------------------------------------------------------------

------------------------------------------------------------
          Preparing all fixed parts of the calculation.
------------------------------------------------------------
  Determining machine precision:
     2.2250738585072014E-308
  Setting up grids for atomic and cluster calculations.

  Creating wave function, potential, and density for free atoms.

  Species: Si

  List of occupied orbitals and eigenvalues:
    n    l              occ      energy [Ha]    energy [eV]
    1    0           2.0000       -65.491668     -1782.1190
    2    0           2.0000        -5.087967      -138.4506
    3    0           2.0000        -0.391471       -10.6525
    2    1           6.0000        -3.502246       -95.3010
    3    1           2.0000        -0.143943        -3.9169

  Creating fixed part of basis set: Ionic, confined, hydrogenic.

  Si                   ion:

  List of free ionic orbitals and eigenvalues:
    n    l      energy [Ha]    energy [eV]
    1    0       -66.364436     -1805.8682
    2    0        -5.935799      -161.5213
    3    0        -1.078166       -29.3384
    2    1        -4.351123      -118.4001
    3    1        -0.781733       -21.2720


  List of ionic basis orbitals and eigenvalues:
    n    l      energy [Ha]    energy [eV]    outer radius [A]
    3    0        -1.078146       -29.3378       4.214062


  Si                   hydrogenic:

  List of hydrogenic basis orbitals: 
    n    l      effective z      eigenvalue [eV]  inner max. [A]     outer max. [A]     outer radius [A]   
    3    2         4.200000       -26.6624           1.139231           1.139231           4.534782
    2    1         1.400000        -6.4613           1.472672           1.472672           4.590560


  Adding cutoff potential to free-atom effective potential.
  Creating atomic-like basis functions for current effective potential.

  Species Si                  :

  List of atomic basis orbitals and eigenvalues:
    n    l      energy [Ha]    energy [eV]    outer radius [A]
    1    0       -65.491668     -1782.1190       0.789468
    2    0        -5.087967      -138.4506       2.815114
    3    0        -0.391471       -10.6525       4.534782
    2    1        -3.502246       -95.3010       3.259919
    3    1        -0.143943        -3.9169       4.590560

  Assembling full basis from fixed parts.
  | Species Si :   atomic orbital   1 s accepted.
  | Species Si :   atomic orbital   2 s accepted.
  | Species Si :    ionic orbital   3 s accepted.
  | Species Si :   atomic orbital   3 s accepted.
  | Species Si :   atomic orbital   2 p accepted.
  | Species Si :   atomic orbital   3 p accepted.
  | Species Si :    hydro orbital   2 p accepted.
  | Species Si :    hydro orbital   3 d accepted.

  Basis size parameters after reduction:
  | Total number of radial functions:        8
  | Total number of basis functions :       18

  Per-task memory consumption for arrays in subroutine allocate_ext:
  |           2.757468MB.
  Testing on-site integration grid accuracy.
  |  Species  Function  <phi|h_atom|phi> (log., in eV)  <phi|h_atom|phi> (rad., in eV)
           1        1              -1782.1189727076              -1782.1182429251
           1        2               -138.4506350693               -138.4506310079
           1        3                -10.3030408815                -10.3029120678
           1        4                  5.0238999146                  4.9457540310 ***
           1        5                -95.3009689499                -95.3009689315
           1        6                 -3.9266496564                 -3.9420918374
           1        7                  6.3453628447                  6.1632372158 ***
           1        8                  6.2883050744                  6.2861881409
 * Note: Onsite integrals marked "***" above are less accurate than
 * onsite_accuracy_threshold =    0.03000 eV. Usually, this is harmless.
 * When in doubt, tighten the "radial" and/or "radial_multiplier" flags to check.

  Preparing densities etc. for the partition functions (integrals / Hartree potential).

  Preparations completed.
  max(cpu_time)          :      0.098 s.
  Wall clock time (cpu1) :      0.098 s.
------------------------------------------------------------

------------------------------------------------------------
          Begin self-consistency loop: Initialization.

          Date     :  20190514, Time     :  123531.891
------------------------------------------------------------

  Initializing index lists of integration centers etc. from given atomic structure:
  Mapping all atomic coordinates to central unit cell.

  Initializing the k-points
          Using symmetry for reducing the k-points
  | k-points reduced from:     1728 to      868
  | Number of k-points                             :       868
  The eigenvectors in the calculations are COMPLEX.
  | K-points in task   0:       868
  | Number of basis functions in the Hamiltonian integrals :       764
  | Number of basis functions in a single unit cell        :        18
  | Number of centers in hartree potential         :       555
  | Number of centers in hartree multipole         :       177
  | Number of centers in electron density summation:       135
  | Number of centers in basis integrals           :       135
  | Number of centers in integrals                 :        51
  | Number of centers in hamiltonian               :       135
  | Consuming       1844 KiB for k_phase.
  | Number of super-cells (origin) [n_cells]                     :        3375
  | Number of super-cells (after PM_index) [n_cells]             :         136
  | Number of super-cells in hamiltonian [n_cells_in_hamiltonian]:         136
  | Size of matrix packed + index [n_hamiltonian_matrix_size] :       16548
  Partitioning the integration grid into batches with maxmin method.
  | Maximal weight for a single point:     1.000
  | Minimal weight for a single point:     0.704
  | Number of batches:       64
  | Maximal batch size:      90
  | Minimal batch size:      85
  | Average batch size:      87.562
  | Standard deviation of batch sizes:       1.499
  Initializing partition tables, free-atom densities, potentials, etc. across the integration grid (initialize_grid_storage).
  | initialize_grid_storage: Actual outermost partition radius vs. multipole_radius_free
  | (-- VB: in principle, multipole_radius_free should be larger, hence this output)
  | Species        1: Confinement radius =              4.999999999999999 AA, multipole_radius_free =              5.000694715736543 AA.
  | Species        1: outer_partition_radius set to              5.000694715736543 AA .
  | Original list of interatomic distances with         135 x        135 entries is created.
  | Net number of integration points:     5604
  | of which are non-zero points    :     5094
  | Numerical average free-atom electrostatic potential    :     -8.94426312 eV
  Renormalizing the initial density to the exact electron count on the 3D integration grid.
  | Initial density: Formal number of electrons (from input files) :      14.0000000000
  | Integrated number of electrons on 3D grid     :      14.0002143797
  | Charge integration error                      :       0.0002143797
  | Normalization factor for density and gradient :       0.9999846874
  Obtaining max. number of non-zero basis functions in each batch (get_n_compute_maxes).
  | Maximal number of non-zero basis functions:      328 in task     0
  Allocating        2.500 MB for KS_eigenvector_complex
  Integrating Hamiltonian matrix: batch-based integration.
  Time summed over all CPUs for integration: real work        0.149 s, elapsed        0.149 s
  Integrating overlap matrix.
  Time summed over all CPUs for integration: real work        0.110 s, elapsed        0.110 s
  Decreasing sparse matrix size:
   Tolerance:   9.9999998245167004E-014
   Hamiltonian matrix
  | Array has    11107 nonzero elements out of    16548 elements
  | Sparsity factor is 0.329
   Overlap matrix
  | Array has     8421 nonzero elements out of    16548 elements
  | Sparsity factor is 0.491
  New size of hamiltonian matrix:       11246

  Updating Kohn-Sham eigenvalues, eigenvectors, occupation numbers, and Fermi level.
  Solving generalized eigenproblem
  Transforming overlap matrix and checking for singularities.
  Overlap matrix is nonsingular at first k-point:
  | Lowest eigenvalue:  0.388255E-02

  Obtaining occupation numbers and chemical potential using ELSI.
  | Chemical potential (Fermi level):    -4.84470206eV
  Writing Kohn-Sham eigenvalues.
  K-point:       1 at    0.000000    0.000000    0.000000 (in units of recip. lattice)

  State    Occupation    Eigenvalue [Ha]    Eigenvalue [eV]
      1       2.00000         -65.492043        -1782.12916
      2       2.00000          -5.088762         -138.47227
      3       2.00000          -3.503029          -95.32226
      4       2.00000          -3.503029          -95.32226
      5       2.00000          -3.503029          -95.32226
      6       2.00000          -0.522965          -14.23060
      7       0.00000           0.004215            0.11470
      8       0.00000           0.004215            0.11470
      9       0.00000           0.004215            0.11470
     10       0.00000           0.201424            5.48102

  What follows are estimated values for band gap, HOMO, LUMO, etc.
  | They are estimated on a discrete k-point grid and not necessarily exact.
  | For converged numbers, create a DOS and/or band structure plot on a denser k-grid.

  Highest occupied state (VBM) at     -4.84679735 eV (relative to internal zero)
  | Occupation number:      1.23301277
  | K-point:     532 at    0.416667    0.166667    0.833333 (in units of recip. lattice)

  Lowest unoccupied state (CBM) at    -4.83326583 eV (relative to internal zero)
  | Occupation number:      0.10580767
  | K-point:     402 at    0.333333    0.000000    0.333333 (in units of recip. lattice)

  ESTIMATED overall HOMO-LUMO gap:      0.01353151 eV between HOMO at k-point 532 and LUMO at k-point 402
  | This appears to be an indirect band gap.
  | Smallest direct gap :      0.55521319 eV for k_point 460 at    0.333333    0.000000    0.333333 (in units of recip. lattice)
  However, this system has fractional occupation numbers. Since we use a finite k-point grid,
  this material is metallic within the approximate finite broadening function (occupation_type)
  applied to determine the occupation numbers.
  Calculating total energy contributions from superposition of free atom densities.

  Total energy components:
  | Sum of eigenvalues            :        -163.48035584 Ha       -4448.52682096 eV
  | XC energy correction          :         -19.70492210 Ha        -536.19821173 eV
  | XC potential correction       :          26.03442996 Ha         708.43288390 eV
  | Free-atom electrostatic energy:        -132.15282194 Ha       -3596.06125055 eV
  | Hartree energy correction     :          -0.00000000 Ha          -0.00000000 eV
  | Entropy correction            :          -0.00000326 Ha          -0.00008879 eV
  | ---------------------------
  | Total energy                  :        -289.30366992 Ha       -7872.35339934 eV
  | Total energy, T -> 0          :        -289.30367318 Ha       -7872.35348814 eV  <-- do not rely on this value for anything but (periodic) metals
  | Electronic free energy        :        -289.30367644 Ha       -7872.35357693 eV

  Derived energy quantities:
  | Kinetic energy                :         289.59166161 Ha        7880.19005218 eV
  | Electrostatic energy          :        -559.19040943 Ha      -15216.34523979 eV
  | Energy correction for multipole
  | error in Hartree potential    :           0.00000000 Ha           0.00000000 eV
  | Sum of eigenvalues per atom                           :       -4448.52682096 eV
  | Total energy (T->0) per atom                          :       -7872.35348814 eV  <-- do not rely on this value for anything but (periodic) metals
  | Electronic free energy per atom                       :       -7872.35357693 eV
  Initialize hartree_potential_storage
  Max. number of atoms included in rho_multipole:            1

  End scf initialization - timings             :  max(cpu_time)    wall_clock(cpu1)
  | Time for scf. initialization               :        0.607 s           0.607 s
  | Boundary condition initialization          :        0.029 s           0.029 s
  | Integration                                :        0.259 s           0.259 s
  | Solution of K.-S. eqns.                    :        0.255 s           0.254 s
  | Grid partitioning                          :        0.010 s           0.010 s
  | Preloading free-atom quantities on grid    :        0.001 s           0.001 s
  | Free-atom superposition energy             :        0.011 s           0.010 s
  | Total energy evaluation                    :        0.000 s           0.001 s

  Partial memory accounting:
  | Current value for overall tracked memory usage on task 0  :           2.725 MB
  | Peak value for overall tracked memory usage on task 0     :           4.400 MB after allocating wave
  | Largest tracked array allocation on task 0 so far         :           2.500 MB  when allocating +KS_eigenvector_complex
  Note:  These values currently only include a subset of arrays which are explicitly tracked.
  The "true" memory usage will be greater.
------------------------------------------------------------

------------------------------------------------------------
          Begin self-consistency iteration #    1

  Date     :  20190514, Time     :  123532.498
------------------------------------------------------------
  Evaluating new KS density using the density matrix
  Evaluating density matrix
  Time summed over all CPUs for getting density from density matrix: real work        0.251 s, elapsed        0.251 s
  Integration grid: deviation in total charge (<rho> - N_e) =  -4.920508E-13
  Pulay mixing of updated and previous charge densities.

  Evaluating partitioned Hartree potential by multipole expansion.
  | Analytical far-field extrapolation by fixed multipoles:
  | Hartree multipole sum: apparent total charge =   0.108992E-03
  Summing up the Hartree potential.
  | Estimated reciprocal-space cutoff momentum G_max:         2.07518253 bohr^-1 .
  | Reciprocal lattice points for long-range Hartree potential:      26
  Time summed over all CPUs for potential: real work        0.125 s, elapsed        0.125 s
  | RMS charge density error from multipole expansion :   0.800178E-04
  | Average real-space part of the electrostatic potential :     -0.01155854 eV

  Integrating Hamiltonian matrix: batch-based integration.
  Time summed over all CPUs for integration: real work        0.161 s, elapsed        0.161 s

  Updating Kohn-Sham eigenvalues, eigenvectors, occupation numbers, and Fermi level.
  Solving generalized eigenproblem

  Obtaining occupation numbers and chemical potential using ELSI.
  | Chemical potential (Fermi level):    -4.85067610eV
  Writing Kohn-Sham eigenvalues.
  K-point:       1 at    0.000000    0.000000    0.000000 (in units of recip. lattice)

  State    Occupation    Eigenvalue [Ha]    Eigenvalue [eV]
      1       2.00000         -65.494548        -1782.19733
      2       2.00000          -5.090353         -138.51555
      3       2.00000          -3.504678          -95.36714
      4       2.00000          -3.504678          -95.36714
      5       2.00000          -3.504678          -95.36714
      6       2.00000          -0.523199          -14.23698
      7       0.00000           0.003833            0.10430
      8       0.00000           0.003833            0.10430
      9       0.00000           0.003833            0.10430
     10       0.00000           0.201210            5.47519

  What follows are estimated values for band gap, HOMO, LUMO, etc.
  | They are estimated on a discrete k-point grid and not necessarily exact.
  | For converged numbers, create a DOS and/or band structure plot on a denser k-grid.

  Highest occupied state (VBM) at     -4.85278189 eV (relative to internal zero)
  | Occupation number:      1.23414714
  | K-point:     704 at    0.583333    0.416667    0.250000 (in units of recip. lattice)

  Lowest unoccupied state (CBM) at    -4.84121062 eV (relative to internal zero)
  | Occupation number:      0.18069386
  | K-point:     435 at    0.333333    0.333333    0.000000 (in units of recip. lattice)

  ESTIMATED overall HOMO-LUMO gap:      0.01157128 eV between HOMO at k-point 704 and LUMO at k-point 435
  | This appears to be an indirect band gap.
  | Smallest direct gap :      0.55587959 eV for k_point 493 at    0.333333    0.333333    0.000000 (in units of recip. lattice)
  However, this system has fractional occupation numbers. Since we use a finite k-point grid,
  this material is metallic within the approximate finite broadening function (occupation_type)
  applied to determine the occupation numbers.

  Total energy components:
  | Sum of eigenvalues            :        -163.49945366 Ha       -4449.04649905 eV
  | XC energy correction          :         -19.70351704 Ha        -536.15997822 eV
  | XC potential correction       :          26.03257330 Ha         708.38236171 eV
  | Free-atom electrostatic energy:        -132.15282194 Ha       -3596.06125055 eV
  | Hartree energy correction     :           0.01962547 Ha           0.53403619 eV
  | Entropy correction            :          -0.00000323 Ha          -0.00008787 eV
  | ---------------------------
  | Total energy                  :        -289.30359387 Ha       -7872.35132991 eV
  | Total energy, T -> 0          :        -289.30359709 Ha       -7872.35141778 eV  <-- do not rely on this value for anything but (periodic) metals
  | Electronic free energy        :        -289.30360032 Ha       -7872.35150565 eV

  Derived energy quantities:
  | Kinetic energy                :         289.57077764 Ha        7879.62177040 eV
  | Electrostatic energy          :        -559.17085447 Ha      -15215.81312210 eV
  | Energy correction for multipole
  | error in Hartree potential    :           0.00000959 Ha           0.00026101 eV
  | Sum of eigenvalues per atom                           :       -4449.04649905 eV
  | Total energy (T->0) per atom                          :       -7872.35141778 eV  <-- do not rely on this value for anything but (periodic) metals
  | Electronic free energy per atom                       :       -7872.35150565 eV

  Self-consistency convergence accuracy:
  | Change of charge density      :  0.2594E-01
  | Change of sum of eigenvalues  : -0.5197E+00 eV
  | Change of total energy        :  0.2069E-02 eV

  End self-consistency iteration #     1       :  max(cpu_time)    wall_clock(cpu1)
  | Time for this iteration                    :        0.707 s           0.706 s
  | Charge density update                      :        0.272 s           0.272 s
  | Density mixing & preconditioning           :        0.019 s           0.019 s
  | Hartree multipole update                   :        0.000 s           0.000 s
  | Hartree multipole summation                :        0.127 s           0.127 s
  | Integration                                :        0.161 s           0.161 s
  | Solution of K.-S. eqns.                    :        0.127 s           0.127 s
  | Total energy evaluation                    :        0.000 s           0.000 s

  Partial memory accounting:
  | Current value for overall tracked memory usage on task 0  :           2.725 MB
  | Peak value for overall tracked memory usage on task 0     :           4.400 MB after allocating wave
  | Largest tracked array allocation on task 0 so far         :           2.500 MB  when allocating +KS_eigenvector_complex
  Note:  These values currently only include a subset of arrays which are explicitly tracked.
  The "true" memory usage will be greater.
------------------------------------------------------------

------------------------------------------------------------
          Begin self-consistency iteration #    2

  Date     :  20190514, Time     :  123533.204
------------------------------------------------------------
  Evaluating new KS density using the density matrix
  Evaluating density matrix
  Time summed over all CPUs for getting density from density matrix: real work        0.253 s, elapsed        0.253 s
  Integration grid: deviation in total charge (<rho> - N_e) =  -2.913225E-13
  Pulay mixing of updated and previous charge densities.

  Evaluating partitioned Hartree potential by multipole expansion.
  | Analytical far-field extrapolation by fixed multipoles:
  | Hartree multipole sum: apparent total charge =  -0.174956E-02
  Summing up the Hartree potential.
  Time summed over all CPUs for potential: real work        0.159 s, elapsed        0.159 s
  | RMS charge density error from multipole expansion :   0.148708E-02
  | Average real-space part of the electrostatic potential :     -0.18460459 eV

  Integrating Hamiltonian matrix: batch-based integration.
  Time summed over all CPUs for integration: real work        0.156 s, elapsed        0.156 s

  Updating Kohn-Sham eigenvalues, eigenvectors, occupation numbers, and Fermi level.
  Solving generalized eigenproblem

  Obtaining occupation numbers and chemical potential using ELSI.
  | Chemical potential (Fermi level):    -4.95087620eV
  What follows are estimated values for band gap, HOMO, LUMO, etc.
  | They are estimated on a discrete k-point grid and not necessarily exact.
  | For converged numbers, create a DOS and/or band structure plot on a denser k-grid.

  Highest occupied state (VBM) at     -4.95125003 eV (relative to internal zero)
  | Occupation number:      1.04216256
  | K-point:     532 at    0.416667    0.166667    0.833333 (in units of recip. lattice)

  Lowest unoccupied state (CBM) at    -4.92497439 eV (relative to internal zero)
  | Occupation number:      0.00024921
  | K-point:     768 at    0.750000    0.166667    0.583333 (in units of recip. lattice)

  ESTIMATED overall HOMO-LUMO gap:      0.02627564 eV between HOMO at k-point 532 and LUMO at k-point 768
  | This appears to be an indirect band gap.
  | Smallest direct gap :      0.56628078 eV for k_point 656 at    0.750000    0.166667    0.583333 (in units of recip. lattice)
  However, this system has fractional occupation numbers. Since we use a finite k-point grid,
  this material is metallic within the approximate finite broadening function (occupation_type)
  applied to determine the occupation numbers.

  Checking to see if s.c.f. parameters should be adjusted.
  Adjusted the Pulay mixing parameter (charge_mix_param) for an expected low-gap system. New value:   0.020000 .
  Adjusted the occupation broadening width for an expected low-gap system. New value:      0.05000000 eV.

  Total energy components:
  | Sum of eigenvalues            :        -163.78551149 Ha       -4456.83052878 eV
  | XC energy correction          :         -19.67944398 Ha        -535.50491678 eV
  | XC potential correction       :          26.00076257 Ha         707.51674756 eV
  | Free-atom electrostatic energy:        -132.15282194 Ha       -3596.06125055 eV
  | Hartree energy correction     :           0.31413724 Ha           8.54810932 eV
  | Entropy correction            :          -0.00003867 Ha          -0.00105223 eV
  | ---------------------------
  | Total energy                  :        -289.30287760 Ha       -7872.33183923 eV
  | Total energy, T -> 0          :        -289.30291627 Ha       -7872.33289146 eV  <-- do not rely on this value for anything but (periodic) metals
  | Electronic free energy        :        -289.30295493 Ha       -7872.33394369 eV

  Derived energy quantities:
  | Kinetic energy                :         289.32325555 Ha        7872.88635169 eV
  | Electrostatic energy          :        -558.94668917 Ha      -15209.71327414 eV
  | Energy correction for multipole
  | error in Hartree potential    :           0.00018890 Ha           0.00514014 eV
  | Sum of eigenvalues per atom                           :       -4456.83052878 eV
  | Total energy (T->0) per atom                          :       -7872.33289146 eV  <-- do not rely on this value for anything but (periodic) metals
  | Electronic free energy per atom                       :       -7872.33394369 eV

  Self-consistency convergence accuracy:
  | Change of charge density      :  0.2463E-01
  | Change of sum of eigenvalues  : -0.7784E+01 eV
  | Change of total energy        :  0.1949E-01 eV

  End self-consistency iteration #     2       :  max(cpu_time)    wall_clock(cpu1)
  | Time for this iteration                    :        0.734 s           0.734 s
  | Charge density update                      :        0.273 s           0.274 s
  | Density mixing & preconditioning           :        0.018 s           0.018 s
  | Hartree multipole update                   :        0.000 s           0.000 s
  | Hartree multipole summation                :        0.161 s           0.161 s
  | Integration                                :        0.156 s           0.156 s
  | Solution of K.-S. eqns.                    :        0.125 s           0.125 s
  | Total energy evaluation                    :        0.000 s           0.000 s

  Partial memory accounting:
  | Current value for overall tracked memory usage on task 0  :           2.726 MB
  | Peak value for overall tracked memory usage on task 0     :           4.400 MB after allocating wave
  | Largest tracked array allocation on task 0 so far         :           2.500 MB  when allocating +KS_eigenvector_complex
  Note:  These values currently only include a subset of arrays which are explicitly tracked.
  The "true" memory usage will be greater.
------------------------------------------------------------

------------------------------------------------------------
          Begin self-consistency iteration #    3

  Date     :  20190514, Time     :  123533.938
------------------------------------------------------------
  Evaluating new KS density using the density matrix
  Evaluating density matrix
  Time summed over all CPUs for getting density from density matrix: real work        0.247 s, elapsed        0.247 s
  Integration grid: deviation in total charge (<rho> - N_e) =  -3.410605E-13
  Pulay mixing of updated and previous charge densities.

  Evaluating partitioned Hartree potential by multipole expansion.
  | Analytical far-field extrapolation by fixed multipoles:
  | Hartree multipole sum: apparent total charge =  -0.251139E-02
  Summing up the Hartree potential.
  Time summed over all CPUs for potential: real work        0.162 s, elapsed        0.162 s
  | RMS charge density error from multipole expansion :   0.203471E-02
  | Average real-space part of the electrostatic potential :     -0.25380997 eV

  Integrating Hamiltonian matrix: batch-based integration.
  Time summed over all CPUs for integration: real work        0.156 s, elapsed        0.156 s

  Updating Kohn-Sham eigenvalues, eigenvectors, occupation numbers, and Fermi level.
  Solving generalized eigenproblem

  Obtaining occupation numbers and chemical potential using ELSI.
  | Chemical potential (Fermi level):    -5.00121608eV
  What follows are estimated values for band gap, HOMO, LUMO, etc.
  | They are estimated on a discrete k-point grid and not necessarily exact.
  | For converged numbers, create a DOS and/or band structure plot on a denser k-grid.

  Highest occupied state (VBM) at     -5.02012404 eV (relative to internal zero)
  | Occupation number:      1.40721023
  | K-point:     435 at    0.333333    0.333333    0.000000 (in units of recip. lattice)

  Lowest unoccupied state (CBM) at    -4.98891726 eV (relative to internal zero)
  | Occupation number:      0.72794286
  | K-point:     235 at    0.166667    0.416667    0.833333 (in units of recip. lattice)

  ESTIMATED overall HOMO-LUMO gap:      0.03120678 eV between HOMO at k-point 435 and LUMO at k-point 235
  | This appears to be an indirect band gap.
  | Smallest direct gap :      0.57012325 eV for k_point 656 at    0.166667    0.416667    0.833333 (in units of recip. lattice)
  However, this system has fractional occupation numbers. Since we use a finite k-point grid,
  this material is metallic within the approximate finite broadening function (occupation_type)
  applied to determine the occupation numbers.

  Total energy components:
  | Sum of eigenvalues            :        -163.88381511 Ha       -4459.50550628 eV
  | XC energy correction          :         -19.67207503 Ha        -535.30439753 eV
  | XC potential correction       :          25.99103760 Ha         707.25211758 eV
  | Free-atom electrostatic energy:        -132.15282194 Ha       -3596.06125055 eV
  | Hartree energy correction     :           0.41485682 Ha          11.28882851 eV
  | Entropy correction            :          -0.00003195 Ha          -0.00086930 eV
  | ---------------------------
  | Total energy                  :        -289.30281766 Ha       -7872.33020828 eV
  | Total energy, T -> 0          :        -289.30284961 Ha       -7872.33107758 eV  <-- do not rely on this value for anything but (periodic) metals
  | Electronic free energy        :        -289.30288155 Ha       -7872.33194688 eV

  Derived energy quantities:
  | Kinetic energy                :         289.26262036 Ha        7871.23638418 eV
  | Electrostatic energy          :        -558.89336299 Ha      -15208.26219492 eV
  | Energy correction for multipole
  | error in Hartree potential    :           0.00026787 Ha           0.00728907 eV
  | Sum of eigenvalues per atom                           :       -4459.50550628 eV
  | Total energy (T->0) per atom                          :       -7872.33107758 eV  <-- do not rely on this value for anything but (periodic) metals
  | Electronic free energy per atom                       :       -7872.33194688 eV

  Self-consistency convergence accuracy:
  | Change of charge density      :  0.6167E-02
  | Change of sum of eigenvalues  : -0.2675E+01 eV
  | Change of total energy        :  0.1631E-02 eV

  End self-consistency iteration #     3       :  max(cpu_time)    wall_clock(cpu1)
  | Time for this iteration                    :        0.731 s           0.731 s
  | Charge density update                      :        0.269 s           0.269 s
  | Density mixing & preconditioning           :        0.018 s           0.018 s
  | Hartree multipole update                   :        0.000 s           0.001 s
  | Hartree multipole summation                :        0.163 s           0.163 s
  | Integration                                :        0.156 s           0.156 s
  | Solution of K.-S. eqns.                    :        0.124 s           0.124 s
  | Total energy evaluation                    :        0.000 s           0.000 s

  Partial memory accounting:
  | Current value for overall tracked memory usage on task 0  :           2.726 MB
  | Peak value for overall tracked memory usage on task 0     :           4.400 MB after allocating wave
  | Largest tracked array allocation on task 0 so far         :           2.500 MB  when allocating +KS_eigenvector_complex
  Note:  These values currently only include a subset of arrays which are explicitly tracked.
  The "true" memory usage will be greater.
------------------------------------------------------------

------------------------------------------------------------
          Begin self-consistency iteration #    4

  Date     :  20190514, Time     :  123534.669
------------------------------------------------------------
  Evaluating new KS density using the density matrix
  Evaluating density matrix
  Time summed over all CPUs for getting density from density matrix: real work        0.271 s, elapsed        0.271 s
  Integration grid: deviation in total charge (<rho> - N_e) =  -3.854694E-13
  Pulay mixing of updated and previous charge densities.

  Evaluating partitioned Hartree potential by multipole expansion.
  | Analytical far-field extrapolation by fixed multipoles:
  | Hartree multipole sum: apparent total charge =  -0.233902E-02
  Summing up the Hartree potential.
  Time summed over all CPUs for potential: real work        0.163 s, elapsed        0.163 s
  | RMS charge density error from multipole expansion :   0.187366E-02
  | Average real-space part of the electrostatic potential :     -0.23826115 eV

  Integrating Hamiltonian matrix: batch-based integration.
  Time summed over all CPUs for integration: real work        0.159 s, elapsed        0.159 s

  Updating Kohn-Sham eigenvalues, eigenvectors, occupation numbers, and Fermi level.
  Solving generalized eigenproblem

  Obtaining occupation numbers and chemical potential using ELSI.
  | Chemical potential (Fermi level):    -4.98946639eV
  What follows are estimated values for band gap, HOMO, LUMO, etc.
  | They are estimated on a discrete k-point grid and not necessarily exact.
  | For converged numbers, create a DOS and/or band structure plot on a denser k-grid.

  Highest occupied state (VBM) at     -5.00437797 eV (relative to internal zero)
  | Occupation number:      1.32680224
  | K-point:     435 at    0.333333    0.333333    0.000000 (in units of recip. lattice)

  Lowest unoccupied state (CBM) at    -4.97723870 eV (relative to internal zero)
  | Occupation number:      0.72945448
  | K-point:     593 at    0.416667    0.750000    0.583333 (in units of recip. lattice)

  ESTIMATED overall HOMO-LUMO gap:      0.02713928 eV between HOMO at k-point 435 and LUMO at k-point 593
  | This appears to be an indirect band gap.
  | Smallest direct gap :      0.56909953 eV for k_point 656 at    0.416667    0.750000    0.583333 (in units of recip. lattice)
  However, this system has fractional occupation numbers. Since we use a finite k-point grid,
  this material is metallic within the approximate finite broadening function (occupation_type)
  applied to determine the occupation numbers.

  Total energy components:
  | Sum of eigenvalues            :        -163.81890873 Ha       -4457.73931374 eV
  | XC energy correction          :         -19.67925882 Ha        -535.49987850 eV
  | XC potential correction       :          26.00056432 Ha         707.51135292 eV
  | Free-atom electrostatic energy:        -132.15282194 Ha       -3596.06125055 eV
  | Hartree energy correction     :           0.34761749 Ha           9.45915326 eV
  | Entropy correction            :          -0.00003218 Ha          -0.00087561 eV
  | ---------------------------
  | Total energy                  :        -289.30280768 Ha       -7872.32993659 eV
  | Total energy, T -> 0          :        -289.30283985 Ha       -7872.33081220 eV  <-- do not rely on this value for anything but (periodic) metals
  | Electronic free energy        :        -289.30287203 Ha       -7872.33168782 eV

  Derived energy quantities:
  | Kinetic energy                :         289.37905201 Ha        7874.40465036 eV
  | Electrostatic energy          :        -559.00260086 Ha      -15211.23470845 eV
  | Energy correction for multipole
  | error in Hartree potential    :           0.00025442 Ha           0.00692322 eV
  | Sum of eigenvalues per atom                           :       -4457.73931374 eV
  | Total energy (T->0) per atom                          :       -7872.33081220 eV  <-- do not rely on this value for anything but (periodic) metals
  | Electronic free energy per atom                       :       -7872.33168782 eV

  Self-consistency convergence accuracy:
  | Change of charge density      :  0.7225E-02
  | Change of sum of eigenvalues  :  0.1766E+01 eV
  | Change of total energy        :  0.2717E-03 eV

  End self-consistency iteration #     4       :  max(cpu_time)    wall_clock(cpu1)
  | Time for this iteration                    :        0.761 s           0.761 s
  | Charge density update                      :        0.293 s           0.293 s
  | Density mixing & preconditioning           :        0.018 s           0.018 s
  | Hartree multipole update                   :        0.000 s           0.001 s
  | Hartree multipole summation                :        0.165 s           0.164 s
  | Integration                                :        0.158 s           0.159 s
  | Solution of K.-S. eqns.                    :        0.126 s           0.126 s
  | Total energy evaluation                    :        0.000 s           0.000 s

  Partial memory accounting:
  | Current value for overall tracked memory usage on task 0  :           2.727 MB
  | Peak value for overall tracked memory usage on task 0     :           4.400 MB after allocating wave
  | Largest tracked array allocation on task 0 so far         :           2.500 MB  when allocating +KS_eigenvector_complex
  Note:  These values currently only include a subset of arrays which are explicitly tracked.
  The "true" memory usage will be greater.
------------------------------------------------------------

------------------------------------------------------------
          Begin self-consistency iteration #    5

  Date     :  20190514, Time     :  123535.430
------------------------------------------------------------
  Evaluating new KS density using the density matrix
  Evaluating density matrix
  Time summed over all CPUs for getting density from density matrix: real work        0.254 s, elapsed        0.254 s
  Integration grid: deviation in total charge (<rho> - N_e) =  -4.689582E-13
  Pulay mixing of updated and previous charge densities.

  Evaluating partitioned Hartree potential by multipole expansion.
  | Analytical far-field extrapolation by fixed multipoles:
  | Hartree multipole sum: apparent total charge =  -0.225366E-02
  Summing up the Hartree potential.
  Time summed over all CPUs for potential: real work        0.163 s, elapsed        0.163 s
  | RMS charge density error from multipole expansion :   0.186139E-02
  | Average real-space part of the electrostatic potential :     -0.23714646 eV

  Integrating Hamiltonian matrix: batch-based integration.
  Time summed over all CPUs for integration: real work        0.160 s, elapsed        0.160 s

  Updating Kohn-Sham eigenvalues, eigenvectors, occupation numbers, and Fermi level.
  Solving generalized eigenproblem

  Obtaining occupation numbers and chemical potential using ELSI.
  | Chemical potential (Fermi level):    -4.98864310eV
  What follows are estimated values for band gap, HOMO, LUMO, etc.
  | They are estimated on a discrete k-point grid and not necessarily exact.
  | For converged numbers, create a DOS and/or band structure plot on a denser k-grid.

  Highest occupied state (VBM) at     -5.00331885 eV (relative to internal zero)
  | Occupation number:      1.32192609
  | K-point:     435 at    0.333333    0.333333    0.000000 (in units of recip. lattice)

  Lowest unoccupied state (CBM) at    -4.97641569 eV (relative to internal zero)
  | Occupation number:      0.72946053
  | K-point:     603 at    0.416667    0.833333    0.666667 (in units of recip. lattice)

  ESTIMATED overall HOMO-LUMO gap:      0.02690315 eV between HOMO at k-point 435 and LUMO at k-point 603
  | This appears to be an indirect band gap.
  | Smallest direct gap :      0.56901846 eV for k_point 656 at    0.416667    0.833333    0.666667 (in units of recip. lattice)
  However, this system has fractional occupation numbers. Since we use a finite k-point grid,
  this material is metallic within the approximate finite broadening function (occupation_type)
  applied to determine the occupation numbers.

  Total energy components:
  | Sum of eigenvalues            :        -163.81746359 Ha       -4457.69998953 eV
  | XC energy correction          :         -19.67929915 Ha        -535.50097588 eV
  | XC potential correction       :          26.00061704 Ha         707.51278752 eV
  | Free-atom electrostatic energy:        -132.15282194 Ha       -3596.06125055 eV
  | Hartree energy correction     :           0.34615952 Ha           9.41947977 eV
  | Entropy correction            :          -0.00003219 Ha          -0.00087604 eV
  | ---------------------------
  | Total energy                  :        -289.30280812 Ha       -7872.32994866 eV
  | Total energy, T -> 0          :        -289.30284031 Ha       -7872.33082470 eV  <-- do not rely on this value for anything but (periodic) metals
  | Electronic free energy        :        -289.30287251 Ha       -7872.33170073 eV

  Derived energy quantities:
  | Kinetic energy                :         289.37854917 Ha        7874.39096739 eV
  | Electrostatic energy          :        -559.00205813 Ha      -15211.21994018 eV
  | Energy correction for multipole
  | error in Hartree potential    :           0.00025251 Ha           0.00687124 eV
  | Sum of eigenvalues per atom                           :       -4457.69998953 eV
  | Total energy (T->0) per atom                          :       -7872.33082470 eV  <-- do not rely on this value for anything but (periodic) metals
  | Electronic free energy per atom                       :       -7872.33170073 eV

  Self-consistency convergence accuracy:
  | Change of charge density      :  0.1128E-02
  | Change of sum of eigenvalues  :  0.3932E-01 eV
  | Change of total energy        : -0.1207E-04 eV

  End self-consistency iteration #     5       :  max(cpu_time)    wall_clock(cpu1)
  | Time for this iteration                    :        0.745 s           0.746 s
  | Charge density update                      :        0.276 s           0.276 s
  | Density mixing & preconditioning           :        0.018 s           0.018 s
  | Hartree multipole update                   :        0.000 s           0.000 s
  | Hartree multipole summation                :        0.164 s           0.165 s
  | Integration                                :        0.160 s           0.160 s
  | Solution of K.-S. eqns.                    :        0.126 s           0.126 s
  | Total energy evaluation                    :        0.000 s           0.000 s

  Partial memory accounting:
  | Current value for overall tracked memory usage on task 0  :           2.727 MB
  | Peak value for overall tracked memory usage on task 0     :           4.400 MB after allocating wave
  | Largest tracked array allocation on task 0 so far         :           2.500 MB  when allocating +KS_eigenvector_complex
  Note:  These values currently only include a subset of arrays which are explicitly tracked.
  The "true" memory usage will be greater.
------------------------------------------------------------

------------------------------------------------------------
          Begin self-consistency iteration #    6

  Date     :  20190514, Time     :  123536.176
------------------------------------------------------------
  Evaluating new KS density using the density matrix
  Evaluating density matrix
  Time summed over all CPUs for getting density from density matrix: real work        0.254 s, elapsed        0.254 s
  Integration grid: deviation in total charge (<rho> - N_e) =  -4.192202E-13
  Pulay mixing of updated and previous charge densities.

  Evaluating partitioned Hartree potential by multipole expansion.
  | Analytical far-field extrapolation by fixed multipoles:
  | Hartree multipole sum: apparent total charge =  -0.148838E-03
  Summing up the Hartree potential.
  Time summed over all CPUs for potential: real work        0.161 s, elapsed        0.161 s
  | RMS charge density error from multipole expansion :   0.188539E-02
  | Average real-space part of the electrostatic potential :     -0.25552794 eV

  Integrating Hamiltonian matrix: batch-based integration.
  Time summed over all CPUs for integration: real work        0.159 s, elapsed        0.159 s

  Updating Kohn-Sham eigenvalues, eigenvectors, occupation numbers, and Fermi level.
  Solving generalized eigenproblem

  Obtaining occupation numbers and chemical potential using ELSI.
  | Chemical potential (Fermi level):    -4.99026932eV
  What follows are estimated values for band gap, HOMO, LUMO, etc.
  | They are estimated on a discrete k-point grid and not necessarily exact.
  | For converged numbers, create a DOS and/or band structure plot on a denser k-grid.

  Highest occupied state (VBM) at     -5.00598647 eV (relative to internal zero)
  | Occupation number:      1.34335382
  | K-point:      38 at    0.000000    0.333333    0.333333 (in units of recip. lattice)

  Lowest unoccupied state (CBM) at    -4.97803393 eV (relative to internal zero)
  | Occupation number:      0.72929086
  | K-point:     539 at    0.416667    0.250000    0.583333 (in units of recip. lattice)

  ESTIMATED overall HOMO-LUMO gap:      0.02795255 eV between HOMO at k-point 38 and LUMO at k-point 539
  | This appears to be an indirect band gap.
  | Smallest direct gap :      0.56933909 eV for k_point 493 at    0.416667    0.250000    0.583333 (in units of recip. lattice)
  However, this system has fractional occupation numbers. Since we use a finite k-point grid,
  this material is metallic within the approximate finite broadening function (occupation_type)
  applied to determine the occupation numbers.

  Total energy components:
  | Sum of eigenvalues            :        -163.82838919 Ha       -4457.99729034 eV
  | XC energy correction          :         -19.67741822 Ha        -535.44979326 eV
  | XC potential correction       :          25.99813983 Ha         707.44537907 eV
  | Free-atom electrostatic energy:        -132.15282194 Ha       -3596.06125055 eV
  | Hartree energy correction     :           0.35768257 Ha           9.73303795 eV
  | Entropy correction            :          -0.00003213 Ha          -0.00087426 eV
  | ---------------------------
  | Total energy                  :        -289.30280696 Ha       -7872.32991712 eV
  | Total energy, T -> 0          :        -289.30283909 Ha       -7872.33079138 eV  <-- do not rely on this value for anything but (periodic) metals
  | Electronic free energy        :        -289.30287122 Ha       -7872.33166564 eV

  Derived energy quantities:
  | Kinetic energy                :         289.36264159 Ha        7873.95810023 eV
  | Electrostatic energy          :        -558.98803033 Ha      -15210.83822409 eV
  | Energy correction for multipole
  | error in Hartree potential    :           0.00025616 Ha           0.00697059 eV
  | Sum of eigenvalues per atom                           :       -4457.99729034 eV
  | Total energy (T->0) per atom                          :       -7872.33079138 eV  <-- do not rely on this value for anything but (periodic) metals
  | Electronic free energy per atom                       :       -7872.33166564 eV

  Self-consistency convergence accuracy:
  | Change of charge density      :  0.1117E-02
  | Change of sum of eigenvalues  : -0.2973E+00 eV
  | Change of total energy        :  0.3154E-04 eV

  End self-consistency iteration #     6       :  max(cpu_time)    wall_clock(cpu1)
  | Time for this iteration                    :        0.745 s           0.745 s
  | Charge density update                      :        0.275 s           0.275 s
  | Density mixing & preconditioning           :        0.018 s           0.018 s
  | Hartree multipole update                   :        0.000 s           0.000 s
  | Hartree multipole summation                :        0.162 s           0.163 s
  | Integration                                :        0.160 s           0.160 s
  | Solution of K.-S. eqns.                    :        0.130 s           0.129 s
  | Total energy evaluation                    :        0.000 s           0.000 s

  Partial memory accounting:
  | Current value for overall tracked memory usage on task 0  :           2.727 MB
  | Peak value for overall tracked memory usage on task 0     :           4.400 MB after allocating wave
  | Largest tracked array allocation on task 0 so far         :           2.500 MB  when allocating +KS_eigenvector_complex
  Note:  These values currently only include a subset of arrays which are explicitly tracked.
  The "true" memory usage will be greater.
------------------------------------------------------------

------------------------------------------------------------
          Begin self-consistency iteration #    7

  Date     :  20190514, Time     :  123536.921
------------------------------------------------------------
  Evaluating new KS density using the density matrix
  Evaluating density matrix
  Time summed over all CPUs for getting density from density matrix: real work        0.250 s, elapsed        0.250 s
  Integration grid: deviation in total charge (<rho> - N_e) =  -3.570477E-13
  Pulay mixing of updated and previous charge densities.

  Evaluating partitioned Hartree potential by multipole expansion.
  | Analytical far-field extrapolation by fixed multipoles:
  | Hartree multipole sum: apparent total charge =  -0.116623E-03
  Summing up the Hartree potential.
  Time summed over all CPUs for potential: real work        0.161 s, elapsed        0.161 s
  | RMS charge density error from multipole expansion :   0.188525E-02
  | Average real-space part of the electrostatic potential :     -0.25573445 eV

  Integrating Hamiltonian matrix: batch-based integration.
  Time summed over all CPUs for integration: real work        0.157 s, elapsed        0.157 s

  Updating Kohn-Sham eigenvalues, eigenvectors, occupation numbers, and Fermi level.
  Solving generalized eigenproblem

  Obtaining occupation numbers and chemical potential using ELSI.
  | Chemical potential (Fermi level):    -4.99025979eV
  What follows are estimated values for band gap, HOMO, LUMO, etc.
  | They are estimated on a discrete k-point grid and not necessarily exact.
  | For converged numbers, create a DOS and/or band structure plot on a denser k-grid.

  Highest occupied state (VBM) at     -5.00598272 eV (relative to internal zero)
  | Occupation number:      1.34347183
  | K-point:      38 at    0.000000    0.333333    0.333333 (in units of recip. lattice)

  Lowest unoccupied state (CBM) at    -4.97802434 eV (relative to internal zero)
  | Occupation number:      0.72928955
  | K-point:     539 at    0.416667    0.250000    0.583333 (in units of recip. lattice)

  ESTIMATED overall HOMO-LUMO gap:      0.02795838 eV between HOMO at k-point 38 and LUMO at k-point 539
  | This appears to be an indirect band gap.
  | Smallest direct gap :      0.56934081 eV for k_point 493 at    0.416667    0.250000    0.583333 (in units of recip. lattice)
  However, this system has fractional occupation numbers. Since we use a finite k-point grid,
  this material is metallic within the approximate finite broadening function (occupation_type)
  applied to determine the occupation numbers.

  Total energy components:
  | Sum of eigenvalues            :        -163.82847861 Ha       -4457.99972357 eV
  | XC energy correction          :         -19.67739543 Ha        -535.44917303 eV
  | XC potential correction       :          25.99810981 Ha         707.44456224 eV
  | Free-atom electrostatic energy:        -132.15282194 Ha       -3596.06125055 eV
  | Hartree energy correction     :           0.35777921 Ha           9.73566776 eV
  | Entropy correction            :          -0.00003213 Ha          -0.00087425 eV
  | ---------------------------
  | Total energy                  :        -289.30280696 Ha       -7872.32991715 eV
  | Total energy, T -> 0          :        -289.30283909 Ha       -7872.33079140 eV  <-- do not rely on this value for anything but (periodic) metals
  | Electronic free energy        :        -289.30287122 Ha       -7872.33166565 eV

  Derived energy quantities:
  | Kinetic energy                :         289.36242760 Ha        7873.95227718 eV
  | Electrostatic energy          :        -558.98783913 Ha      -15210.83302130 eV
  | Energy correction for multipole
  | error in Hartree potential    :           0.00025613 Ha           0.00696976 eV
  | Sum of eigenvalues per atom                           :       -4457.99972357 eV
  | Total energy (T->0) per atom                          :       -7872.33079140 eV  <-- do not rely on this value for anything but (periodic) metals
  | Electronic free energy per atom                       :       -7872.33166565 eV

  Self-consistency convergence accuracy:
  | Change of charge density      :  0.5196E-04
  | Change of sum of eigenvalues  : -0.2433E-02 eV
  | Change of total energy        : -0.2540E-07 eV

  End self-consistency iteration #     7       :  max(cpu_time)    wall_clock(cpu1)
  | Time for this iteration                    :        0.735 s           0.736 s
  | Charge density update                      :        0.271 s           0.272 s
  | Density mixing & preconditioning           :        0.018 s           0.017 s
  | Hartree multipole update                   :        0.000 s           0.001 s
  | Hartree multipole summation                :        0.163 s           0.162 s
  | Integration                                :        0.157 s           0.157 s
  | Solution of K.-S. eqns.                    :        0.126 s           0.126 s
  | Total energy evaluation                    :        0.000 s           0.001 s

  Partial memory accounting:
  | Current value for overall tracked memory usage on task 0  :           2.728 MB
  | Peak value for overall tracked memory usage on task 0     :           4.400 MB after allocating wave
  | Largest tracked array allocation on task 0 so far         :           2.500 MB  when allocating +KS_eigenvector_complex
  Note:  These values currently only include a subset of arrays which are explicitly tracked.
  The "true" memory usage will be greater.
------------------------------------------------------------

------------------------------------------------------------
          Begin self-consistency iteration #    8

  Date     :  20190514, Time     :  123537.657
------------------------------------------------------------
  Evaluating new KS density using the density matrix
  Evaluating density matrix
  Time summed over all CPUs for getting density from density matrix: real work        0.254 s, elapsed        0.254 s
  Integration grid: deviation in total charge (<rho> - N_e) =  -3.126388E-13
  Pulay mixing of updated and previous charge densities.

  Evaluating partitioned Hartree potential by multipole expansion.
  | Analytical far-field extrapolation by fixed multipoles:
  | Hartree multipole sum: apparent total charge =   0.212968E-03
  Summing up the Hartree potential.
  Time summed over all CPUs for potential: real work        0.160 s, elapsed        0.160 s
  | RMS charge density error from multipole expansion :   0.188131E-02
  | Average real-space part of the electrostatic potential :     -0.25758330 eV

  Integrating Hamiltonian matrix: batch-based integration.
  Time summed over all CPUs for integration: real work        0.157 s, elapsed        0.157 s

  Updating Kohn-Sham eigenvalues, eigenvectors, occupation numbers, and Fermi level.
  Solving generalized eigenproblem

  Obtaining occupation numbers and chemical potential using ELSI.
  | Chemical potential (Fermi level):    -4.99002751eV
  What follows are estimated values for band gap, HOMO, LUMO, etc.
  | They are estimated on a discrete k-point grid and not necessarily exact.
  | For converged numbers, create a DOS and/or band structure plot on a denser k-grid.

  Highest occupied state (VBM) at     -5.00577615 eV (relative to internal zero)
  | Occupation number:      1.34399723
  | K-point:     435 at    0.333333    0.333333    0.000000 (in units of recip. lattice)

  Lowest unoccupied state (CBM) at    -4.97779286 eV (relative to internal zero)
  | Occupation number:      0.72930645
  | K-point:     267 at    0.166667    0.750000    0.333333 (in units of recip. lattice)

  ESTIMATED overall HOMO-LUMO gap:      0.02798329 eV between HOMO at k-point 435 and LUMO at k-point 267
  | This appears to be an indirect band gap.
  | Smallest direct gap :      0.56935571 eV for k_point 656 at    0.166667    0.750000    0.333333 (in units of recip. lattice)
  However, this system has fractional occupation numbers. Since we use a finite k-point grid,
  this material is metallic within the approximate finite broadening function (occupation_type)
  applied to determine the occupation numbers.

  Total energy components:
  | Sum of eigenvalues            :        -163.82858680 Ha       -4458.00266756 eV
  | XC energy correction          :         -19.67727152 Ha        -535.44580135 eV
  | XC potential correction       :          25.99794764 Ha         707.44014952 eV
  | Free-atom electrostatic energy:        -132.15282194 Ha       -3596.06125055 eV
  | Hartree energy correction     :           0.35792566 Ha           9.73965289 eV
  | Entropy correction            :          -0.00003213 Ha          -0.00087420 eV
  | ---------------------------
  | Total energy                  :        -289.30280696 Ha       -7872.32991706 eV
  | Total energy, T -> 0          :        -289.30283908 Ha       -7872.33079125 eV  <-- do not rely on this value for anything but (periodic) metals
  | Electronic free energy        :        -289.30287121 Ha       -7872.33166545 eV

  Derived energy quantities:
  | Kinetic energy                :         289.36197075 Ha        7873.93984567 eV
  | Electrostatic energy          :        -558.98750618 Ha      -15210.82396137 eV
  | Energy correction for multipole
  | error in Hartree potential    :           0.00025551 Ha           0.00695279 eV
  | Sum of eigenvalues per atom                           :       -4458.00266756 eV
  | Total energy (T->0) per atom                          :       -7872.33079125 eV  <-- do not rely on this value for anything but (periodic) metals
  | Electronic free energy per atom                       :       -7872.33166545 eV

  Self-consistency convergence accuracy:
  | Change of charge density      :  0.4317E-04
  | Change of sum of eigenvalues  : -0.2944E-02 eV
  | Change of total energy        :  0.8963E-07 eV

  End self-consistency iteration #     8       :  max(cpu_time)    wall_clock(cpu1)
  | Time for this iteration                    :        0.739 s           0.739 s
  | Charge density update                      :        0.277 s           0.276 s
  | Density mixing & preconditioning           :        0.018 s           0.018 s
  | Hartree multipole update                   :        0.000 s           0.001 s
  | Hartree multipole summation                :        0.161 s           0.161 s
  | Integration                                :        0.158 s           0.157 s
  | Solution of K.-S. eqns.                    :        0.125 s           0.126 s
  | Total energy evaluation                    :        0.000 s           0.000 s

  Partial memory accounting:
  | Current value for overall tracked memory usage on task 0  :           2.728 MB
  | Peak value for overall tracked memory usage on task 0     :           4.400 MB after allocating wave
  | Largest tracked array allocation on task 0 so far         :           2.500 MB  when allocating +KS_eigenvector_complex
  Note:  These values currently only include a subset of arrays which are explicitly tracked.
  The "true" memory usage will be greater.
------------------------------------------------------------

------------------------------------------------------------
          Begin self-consistency iteration #    9

  Date     :  20190514, Time     :  123538.396
------------------------------------------------------------
  Evaluating new KS density using the density matrix
  Evaluating density matrix
  Time summed over all CPUs for getting density from density matrix: real work        0.255 s, elapsed        0.255 s
  Integration grid: deviation in total charge (<rho> - N_e) =  -2.344791E-13
  Pulay mixing of updated and previous charge densities.

  Evaluating partitioned Hartree potential by multipole expansion.
  | Analytical far-field extrapolation by fixed multipoles:
  | Hartree multipole sum: apparent total charge =   0.214263E-03
  Summing up the Hartree potential.
  Time summed over all CPUs for potential: real work        0.160 s, elapsed        0.160 s
  | RMS charge density error from multipole expansion :   0.188133E-02
  | Average real-space part of the electrostatic potential :     -0.25758899 eV

  Integrating Hamiltonian matrix: batch-based integration.
  Time summed over all CPUs for integration: real work        0.176 s, elapsed        0.176 s

  Updating Kohn-Sham eigenvalues, eigenvectors, occupation numbers, and Fermi level.
  Solving generalized eigenproblem

  Obtaining occupation numbers and chemical potential using ELSI.
  | Chemical potential (Fermi level):    -4.99002710eV
  What follows are estimated values for band gap, HOMO, LUMO, etc.
  | They are estimated on a discrete k-point grid and not necessarily exact.
  | For converged numbers, create a DOS and/or band structure plot on a denser k-grid.

  Highest occupied state (VBM) at     -5.00577656 eV (relative to internal zero)
  | Occupation number:      1.34401418
  | K-point:     435 at    0.333333    0.333333    0.000000 (in units of recip. lattice)

  Lowest unoccupied state (CBM) at    -4.97779242 eV (relative to internal zero)
  | Occupation number:      0.72930602
  | K-point:     593 at    0.416667    0.750000    0.583333 (in units of recip. lattice)

  ESTIMATED overall HOMO-LUMO gap:      0.02798414 eV between HOMO at k-point 435 and LUMO at k-point 593
  | This appears to be an indirect band gap.
  | Smallest direct gap :      0.56935589 eV for k_point 656 at    0.416667    0.750000    0.583333 (in units of recip. lattice)
  However, this system has fractional occupation numbers. Since we use a finite k-point grid,
  this material is metallic within the approximate finite broadening function (occupation_type)
  applied to determine the occupation numbers.

  Total energy components:
  | Sum of eigenvalues            :        -163.82860360 Ha       -4458.00312464 eV
  | XC energy correction          :         -19.67726922 Ha        -535.44573857 eV
  | XC potential correction       :          25.99794459 Ha         707.44006645 eV
  | Free-atom electrostatic energy:        -132.15282194 Ha       -3596.06125055 eV
  | Hartree energy correction     :           0.35794322 Ha           9.74013046 eV
  | Entropy correction            :          -0.00003213 Ha          -0.00087420 eV
  | ---------------------------
  | Total energy                  :        -289.30280695 Ha       -7872.32991685 eV
  | Total energy, T -> 0          :        -289.30283908 Ha       -7872.33079105 eV  <-- do not rely on this value for anything but (periodic) metals
  | Electronic free energy        :        -289.30287120 Ha       -7872.33166524 eV

  Derived energy quantities:
  | Kinetic energy                :         289.36194476 Ha        7873.93913845 eV
  | Electrostatic energy          :        -558.98748249 Ha      -15210.82331673 eV
  | Energy correction for multipole
  | error in Hartree potential    :           0.00025552 Ha           0.00695294 eV
  | Sum of eigenvalues per atom                           :       -4458.00312464 eV
  | Total energy (T->0) per atom                          :       -7872.33079105 eV  <-- do not rely on this value for anything but (periodic) metals
  | Electronic free energy per atom                       :       -7872.33166524 eV

  Self-consistency convergence accuracy:
  | Change of charge density      :  0.2514E-05
  | Change of sum of eigenvalues  : -0.4571E-03 eV
  | Change of total energy        :  0.2037E-06 eV

  End self-consistency iteration #     9       :  max(cpu_time)    wall_clock(cpu1)
  | Time for this iteration                    :        0.761 s           0.761 s
  | Charge density update                      :        0.277 s           0.277 s
  | Density mixing & preconditioning           :        0.018 s           0.018 s
  | Hartree multipole update                   :        0.000 s           0.001 s
  | Hartree multipole summation                :        0.162 s           0.161 s
  | Integration                                :        0.176 s           0.176 s
  | Solution of K.-S. eqns.                    :        0.128 s           0.128 s
  | Total energy evaluation                    :        0.000 s           0.000 s

  Partial memory accounting:
  | Current value for overall tracked memory usage on task 0  :           2.728 MB
  | Peak value for overall tracked memory usage on task 0     :           4.400 MB after allocating wave
  | Largest tracked array allocation on task 0 so far         :           2.500 MB  when allocating +KS_eigenvector_complex
  Note:  These values currently only include a subset of arrays which are explicitly tracked.
  The "true" memory usage will be greater.
------------------------------------------------------------

------------------------------------------------------------
          Begin self-consistency iteration #   10

  Date     :  20190514, Time     :  123539.157
------------------------------------------------------------
  Evaluating new KS density using the density matrix
  Evaluating density matrix
  Time summed over all CPUs for getting density from density matrix: real work        0.252 s, elapsed        0.252 s
  Integration grid: deviation in total charge (<rho> - N_e) =  -3.179679E-13
  Pulay mixing of updated and previous charge densities.

  Evaluating partitioned Hartree potential by multipole expansion.
  | Analytical far-field extrapolation by fixed multipoles:
  | Hartree multipole sum: apparent total charge =   0.214272E-03
  Summing up the Hartree potential.
  Time summed over all CPUs for potential: real work        0.159 s, elapsed        0.159 s
  | RMS charge density error from multipole expansion :   0.188132E-02
  | Average real-space part of the electrostatic potential :     -0.25758694 eV

  Integrating Hamiltonian matrix: batch-based integration.
  Time summed over all CPUs for integration: real work        0.158 s, elapsed        0.158 s

  Updating Kohn-Sham eigenvalues, eigenvectors, occupation numbers, and Fermi level.
  Solving generalized eigenproblem

  Obtaining occupation numbers and chemical potential using ELSI.
  | Chemical potential (Fermi level):    -4.99002607eV
  What follows are estimated values for band gap, HOMO, LUMO, etc.
  | They are estimated on a discrete k-point grid and not necessarily exact.
  | For converged numbers, create a DOS and/or band structure plot on a denser k-grid.

  Highest occupied state (VBM) at     -5.00577522 eV (relative to internal zero)
  | Occupation number:      1.34400780
  | K-point:     435 at    0.333333    0.333333    0.000000 (in units of recip. lattice)

  Lowest unoccupied state (CBM) at    -4.97779140 eV (relative to internal zero)
  | Occupation number:      0.72930606
  | K-point:     593 at    0.416667    0.750000    0.583333 (in units of recip. lattice)

  ESTIMATED overall HOMO-LUMO gap:      0.02798382 eV between HOMO at k-point 435 and LUMO at k-point 593
  | This appears to be an indirect band gap.
  | Smallest direct gap :      0.56935579 eV for k_point 656 at    0.416667    0.750000    0.583333 (in units of recip. lattice)
  However, this system has fractional occupation numbers. Since we use a finite k-point grid,
  this material is metallic within the approximate finite broadening function (occupation_type)
  applied to determine the occupation numbers.

  Total energy components:
  | Sum of eigenvalues            :        -163.82860116 Ha       -4458.00305827 eV
  | XC energy correction          :         -19.67726940 Ha        -535.44574342 eV
  | XC potential correction       :          25.99794482 Ha         707.44007284 eV
  | Free-atom electrostatic energy:        -132.15282194 Ha       -3596.06125055 eV
  | Hartree energy correction     :           0.35794072 Ha           9.74006255 eV
  | Entropy correction            :          -0.00003213 Ha          -0.00087420 eV
  | ---------------------------
  | Total energy                  :        -289.30280695 Ha       -7872.32991686 eV
  | Total energy, T -> 0          :        -289.30283908 Ha       -7872.33079106 eV  <-- do not rely on this value for anything but (periodic) metals
  | Electronic free energy        :        -289.30287120 Ha       -7872.33166525 eV

  Derived energy quantities:
  | Kinetic energy                :         289.36194591 Ha        7873.93916975 eV
  | Electrostatic energy          :        -558.98748346 Ha      -15210.82334319 eV
  | Energy correction for multipole
  | error in Hartree potential    :           0.00025551 Ha           0.00695288 eV
  | Sum of eigenvalues per atom                           :       -4458.00305827 eV
  | Total energy (T->0) per atom                          :       -7872.33079106 eV  <-- do not rely on this value for anything but (periodic) metals
  | Electronic free energy per atom                       :       -7872.33166525 eV

  Self-consistency convergence accuracy:
  | Change of charge density      :  0.1122E-06
  | Change of sum of eigenvalues  :  0.6637E-04 eV
  | Change of total energy        : -0.6450E-08 eV

  Preliminary charge convergence reached. Turning off preconditioner.

  Writing Kohn-Sham eigenvalues.
  K-point:       1 at    0.000000    0.000000    0.000000 (in units of recip. lattice)

  State    Occupation    Eigenvalue [Ha]    Eigenvalue [eV]
      1       2.00000         -65.531257        -1783.19623
      2       2.00000          -5.119273         -139.30251
      3       2.00000          -3.534131          -96.16860
      4       2.00000          -3.534131          -96.16860
      5       2.00000          -3.534131          -96.16860
      6       2.00000          -0.528149          -14.37166
      7       0.00000          -0.004008           -0.10907
      8       0.00000          -0.004008           -0.10907
      9       0.00000          -0.004008           -0.10907
     10       0.00000           0.196573            5.34901

  What follows are estimated values for band gap, HOMO, LUMO, etc.
  | They are estimated on a discrete k-point grid and not necessarily exact.
  | For converged numbers, create a DOS and/or band structure plot on a denser k-grid.

  Highest occupied state (VBM) at     -5.00577522 eV (relative to internal zero)
  | Occupation number:      1.34400780
  | K-point:     435 at    0.333333    0.333333    0.000000 (in units of recip. lattice)

  Lowest unoccupied state (CBM) at    -4.97779140 eV (relative to internal zero)
  | Occupation number:      0.72930606
  | K-point:     593 at    0.416667    0.750000    0.583333 (in units of recip. lattice)

  ESTIMATED overall HOMO-LUMO gap:      0.02798382 eV between HOMO at k-point 435 and LUMO at k-point 593
  | This appears to be an indirect band gap.
  | Smallest direct gap :      0.56935579 eV for k_point 656 at    0.416667    0.750000    0.583333 (in units of recip. lattice)
  However, this system has fractional occupation numbers. Since we use a finite k-point grid,
  this material is metallic within the approximate finite broadening function (occupation_type)
  applied to determine the occupation numbers.

  Self-consistency cycle converged.

  End self-consistency iteration #    10       :  max(cpu_time)    wall_clock(cpu1)
  | Time for this iteration                    :        0.738 s           0.738 s
  | Charge density update                      :        0.273 s           0.273 s
  | Density mixing                             :        0.018 s           0.018 s
  | Hartree multipole update                   :        0.000 s           0.000 s
  | Hartree multipole summation                :        0.161 s           0.161 s
  | Integration                                :        0.158 s           0.158 s
  | Solution of K.-S. eqns.                    :        0.127 s           0.127 s
  | Total energy evaluation                    :        0.000 s           0.001 s

  Partial memory accounting:
  | Current value for overall tracked memory usage on task 0  :           2.728 MB
  | Peak value for overall tracked memory usage on task 0     :           4.400 MB after allocating wave
  | Largest tracked array allocation on task 0 so far         :           2.500 MB  when allocating +KS_eigenvector_complex
  Note:  These values currently only include a subset of arrays which are explicitly tracked.
  The "true" memory usage will be greater.
------------------------------------------------------------

  Energy and forces in a compact form:
  | Total energy uncorrected      :         -0.787232991686019E+04 eV
  | Total energy corrected        :         -0.787233079105584E+04 eV  <-- do not rely on this value for anything but (periodic) metals
  | Electronic free energy        :         -0.787233166525149E+04 eV

  ------------------------------------ 
  Start decomposition of the XC Energy 
  ------------------------------------ 
  X and C from original XC functional choice 
  Hartree-Fock Energy :          0.000000000 Ha              0.000000000 eV
  X Energy            :        -18.617307777 Ha           -506.602720268 eV
  C Energy            :         -1.059961618 Ha            -28.843023156 eV
  Total XC Energy     :        -19.677269395 Ha           -535.445743423 eV
  ------------------------------------ 
  LDA X and C from self-consistent density 
  X Energy LDA        :        -18.617307777 Ha           -506.602720268 eV
  C Energy LDA        :         -1.059961618 Ha            -28.843023156 eV
  ------------------------------------ 
  End decomposition of the XC Energy 
  ------------------------------------ 

------------------------------------------------------------

------------------------------------------------------------------------------
  Final output of selected total energy values:

  The following output summarizes some interesting total energy values
  at the end of a run (AFTER all relaxation, molecular dynamics, etc.).

  | Total energy of the DFT / Hartree-Fock s.c.f. calculation      :          -7872.329916860 eV
  | Final zero-broadening corrected energy (caution - metals only) :          -7872.330791056 eV
  | For reference only, the value of 1 Hartree used in FHI-aims is :             27.211384500 eV

  Before relying on these values, please be sure to understand exactly which
  total energy value is referred to by a given number. Different objects may
  all carry the same name 'total energy'. Definitions:

  Total energy of the DFT / Hartree-Fock s.c.f. calculation:
  | Note that this energy does not include ANY quantities calculated after the
  | s.c.f. cycle, in particular not ANY RPA, MP2, etc. many-body perturbation terms.

  Final zero-broadening corrected energy:
  | For metallic systems only, a broadening of the occupation numbers at the Fermi
  | level can be extrapolated back to zero broadening by an electron-gas inspired
  | formula. For all systems that are not real metals, this value can be
  | meaningless and should be avoided.

------------------------------------------------------------------------------
  Methods described in the following list of references were used in this FHI-aims run.
  If you publish the results, please make sure to cite these reference if they apply.
  FHI-aims is an academic code, and for our developers (often, Ph.D. students
  and postdocs), scientific credit in the community is essential.
  Thank you for helping us!

  For any use of FHI-aims, please cite:

    Volker Blum, Ralf Gehrke, Felix Hanke, Paula Havu, Ville Havu,
    Xinguo Ren, Karsten Reuter, and Matthias Scheffler
    'Ab initio molecular simulations with numeric atom-centered orbitals'
    Computer Physics Communications 180, 2175-2196 (2009)
    http://dx.doi.org/10.1016/j.cpc.2009.06.022


  For the real-space grid partitioning and parallelization used in this calculation, please cite:

    Ville Havu, Volker Blum, Paula Havu, and Matthias Scheffler,
    'Efficient O(N) integration for all-electron electronic structure calculation'
    'using numerically tabulated basis functions'
    Journal of Computational Physics 228, 8367-8379 (2009).
    http://dx.doi.org/10.1016/j.jcp.2009.08.008

  Of course, there are many other important community references, e.g., those cited in the
  above references. Our list is limited to references that describe implementations in the
  FHI-aims code. The reason is purely practical (length of this list) - please credit others as well.

------------------------------------------------------------
          Leaving FHI-aims.
          Date     :  20190514, Time     :  123539.899

          Computational steps:
          | Number of self-consistency cycles          :           10
          | Number of SCF (re)initializations          :            1

          Detailed time accounting                     :  max(cpu_time)    wall_clock(cpu1)
          | Total time                                 :        8.108 s           8.108 s
          | Preparation time                           :        0.098 s           0.098 s
          | Boundary condition initalization           :        0.029 s           0.029 s
          | Grid partitioning                          :        0.010 s           0.010 s
          | Preloading free-atom quantities on grid    :        0.001 s           0.001 s
          | Free-atom superposition energy             :        0.011 s           0.010 s
          | Total time for integrations                :        1.857 s           1.859 s
          | Total time for solution of K.-S. equations :        1.519 s           1.518 s
          | Total time for density update              :        2.757 s           2.757 s
          | Total time for mixing & preconditioning    :        0.181 s           0.180 s
          | Total time for Hartree multipole update    :        0.004 s           0.005 s
          | Total time for Hartree multipole sum       :        1.589 s           1.588 s
          | Total time for total energy evaluation     :        0.002 s           0.003 s
          | Total time for scaled ZORA corrections     :        0.000 s           0.000 s

 This is a stub MPI_ALLREDUCE call.
 You should not be here. Check your
 setting on the use_mpi variable, or
 link against true MPI-libraries.
