------------------------------------------------------------
          Invoking FHI-aims ...
          Version 171221_1
          Compiled on 2019/05/06 at 14:26:40 on host ffph0xx.

          When using FHI-aims, please cite the following reference:

          Volker Blum, Ralf Gehrke, Felix Hanke, Paula Havu,
          Ville Havu, Xinguo Ren, Karsten Reuter, and Matthias Scheffler,
          'Ab Initio Molecular Simulations with Numeric Atom-Centered Orbitals',
          Computer Physics Communications 180, 2175-2196 (2009)

          For any questions about FHI-aims, please visit the aimsclub website
          with its forums and wiki. Contributions to both the forums and the
          wiki are warmly encouraged - they are for you, and everyone is welcome there.

------------------------------------------------------------



  Date     :  20190514, Time     :  123643.059
  Time zero on CPU 1             :   0.800000000000000E-03  s.
  Internal wall clock time zero  :           327069403.059  s.

  FHI-aims created a unique identifier for this run for later identification
  aims_uuid : 22D6D26B-A041-40BB-AC97-75B4117A9ED0


  Performing system and environment tests:
  *** Environment variable OMP_NUM_THREADS is not set
  *** For performance reasons you might want to set it to 1
  | Stacksize not measured: no C compiler

  Obtaining array dimensions for all initial allocations:
  
  -----------------------------------------------------------------------
  Parsing control.in (first pass over file, find array dimensions only).
  The contents of control.in will be repeated verbatim below
  unless switched off by setting 'verbatim_writeout .false.' .
  in the first line of control.in .
  -----------------------------------------------------------------------
  
  #--- method ---
  xc pw-lda
  spin none
  relativistic atomic_zora scalar
  #---
  
  #--- k-grid settings ---
  k_grid 12 12 12
  #---
  
  
  
  
  
  
  
  
  
  
  
  #-------------------------------------------------------------------------------
  #--- Species defaults for Si
  #-------------------------------------------------------------------------------
  
  ################################################################################
  #
  #  FHI-aims code project
  #  VB, Fritz-Haber Institut, 2009
  #
  #  Suggested "light" defaults for Si atom (to be pasted into control.in file)
  #  Be sure to double-check any results obtained with these settings for post-processing,
  #  e.g., with the "tight" defaults and larger basis sets.
  #
  ################################################################################
    species        Si
  #     global species definitions
      nucleus             14
      mass                28.0855
  #
      l_hartree           4
  #
      cut_pot             3.5          1.5  1.0
      basis_dep_cutoff    1e-4
  #
      radial_base         42 5.0
      radial_multiplier   1
      angular_grids       specified
        division   0.5866   50
        division   0.9616  110
        division   1.2249  194
        division   1.3795  302
  #      division   1.4810  434
  #      division   1.5529  590
  #      division   1.6284  770
  #      division   1.7077  974
  #      division   2.4068 1202
  #      outer_grid   974
        outer_grid 302
  ################################################################################
  #
  #  Definition of "minimal" basis
  #
  ################################################################################
  #     valence basis states
      valence      3  s   2.
      valence      3  p   2.
  #     ion occupancy
      ion_occ      3  s   1.
      ion_occ      3  p   1.
  ################################################################################
  #
  #  Suggested additional basis functions. For production calculations,
  #  uncomment them one after another (the most important basis functions are
  #  listed first).
  #
  #  Constructed for dimers: 1.75 A, 2.0 A, 2.25 A, 2.75 A, 3.75 A
  #
  ################################################################################
  #  "First tier" - improvements: -571.96 meV to -37.03 meV
       hydro 3 d 4.2
       hydro 2 p 1.4
  #     hydro 4 f 6.2
       ionic 3 s auto
  #  "Second tier" - improvements: -16.76 meV to -3.03 meV
  #     hydro 3 d 9
  #     hydro 5 g 9.4
  #     hydro 4 p 4
  #     hydro 1 s 0.65
  #  "Third tier" - improvements: -3.89 meV to -0.60 meV
  #     ionic 3 d auto
  #     hydro 3 s 2.6
  #     hydro 4 f 8.4
  #     hydro 3 d 3.4
  #     hydro 3 p 7.8
  #  "Fourth tier" - improvements: -0.33 meV to -0.11 meV
  #     hydro 2 p 1.6
  #     hydro 5 g 10.8
  #     hydro 5 f 11.2
  #     hydro 3 d 1
  #     hydro 4 s 4.5
  #  Further basis functions that fell out of the optimization - noise
  #  level... < -0.08 meV
  #     hydro 4 d 6.6
  #     hydro 5 g 16.4
  #     hydro 4 d 9
  
  -----------------------------------------------------------------------
  Completed first pass over input file control.in .
  -----------------------------------------------------------------------
  
  
  -----------------------------------------------------------------------
  Parsing geometry.in (first pass over file, find array dimensions only).
  The contents of geometry.in will be repeated verbatim below
  unless switched off by setting 'verbatim_writeout .false.' .
  in the first line of geometry.in .
  -----------------------------------------------------------------------
  
  lattice_vector   0.000000   3.000000   3.000000
  lattice_vector   3.000000   0.000000   3.000000
  lattice_vector   3.000000   3.000000   0.000000
  atom_frac   0.000000   0.000000   0.000000 Si
  
  -----------------------------------------------------------------------
  Completed first pass over input file geometry.in .
  -----------------------------------------------------------------------
  

  Basic array size parameters:
  | Number of species                 :        1
  | Number of atoms                   :        1
  | Number of lattice vectors         :        3
  | Max. basis fn. angular momentum   :        2
  | Max. atomic/ionic basis occupied n:        3
  | Max. number of basis fn. types    :        3
  | Max. radial fns per species/type  :        5
  | Max. logarithmic grid size        :     1346
  | Max. radial integration grid size :       42
  | Max. angular integration grid size:      302
  | Max. angular grid division number :        8
  | Radial grid for Hartree potential :     1346
  | Number of spin channels           :        1

------------------------------------------------------------
          Reading file control.in.
------------------------------------------------------------
  XC: Using Perdew-Wang parametrisation of Ceperley-Alder LDA.
  Spin treatment: No spin polarisation.
  Scalar relativistic treatment of kinetic energy: on-site free-atom approximation to ZORA.
  Found k-point grid:        12        12        12

  Reading configuration options for species Si                  .
  | Found nuclear charge :  14.0000
  | Found atomic mass :    28.085500000000000      amu
  | Found l_max for Hartree potential  :   4
  | Found cutoff potl. onset [A], width [A], scale factor :    3.50000    1.50000    1.00000
  | Threshold for basis-dependent cutoff potential is   0.100000E-03
  | Found data for basic radial integration grid :    42 points, outermost radius =    5.000 A
  | Found multiplier for basic radial grid :   1
  | Found angular grid specification: user-specified.
  | Specified grid contains     5 separate shells.
  | Check grid settings after all constraints further below.
  | Found free-atom valence shell :  3 s   2.000
  | Found free-atom valence shell :  3 p   2.000
  | Found free-ion valence shell :  3 s   1.000
  | Found free-ion valence shell :  3 p   1.000
  | Found hydrogenic basis function :  3 d   4.200
  | Found hydrogenic basis function :  2 p   1.400
  | Found ionic basis function :  3 s , default cutoff radius.
  Species Si                  : Missing cutoff potential type.
  Defaulting to exp(1/x)/(1-x)^2 type cutoff potential.
  Species Si: No 'logarithmic' tag. Using default grid for free atom:
  | Default logarithmic grid data [bohr] : 0.1000E-03 0.1000E+03 0.1012E+01
  | Will include ionic basis functions of  2.0-fold positive Si                   ion.
  Species Si: On-site basis accuracy parameter (for Gram-Schmidt orthonormalisation) not specified.
  Using default value basis_acc =  0.1000000E-03.
  Species Si                  : Using default innermost maximum threshold i_radial=  2 for radial functions.
  Species Si                  : Default cutoff onset for free atom density etc. : 0.35000000E+01 AA.
  Species Si                  : Basic radial grid will be enhanced according to radial_multiplier =   1, to contain    42 grid points.

  Finished reading input file 'control.in'. Consistency checks are next.

  MPI_IN_PLACE appears to work with this MPI implementation.
  | Keeping use_mpi_in_place .true. (see manual).
  Target number of points in a grid batch is not set. Defaulting to  100
  Method for grid partitioning is not set. Defaulting to 'maxmin' partitioning.
  Batch size limit is not set. Defaulting to    200
  By default, will store active basis functions for each batch.
  If in need of memory, prune_basis_once .false. can be used to disable this option.
  communication_type for Hartree potential was not specified.
  Defaulting to calc_hartree .
 * Attention: 
 * You may want to set distributed_spline_storage to .true. in order to save memory.
 * This doesn't harm performance and is perfectly ok unless:
 * - you get error messages in postprocessing (about missing atoms in get_rho_multipole_spl)
 * - you need full spline storage in hirshfeld_analysis
  Defaulting to Pulay charge density mixer.
  Pulay mixer: Number of relevant iterations not set.
  Defaulting to    8 iterations.
  Pulay mixer: Number of initial linear mixing iterations not set.
  Defaulting to    0 iterations.
  Work space size for distributed Hartree potential not set.
  Defaulting to   0.200000E+03 MB.
  Mixing parameter for charge density mixing has not been set.
  Using default: charge_mix_param =     0.0500.
  The mixing parameter will be adjusted in iteration number     2 of the first full s.c.f. cycle only.
  Algorithm-dependent basis array size parameters:
  | n_max_pulay                         :        8
 * Notice: The s.c.f. convergence criterion sc_accuracy_rho was not provided.
 * We used to stop in this case, and ask the user to provide reasonable
 * scf convergence criteria. However, this led some users to employ criteria
 * that led to extremely long run times, e.g., for simple relaxation.
 * We now preset a default value for sc_accuracy_rho if it is not set.
 * You may still wish to check if this setting is too tight or too loose for your needs.
 * Based on n_atoms, FHI-aims chose sc_accuracy_rho =  0.100000E-05 .
  Maximum number of self-consistency iterations not provided.
  Presetting  1000 iterations.
  Presetting      1001 iterations before the initial mixing cycle
  is restarted anyway using the sc_init_iter criterion / keyword.
  Presetting a factor      1.000 between actual scf density residual
  and density convergence criterion sc_accuracy_rho below which sc_init_iter
  takes no effect.
 * No s.c.f. convergence criteria (sc_accuracy_*) were provided in control.in.
 * The run will proceed with a reasonable default guess, but please check whether.
 * the s.c.f. cycles seem to take too much or too little time.
  Calculation of forces was not defined in control.in. No forces will be calculated.
  Geometry relaxation not requested: no relaxation will be performed.
  No accuracy limit for integral partition fn. given. Defaulting to  0.1000E-14.
  No threshold value for u(r) in integrations given. Defaulting to  0.1000E-05.
  No occupation type (smearing scheme) given. Defaulting to Gaussian broadening, width =  0.1000E-01 eV.
  The width will be adjusted in iteration number     2 of the first full s.c.f. cycle only.
  S.C.F. convergence parameters will be adjusted in iteration number     2 of the first full s.c.f. cycle only.
  No accuracy for occupation numbers given. Defaulting to  0.1000E-12.
  No threshold value for occupation numbers given. Defaulting to  0.0000E+00.
  No accuracy for fermi level given. Defaulting to  0.1000E-19.
  Maximum # of iterations to find E_F not set. Defaulting to  200.
  Preferred method for the eigenvalue solver ('KS_method') not specified in 'control.in'.
  Defaulting to serial version, 'lapack_fast'.
  Will not use alltoall communication since running on < 1024 CPUs.
  Threshold for basis singularities not set.
  Default threshold for basis singularities:  0.1000E-04
  partition_type (choice of integration weights) for integrals was not specified.
  | Using a version of the partition function of Stratmann and coworkers ('stratmann_smoother').
  | At each grid point, the set of atoms used to build the partition table is smoothly restricted to
  | only those atoms whose free-atom density would be non-zero at that grid point.
  Partitioning for Hartree potential was not defined. Using partition_type for integrals.
  | Adjusted default value of keyword multip_moments_threshold to:       0.10000000E-11
  | This value may affect high angular momentum components of the Hartree potential in periodic systems.
  Angular momentum expansion for Kerker preconditioner not set explicitly.
  | Using default value of   0
  No explicit requirement for turning off preconditioner.
  | By default, it will be turned off when the charge convergence reaches
  | sc_accuracy_rho  =   0.100000E-05
  No special mixing parameter while Kerker preconditioner is on.
  Using default: charge_mix_param =     0.0500.
  No q(lm)/r^(l+1) cutoff set for long-range Hartree potential.
  | Using default value of  0.100000E-09 .
  | Verify using the multipole_threshold keyword.
  Defaulting to new monopole extrapolation.
  Density update method: automatic selection selected.
  Using density matrix based charge density update.
  Using density matrix based charge density update.
  Using packed matrix style: index .
  Defaulting to use time-reversal symmetry for k-point grid.
------------------------------------------------------------


------------------------------------------------------------
          Reading geometry description geometry.in.
------------------------------------------------------------
  Input structure read successfully.
  The structure contains        1 atoms,  and a total of         14.000 electrons.

  Input geometry:
  | Unit cell:
  |        0.00000000        3.00000000        3.00000000
  |        3.00000000        0.00000000        3.00000000
  |        3.00000000        3.00000000        0.00000000
  | Atomic structure:
  |       Atom                x [A]            y [A]            z [A]
  |    1: Species Si            0.00000000        0.00000000        0.00000000

  Lattice parameters for 3D lattice (in Angstroms) :     4.242641    4.242641    4.242641
  Angle(s) between unit vectors (in degrees)      :    60.000000   60.000000   60.000000

  |

  | The smallest distance between any two atoms is         4.24264069 AA.
  |
  | The first atom of this pair is atom number                      1 .
  | The second atom of this pair is atom number                     1 .
  | Wigner-Seitz cell of the first atom image          -1     0     1 .
  | (The Wigner-Seitz cell of the second atom is 0 0 0  by definition.)

  Quantities derived from the lattice vectors:
  | Reciprocal lattice vector 1: -1.047198  1.047198  1.047198
  | Reciprocal lattice vector 2:  1.047198 -1.047198  1.047198
  | Reciprocal lattice vector 3:  1.047198  1.047198 -1.047198
  | Unit cell volume                               :   0.540000E+02  A^3

  Range separation radius for Ewald summation (hartree_convergence_parameter):      5.00000000 bohr.

  Fractional coordinates:
                         L1                L2                L3
       atom_frac         0.00000000        0.00000000        0.00000000  Si

  Number of empty states per atom not set in control.in - providing a guess from actual geometry.
  | Total number of empty states used during s.c.f. cycle:        3
  If you use a very high smearing, use empty_states (per atom!) in control.in to increase this value.

  Structure-dependent array size parameters: 
  | Maximum number of distinct radial functions  :        8
  | Maximum number of basis functions            :       18
  | Number of Kohn-Sham states (occupied + empty):       10
------------------------------------------------------------

------------------------------------------------------------
          Preparing all fixed parts of the calculation.
------------------------------------------------------------
  Determining machine precision:
     2.2250738585072014E-308
  Setting up grids for atomic and cluster calculations.

  Creating wave function, potential, and density for free atoms.

  Species: Si

  List of occupied orbitals and eigenvalues:
    n    l              occ      energy [Ha]    energy [eV]
    1    0           2.0000       -65.491668     -1782.1190
    2    0           2.0000        -5.087967      -138.4506
    3    0           2.0000        -0.391471       -10.6525
    2    1           6.0000        -3.502246       -95.3010
    3    1           2.0000        -0.143943        -3.9169

  Creating fixed part of basis set: Ionic, confined, hydrogenic.

  Si                   ion:

  List of free ionic orbitals and eigenvalues:
    n    l      energy [Ha]    energy [eV]
    1    0       -66.364436     -1805.8682
    2    0        -5.935799      -161.5213
    3    0        -1.078166       -29.3384
    2    1        -4.351123      -118.4001
    3    1        -0.781733       -21.2720


  List of ionic basis orbitals and eigenvalues:
    n    l      energy [Ha]    energy [eV]    outer radius [A]
    3    0        -1.078146       -29.3378       4.214062


  Si                   hydrogenic:

  List of hydrogenic basis orbitals: 
    n    l      effective z      eigenvalue [eV]  inner max. [A]     outer max. [A]     outer radius [A]   
    3    2         4.200000       -26.6624           1.139231           1.139231           4.534782
    2    1         1.400000        -6.4613           1.472672           1.472672           4.590560


  Adding cutoff potential to free-atom effective potential.
  Creating atomic-like basis functions for current effective potential.

  Species Si                  :

  List of atomic basis orbitals and eigenvalues:
    n    l      energy [Ha]    energy [eV]    outer radius [A]
    1    0       -65.491668     -1782.1190       0.789468
    2    0        -5.087967      -138.4506       2.815114
    3    0        -0.391471       -10.6525       4.534782
    2    1        -3.502246       -95.3010       3.259919
    3    1        -0.143943        -3.9169       4.590560

  Assembling full basis from fixed parts.
  | Species Si :   atomic orbital   1 s accepted.
  | Species Si :   atomic orbital   2 s accepted.
  | Species Si :    ionic orbital   3 s accepted.
  | Species Si :   atomic orbital   3 s accepted.
  | Species Si :   atomic orbital   2 p accepted.
  | Species Si :   atomic orbital   3 p accepted.
  | Species Si :    hydro orbital   2 p accepted.
  | Species Si :    hydro orbital   3 d accepted.

  Basis size parameters after reduction:
  | Total number of radial functions:        8
  | Total number of basis functions :       18

  Per-task memory consumption for arrays in subroutine allocate_ext:
  |           2.757468MB.
  Testing on-site integration grid accuracy.
  |  Species  Function  <phi|h_atom|phi> (log., in eV)  <phi|h_atom|phi> (rad., in eV)
           1        1              -1782.1189727076              -1782.1182429251
           1        2               -138.4506350693               -138.4506310079
           1        3                -10.3030408815                -10.3029120678
           1        4                  5.0238999146                  4.9457540310 ***
           1        5                -95.3009689499                -95.3009689315
           1        6                 -3.9266496564                 -3.9420918374
           1        7                  6.3453628447                  6.1632372158 ***
           1        8                  6.2883050744                  6.2861881409
 * Note: Onsite integrals marked "***" above are less accurate than
 * onsite_accuracy_threshold =    0.03000 eV. Usually, this is harmless.
 * When in doubt, tighten the "radial" and/or "radial_multiplier" flags to check.

  Preparing densities etc. for the partition functions (integrals / Hartree potential).

  Preparations completed.
  max(cpu_time)          :      0.100 s.
  Wall clock time (cpu1) :      0.100 s.
------------------------------------------------------------

------------------------------------------------------------
          Begin self-consistency loop: Initialization.

          Date     :  20190514, Time     :  123643.160
------------------------------------------------------------

  Initializing index lists of integration centers etc. from given atomic structure:
  Mapping all atomic coordinates to central unit cell.

  Initializing the k-points
          Using symmetry for reducing the k-points
  | k-points reduced from:     1728 to      868
  | Number of k-points                             :       868
  The eigenvectors in the calculations are COMPLEX.
  | K-points in task   0:       868
  | Number of basis functions in the Hamiltonian integrals :       426
  | Number of basis functions in a single unit cell        :        18
  | Number of centers in hartree potential         :       381
  | Number of centers in hartree multipole         :        87
  | Number of centers in electron density summation:        79
  | Number of centers in basis integrals           :        79
  | Number of centers in integrals                 :        25
  | Number of centers in hamiltonian               :        79
  | Consuming       1085 KiB for k_phase.
  | Number of super-cells (origin) [n_cells]                     :        2197
  | Number of super-cells (after PM_index) [n_cells]             :          80
  | Number of super-cells in hamiltonian [n_cells_in_hamiltonian]:          80
  | Size of matrix packed + index [n_hamiltonian_matrix_size] :        7882
  Partitioning the integration grid into batches with maxmin method.
  | Maximal weight for a single point:     1.000
  | Minimal weight for a single point:     0.391
  | Number of batches:       64
  | Maximal batch size:      90
  | Minimal batch size:      85
  | Average batch size:      87.562
  | Standard deviation of batch sizes:       1.499
  Initializing partition tables, free-atom densities, potentials, etc. across the integration grid (initialize_grid_storage).
  | initialize_grid_storage: Actual outermost partition radius vs. multipole_radius_free
  | (-- VB: in principle, multipole_radius_free should be larger, hence this output)
  | Species        1: Confinement radius =              4.999999999999999 AA, multipole_radius_free =              5.000694715736543 AA.
  | Species        1: outer_partition_radius set to              5.000694715736543 AA .
  | Original list of interatomic distances with          79 x         79 entries is created.
  | Net number of integration points:     5604
  | of which are non-zero points    :     5382
  | Numerical average free-atom electrostatic potential    :     -4.87139392 eV
  Renormalizing the initial density to the exact electron count on the 3D integration grid.
  | Initial density: Formal number of electrons (from input files) :      14.0000000000
  | Integrated number of electrons on 3D grid     :      13.9996607732
  | Charge integration error                      :      -0.0003392268
  | Normalization factor for density and gradient :       1.0000242311
  Obtaining max. number of non-zero basis functions in each batch (get_n_compute_maxes).
  | Maximal number of non-zero basis functions:      220 in task     0
  Allocating        2.500 MB for KS_eigenvector_complex
  Integrating Hamiltonian matrix: batch-based integration.
  Time summed over all CPUs for integration: real work        0.070 s, elapsed        0.070 s
  Integrating overlap matrix.
  Time summed over all CPUs for integration: real work        0.048 s, elapsed        0.048 s
  Decreasing sparse matrix size:
   Tolerance:   9.9999998245167004E-014
   Hamiltonian matrix
  | Array has     5519 nonzero elements out of     7882 elements
  | Sparsity factor is 0.300
   Overlap matrix
  | Array has     5449 nonzero elements out of     7882 elements
  | Sparsity factor is 0.309
  New size of hamiltonian matrix:        5658

  Updating Kohn-Sham eigenvalues, eigenvectors, occupation numbers, and Fermi level.
  Solving generalized eigenproblem
  Transforming overlap matrix and checking for singularities.
  Overlap matrix is nonsingular at first k-point:
  | Lowest eigenvalue:  0.685414E-01

  Obtaining occupation numbers and chemical potential using ELSI.
  | Chemical potential (Fermi level):    -4.45383118eV
  Writing Kohn-Sham eigenvalues.
  K-point:       1 at    0.000000    0.000000    0.000000 (in units of recip. lattice)

  State    Occupation    Eigenvalue [Ha]    Eigenvalue [eV]
      1       2.00000         -65.491711        -1782.12012
      2       2.00000          -5.087984         -138.45108
      3       2.00000          -3.502264          -95.30145
      4       2.00000          -3.502264          -95.30145
      5       2.00000          -3.502264          -95.30145
      6       2.00000          -0.434451          -11.82201
      7       0.00000          -0.082600           -2.24766
      8       0.00000          -0.082600           -2.24766
      9       0.00000          -0.082600           -2.24766
     10       0.00000           0.067752            1.84362

  What follows are estimated values for band gap, HOMO, LUMO, etc.
  | They are estimated on a discrete k-point grid and not necessarily exact.
  | For converged numbers, create a DOS and/or band structure plot on a denser k-grid.

  Highest occupied state (VBM) at     -4.45660135 eV (relative to internal zero)
  | Occupation number:      1.30476536
  | K-point:     195 at    0.166667    0.083333    0.333333 (in units of recip. lattice)

  Lowest unoccupied state (CBM) at    -4.42648750 eV (relative to internal zero)
  | Occupation number:      0.00011019
  | K-point:       3 at    0.000000    0.000000    0.250000 (in units of recip. lattice)

  ESTIMATED overall HOMO-LUMO gap:      0.03011385 eV between HOMO at k-point 195 and LUMO at k-point 3
  | This appears to be an indirect band gap.
  | Smallest direct gap :      0.84153791 eV for k_point 376 at    0.000000    0.000000    0.250000 (in units of recip. lattice)
  However, this system has fractional occupation numbers. Since we use a finite k-point grid,
  this material is metallic within the approximate finite broadening function (occupation_type)
  applied to determine the occupation numbers.
  Calculating total energy contributions from superposition of free atom densities.

  Total energy components:
  | Sum of eigenvalues            :        -163.35010150 Ha       -4444.98241995 eV
  | XC energy correction          :         -19.64247327 Ha        -534.49889281 eV
  | XC potential correction       :          25.95279286 Ha         706.21142544 eV
  | Free-atom electrostatic energy:        -132.20263157 Ha       -3597.41663945 eV
  | Hartree energy correction     :          -0.00000000 Ha          -0.00000000 eV
  | Entropy correction            :          -0.00000385 Ha          -0.00010465 eV
  | ---------------------------
  | Total energy                  :        -289.24241347 Ha       -7870.68652677 eV
  | Total energy, T -> 0          :        -289.24241732 Ha       -7870.68663142 eV  <-- do not rely on this value for anything but (periodic) metals
  | Electronic free energy        :        -289.24242117 Ha       -7870.68673606 eV

  Derived energy quantities:
  | Kinetic energy                :         289.54602957 Ha        7878.94834098 eV
  | Electrostatic energy          :        -559.14596977 Ha      -15215.13597494 eV
  | Energy correction for multipole
  | error in Hartree potential    :           0.00000000 Ha           0.00000000 eV
  | Sum of eigenvalues per atom                           :       -4444.98241995 eV
  | Total energy (T->0) per atom                          :       -7870.68663142 eV  <-- do not rely on this value for anything but (periodic) metals
  | Electronic free energy per atom                       :       -7870.68673606 eV
  Initialize hartree_potential_storage
  Max. number of atoms included in rho_multipole:            1

  End scf initialization - timings             :  max(cpu_time)    wall_clock(cpu1)
  | Time for scf. initialization               :        0.402 s           0.402 s
  | Boundary condition initialization          :        0.031 s           0.031 s
  | Integration                                :        0.118 s           0.118 s
  | Solution of K.-S. eqns.                    :        0.219 s           0.219 s
  | Grid partitioning                          :        0.007 s           0.007 s
  | Preloading free-atom quantities on grid    :        0.001 s           0.001 s
  | Free-atom superposition energy             :        0.007 s           0.007 s
  | Total energy evaluation                    :        0.000 s           0.000 s

  Partial memory accounting:
  | Current value for overall tracked memory usage on task 0  :           2.613 MB
  | Peak value for overall tracked memory usage on task 0     :           3.520 MB after allocating wave
  | Largest tracked array allocation on task 0 so far         :           2.500 MB  when allocating +KS_eigenvector_complex
  Note:  These values currently only include a subset of arrays which are explicitly tracked.
  The "true" memory usage will be greater.
------------------------------------------------------------

------------------------------------------------------------
          Begin self-consistency iteration #    1

  Date     :  20190514, Time     :  123643.562
------------------------------------------------------------
  Evaluating new KS density using the density matrix
  Evaluating density matrix
  Time summed over all CPUs for getting density from density matrix: real work        0.110 s, elapsed        0.110 s
  Integration grid: deviation in total charge (<rho> - N_e) =  -4.032330E-13
  Pulay mixing of updated and previous charge densities.

  Evaluating partitioned Hartree potential by multipole expansion.
  | Analytical far-field extrapolation by fixed multipoles:
  | Hartree multipole sum: apparent total charge =  -0.499988E-03
  Summing up the Hartree potential.
  | Estimated reciprocal-space cutoff momentum G_max:         1.84432723 bohr^-1 .
  | Reciprocal lattice points for long-range Hartree potential:      50
  Time summed over all CPUs for potential: real work        0.106 s, elapsed        0.106 s
  | RMS charge density error from multipole expansion :   0.989894E-04
  | Average real-space part of the electrostatic potential :     -0.01116722 eV

  Integrating Hamiltonian matrix: batch-based integration.
  Time summed over all CPUs for integration: real work        0.071 s, elapsed        0.071 s

  Updating Kohn-Sham eigenvalues, eigenvectors, occupation numbers, and Fermi level.
  Solving generalized eigenproblem

  Obtaining occupation numbers and chemical potential using ELSI.
  | Chemical potential (Fermi level):    -4.46581872eV
  Writing Kohn-Sham eigenvalues.
  K-point:       1 at    0.000000    0.000000    0.000000 (in units of recip. lattice)

  State    Occupation    Eigenvalue [Ha]    Eigenvalue [eV]
      1       2.00000         -65.493621        -1782.17210
      2       2.00000          -5.089608         -138.49529
      3       2.00000          -3.503922          -95.34656
      4       2.00000          -3.503922          -95.34656
      5       2.00000          -3.503922          -95.34656
      6       2.00000          -0.434980          -11.83640
      7       0.00000          -0.083165           -2.26305
      8       0.00000          -0.083165           -2.26305
      9       0.00000          -0.083165           -2.26305
     10       0.00000           0.067226            1.82932

  What follows are estimated values for band gap, HOMO, LUMO, etc.
  | They are estimated on a discrete k-point grid and not necessarily exact.
  | For converged numbers, create a DOS and/or band structure plot on a denser k-grid.

  Highest occupied state (VBM) at     -4.46882577 eV (relative to internal zero)
  | Occupation number:      1.32935423
  | K-point:     221 at    0.166667    0.333333    0.250000 (in units of recip. lattice)

  Lowest unoccupied state (CBM) at    -4.43857590 eV (relative to internal zero)
  | Occupation number:      0.00011681
  | K-point:     291 at    0.250000    0.000000    0.000000 (in units of recip. lattice)

  ESTIMATED overall HOMO-LUMO gap:      0.03024987 eV between HOMO at k-point 221 and LUMO at k-point 291
  | This appears to be an indirect band gap.
  | Smallest direct gap :      0.84112041 eV for k_point 376 at    0.250000    0.000000    0.000000 (in units of recip. lattice)
  However, this system has fractional occupation numbers. Since we use a finite k-point grid,
  this material is metallic within the approximate finite broadening function (occupation_type)
  applied to determine the occupation numbers.

  Total energy components:
  | Sum of eigenvalues            :        -163.36911853 Ha       -4445.49989984 eV
  | XC energy correction          :         -19.64035298 Ha        -534.44119655 eV
  | XC potential correction       :          25.94999799 Ha         706.13537301 eV
  | Free-atom electrostatic energy:        -132.20263157 Ha       -3597.41663945 eV
  | Hartree energy correction     :           0.01980887 Ha           0.53902683 eV
  | Entropy correction            :          -0.00000386 Ha          -0.00010511 eV
  | ---------------------------
  | Total energy                  :        -289.24229622 Ha       -7870.68333601 eV
  | Total energy, T -> 0          :        -289.24230008 Ha       -7870.68344111 eV  <-- do not rely on this value for anything but (periodic) metals
  | Electronic free energy        :        -289.24230394 Ha       -7870.68354622 eV

  Derived energy quantities:
  | Kinetic energy                :         289.53974216 Ha        7878.77725195 eV
  | Electrostatic energy          :        -559.14168540 Ha      -15215.01939140 eV
  | Energy correction for multipole
  | error in Hartree potential    :           0.00000788 Ha           0.00021438 eV
  | Sum of eigenvalues per atom                           :       -4445.49989984 eV
  | Total energy (T->0) per atom                          :       -7870.68344111 eV  <-- do not rely on this value for anything but (periodic) metals
  | Electronic free energy per atom                       :       -7870.68354622 eV

  Self-consistency convergence accuracy:
  | Change of charge density      :  0.3229E-01
  | Change of sum of eigenvalues  : -0.5175E+00 eV
  | Change of total energy        :  0.3191E-02 eV

  End self-consistency iteration #     1       :  max(cpu_time)    wall_clock(cpu1)
  | Time for this iteration                    :        0.411 s           0.412 s
  | Charge density update                      :        0.120 s           0.121 s
  | Density mixing & preconditioning           :        0.013 s           0.013 s
  | Hartree multipole update                   :        0.000 s           0.000 s
  | Hartree multipole summation                :        0.108 s           0.108 s
  | Integration                                :        0.071 s           0.071 s
  | Solution of K.-S. eqns.                    :        0.098 s           0.098 s
  | Total energy evaluation                    :        0.000 s           0.000 s

  Partial memory accounting:
  | Current value for overall tracked memory usage on task 0  :           2.613 MB
  | Peak value for overall tracked memory usage on task 0     :           3.520 MB after allocating wave
  | Largest tracked array allocation on task 0 so far         :           2.500 MB  when allocating +KS_eigenvector_complex
  Note:  These values currently only include a subset of arrays which are explicitly tracked.
  The "true" memory usage will be greater.
------------------------------------------------------------

------------------------------------------------------------
          Begin self-consistency iteration #    2

  Date     :  20190514, Time     :  123643.974
------------------------------------------------------------
  Evaluating new KS density using the density matrix
  Evaluating density matrix
  Time summed over all CPUs for getting density from density matrix: real work        0.105 s, elapsed        0.105 s
  Integration grid: deviation in total charge (<rho> - N_e) =  -3.090861E-13
  Pulay mixing of updated and previous charge densities.

  Evaluating partitioned Hartree potential by multipole expansion.
  | Analytical far-field extrapolation by fixed multipoles:
  | Hartree multipole sum: apparent total charge =  -0.364514E-02
  Summing up the Hartree potential.
  Time summed over all CPUs for potential: real work        0.127 s, elapsed        0.127 s
  | RMS charge density error from multipole expansion :   0.202001E-02
  | Average real-space part of the electrostatic potential :     -0.26523928 eV

  Integrating Hamiltonian matrix: batch-based integration.
  Time summed over all CPUs for integration: real work        0.069 s, elapsed        0.069 s

  Updating Kohn-Sham eigenvalues, eigenvectors, occupation numbers, and Fermi level.
  Solving generalized eigenproblem

  Obtaining occupation numbers and chemical potential using ELSI.
  | Chemical potential (Fermi level):    -4.70989970eV
  What follows are estimated values for band gap, HOMO, LUMO, etc.
  | They are estimated on a discrete k-point grid and not necessarily exact.
  | For converged numbers, create a DOS and/or band structure plot on a denser k-grid.

  Highest occupied state (VBM) at     -4.71889234 eV (relative to internal zero)
  | Occupation number:      1.79653876
  | K-point:     757 at    0.666667    0.833333    0.916667 (in units of recip. lattice)

  Lowest unoccupied state (CBM) at    -4.70478652 eV (relative to internal zero)
  | Occupation number:      0.46961073
  | K-point:     258 at    0.166667    0.666667    0.333333 (in units of recip. lattice)

  ESTIMATED overall HOMO-LUMO gap:      0.01410582 eV between HOMO at k-point 757 and LUMO at k-point 258
  | This appears to be an indirect band gap.
  | Smallest direct gap :      0.83022880 eV for k_point 680 at    0.166667    0.666667    0.333333 (in units of recip. lattice)
  However, this system has fractional occupation numbers. Since we use a finite k-point grid,
  this material is metallic within the approximate finite broadening function (occupation_type)
  applied to determine the occupation numbers.

  Checking to see if s.c.f. parameters should be adjusted.
  Adjusted the Pulay mixing parameter (charge_mix_param) for an expected low-gap system. New value:   0.020000 .
  Adjusted the occupation broadening width for an expected low-gap system. New value:      0.05000000 eV.

  Total energy components:
  | Sum of eigenvalues            :        -163.82549604 Ha       -4457.91856365 eV
  | XC energy correction          :         -19.60031268 Ha        -533.35164456 eV
  | XC potential correction       :          25.89721414 Ha         704.69905154 eV
  | Free-atom electrostatic energy:        -132.20263157 Ha       -3597.41663945 eV
  | Hartree energy correction     :           0.49040102 Ha          13.34449062 eV
  | Entropy correction            :          -0.00003312 Ha          -0.00090128 eV
  | ---------------------------
  | Total energy                  :        -289.24082512 Ha       -7870.64330549 eV
  | Total energy, T -> 0          :        -289.24085824 Ha       -7870.64420677 eV  <-- do not rely on this value for anything but (periodic) metals
  | Electronic free energy        :        -289.24089136 Ha       -7870.64510805 eV

  Derived energy quantities:
  | Kinetic energy                :         289.22058735 Ha        7870.09260766 eV
  | Electrostatic energy          :        -558.86109979 Ha      -15207.38426859 eV
  | Energy correction for multipole
  | error in Hartree potential    :           0.00018646 Ha           0.00507390 eV
  | Sum of eigenvalues per atom                           :       -4457.91856365 eV
  | Total energy (T->0) per atom                          :       -7870.64420677 eV  <-- do not rely on this value for anything but (periodic) metals
  | Electronic free energy per atom                       :       -7870.64510805 eV

  Self-consistency convergence accuracy:
  | Change of charge density      :  0.3079E-01
  | Change of sum of eigenvalues  : -0.1242E+02 eV
  | Change of total energy        :  0.4003E-01 eV

  End self-consistency iteration #     2       :  max(cpu_time)    wall_clock(cpu1)
  | Time for this iteration                    :        0.427 s           0.427 s
  | Charge density update                      :        0.115 s           0.116 s
  | Density mixing & preconditioning           :        0.013 s           0.012 s
  | Hartree multipole update                   :        0.000 s           0.001 s
  | Hartree multipole summation                :        0.130 s           0.129 s
  | Integration                                :        0.069 s           0.069 s
  | Solution of K.-S. eqns.                    :        0.099 s           0.100 s
  | Total energy evaluation                    :        0.000 s           0.000 s

  Partial memory accounting:
  | Current value for overall tracked memory usage on task 0  :           2.614 MB
  | Peak value for overall tracked memory usage on task 0     :           3.520 MB after allocating wave
  | Largest tracked array allocation on task 0 so far         :           2.500 MB  when allocating +KS_eigenvector_complex
  Note:  These values currently only include a subset of arrays which are explicitly tracked.
  The "true" memory usage will be greater.
------------------------------------------------------------

------------------------------------------------------------
          Begin self-consistency iteration #    3

  Date     :  20190514, Time     :  123644.401
------------------------------------------------------------
  Evaluating new KS density using the density matrix
  Evaluating density matrix
  Time summed over all CPUs for getting density from density matrix: real work        0.105 s, elapsed        0.105 s
  Integration grid: deviation in total charge (<rho> - N_e) =  -4.423129E-13
  Pulay mixing of updated and previous charge densities.

  Evaluating partitioned Hartree potential by multipole expansion.
  | Analytical far-field extrapolation by fixed multipoles:
  | Hartree multipole sum: apparent total charge =  -0.468105E-02
  Summing up the Hartree potential.
  Time summed over all CPUs for potential: real work        0.131 s, elapsed        0.131 s
  | RMS charge density error from multipole expansion :   0.274553E-02
  | Average real-space part of the electrostatic potential :     -0.35295891 eV

  Integrating Hamiltonian matrix: batch-based integration.
  Time summed over all CPUs for integration: real work        0.068 s, elapsed        0.068 s

  Updating Kohn-Sham eigenvalues, eigenvectors, occupation numbers, and Fermi level.
  Solving generalized eigenproblem

  Obtaining occupation numbers and chemical potential using ELSI.
  | Chemical potential (Fermi level):    -4.79946507eV
  What follows are estimated values for band gap, HOMO, LUMO, etc.
  | They are estimated on a discrete k-point grid and not necessarily exact.
  | For converged numbers, create a DOS and/or band structure plot on a denser k-grid.

  Highest occupied state (VBM) at     -4.80824271 eV (relative to internal zero)
  | Occupation number:      1.19607365
  | K-point:     100 at    0.083333    0.166667    0.833333 (in units of recip. lattice)

  Lowest unoccupied state (CBM) at    -4.78922417 eV (relative to internal zero)
  | Occupation number:      0.77207902
  | K-point:     244 at    0.166667    0.500000    0.833333 (in units of recip. lattice)

  ESTIMATED overall HOMO-LUMO gap:      0.01901854 eV between HOMO at k-point 100 and LUMO at k-point 244
  | This appears to be an indirect band gap.
  | Smallest direct gap :      0.82361379 eV for k_point 677 at    0.166667    0.500000    0.833333 (in units of recip. lattice)
  However, this system has fractional occupation numbers. Since we use a finite k-point grid,
  this material is metallic within the approximate finite broadening function (occupation_type)
  applied to determine the occupation numbers.

  Total energy components:
  | Sum of eigenvalues            :        -164.01060900 Ha       -4462.95574369 eV
  | XC energy correction          :         -19.58383629 Ha        -532.90329918 eV
  | XC potential correction       :          25.87546351 Ha         704.10718676 eV
  | Free-atom electrostatic energy:        -132.20263157 Ha       -3597.41663945 eV
  | Hartree energy correction     :           0.68073083 Ha          18.52362828 eV
  | Entropy correction            :          -0.00003241 Ha          -0.00088203 eV
  | ---------------------------
  | Total energy                  :        -289.24088252 Ha       -7870.64486729 eV
  | Total energy, T -> 0          :        -289.24091493 Ha       -7870.64574932 eV  <-- do not rely on this value for anything but (periodic) metals
  | Electronic free energy        :        -289.24094734 Ha       -7870.64663135 eV

  Derived energy quantities:
  | Kinetic energy                :         289.05519135 Ha        7865.59195347 eV
  | Electrostatic energy          :        -558.71223758 Ha      -15203.33352158 eV
  | Energy correction for multipole
  | error in Hartree potential    :           0.00025736 Ha           0.00700304 eV
  | Sum of eigenvalues per atom                           :       -4462.95574369 eV
  | Total energy (T->0) per atom                          :       -7870.64574932 eV  <-- do not rely on this value for anything but (periodic) metals
  | Electronic free energy per atom                       :       -7870.64663135 eV

  Self-consistency convergence accuracy:
  | Change of charge density      :  0.8306E-02
  | Change of sum of eigenvalues  : -0.5037E+01 eV
  | Change of total energy        : -0.1562E-02 eV

  End self-consistency iteration #     3       :  max(cpu_time)    wall_clock(cpu1)
  | Time for this iteration                    :        0.430 s           0.430 s
  | Charge density update                      :        0.116 s           0.116 s
  | Density mixing & preconditioning           :        0.013 s           0.013 s
  | Hartree multipole update                   :        0.000 s           0.000 s
  | Hartree multipole summation                :        0.132 s           0.133 s
  | Integration                                :        0.069 s           0.068 s
  | Solution of K.-S. eqns.                    :        0.100 s           0.100 s
  | Total energy evaluation                    :        0.000 s           0.000 s

  Partial memory accounting:
  | Current value for overall tracked memory usage on task 0  :           2.615 MB
  | Peak value for overall tracked memory usage on task 0     :           3.520 MB after allocating wave
  | Largest tracked array allocation on task 0 so far         :           2.500 MB  when allocating +KS_eigenvector_complex
  Note:  These values currently only include a subset of arrays which are explicitly tracked.
  The "true" memory usage will be greater.
------------------------------------------------------------

------------------------------------------------------------
          Begin self-consistency iteration #    4

  Date     :  20190514, Time     :  123644.832
------------------------------------------------------------
  Evaluating new KS density using the density matrix
  Evaluating density matrix
  Time summed over all CPUs for getting density from density matrix: real work        0.106 s, elapsed        0.106 s
  Integration grid: deviation in total charge (<rho> - N_e) =  -3.339551E-13
  Pulay mixing of updated and previous charge densities.

  Evaluating partitioned Hartree potential by multipole expansion.
  | Analytical far-field extrapolation by fixed multipoles:
  | Hartree multipole sum: apparent total charge =  -0.452863E-02
  Summing up the Hartree potential.
  Time summed over all CPUs for potential: real work        0.133 s, elapsed        0.133 s
  | RMS charge density error from multipole expansion :   0.235155E-02
  | Average real-space part of the electrostatic potential :     -0.33074086 eV

  Integrating Hamiltonian matrix: batch-based integration.
  Time summed over all CPUs for integration: real work        0.069 s, elapsed        0.069 s

  Updating Kohn-Sham eigenvalues, eigenvectors, occupation numbers, and Fermi level.
  Solving generalized eigenproblem

  Obtaining occupation numbers and chemical potential using ELSI.
  | Chemical potential (Fermi level):    -4.76076435eV
  What follows are estimated values for band gap, HOMO, LUMO, etc.
  | They are estimated on a discrete k-point grid and not necessarily exact.
  | For converged numbers, create a DOS and/or band structure plot on a denser k-grid.

  Highest occupied state (VBM) at     -4.76891949 eV (relative to internal zero)
  | Occupation number:      1.18242269
  | K-point:     100 at    0.083333    0.166667    0.833333 (in units of recip. lattice)

  Lowest unoccupied state (CBM) at    -4.75232996 eV (relative to internal zero)
  | Occupation number:      0.81144630
  | K-point:     258 at    0.166667    0.666667    0.333333 (in units of recip. lattice)

  ESTIMATED overall HOMO-LUMO gap:      0.01658953 eV between HOMO at k-point 100 and LUMO at k-point 258
  | This appears to be an indirect band gap.
  | Smallest direct gap :      0.82878396 eV for k_point 680 at    0.166667    0.666667    0.333333 (in units of recip. lattice)
  However, this system has fractional occupation numbers. Since we use a finite k-point grid,
  this material is metallic within the approximate finite broadening function (occupation_type)
  applied to determine the occupation numbers.

  Total energy components:
  | Sum of eigenvalues            :        -163.86116033 Ha       -4458.88903824 eV
  | XC energy correction          :         -19.59924556 Ha        -533.32260674 eV
  | XC potential correction       :          25.89588483 Ha         704.66287897 eV
  | Free-atom electrostatic energy:        -132.20263157 Ha       -3597.41663945 eV
  | Hartree energy correction     :           0.52637362 Ha          14.32335497 eV
  | Entropy correction            :          -0.00003259 Ha          -0.00088671 eV
  | ---------------------------
  | Total energy                  :        -289.24077900 Ha       -7870.64205049 eV
  | Total energy, T -> 0          :        -289.24081159 Ha       -7870.64293720 eV  <-- do not rely on this value for anything but (periodic) metals
  | Electronic free energy        :        -289.24084417 Ha       -7870.64382391 eV

  Derived energy quantities:
  | Kinetic energy                :         289.29725938 Ha        7872.17895980 eV
  | Electrostatic energy          :        -558.93879283 Ha      -15209.49840355 eV
  | Energy correction for multipole
  | error in Hartree potential    :           0.00024536 Ha           0.00667646 eV
  | Sum of eigenvalues per atom                           :       -4458.88903824 eV
  | Total energy (T->0) per atom                          :       -7870.64293720 eV  <-- do not rely on this value for anything but (periodic) metals
  | Electronic free energy per atom                       :       -7870.64382391 eV

  Self-consistency convergence accuracy:
  | Change of charge density      :  0.1902E-01
  | Change of sum of eigenvalues  :  0.4067E+01 eV
  | Change of total energy        :  0.2817E-02 eV

  End self-consistency iteration #     4       :  max(cpu_time)    wall_clock(cpu1)
  | Time for this iteration                    :        0.432 s           0.432 s
  | Charge density update                      :        0.116 s           0.116 s
  | Density mixing & preconditioning           :        0.013 s           0.013 s
  | Hartree multipole update                   :        0.000 s           0.000 s
  | Hartree multipole summation                :        0.135 s           0.135 s
  | Integration                                :        0.069 s           0.069 s
  | Solution of K.-S. eqns.                    :        0.098 s           0.098 s
  | Total energy evaluation                    :        0.000 s           0.000 s

  Partial memory accounting:
  | Current value for overall tracked memory usage on task 0  :           2.615 MB
  | Peak value for overall tracked memory usage on task 0     :           3.520 MB after allocating wave
  | Largest tracked array allocation on task 0 so far         :           2.500 MB  when allocating +KS_eigenvector_complex
  Note:  These values currently only include a subset of arrays which are explicitly tracked.
  The "true" memory usage will be greater.
------------------------------------------------------------

------------------------------------------------------------
          Begin self-consistency iteration #    5

  Date     :  20190514, Time     :  123645.264
------------------------------------------------------------
  Evaluating new KS density using the density matrix
  Evaluating density matrix
  Time summed over all CPUs for getting density from density matrix: real work        0.103 s, elapsed        0.103 s
  Integration grid: deviation in total charge (<rho> - N_e) =  -3.907985E-13
  Pulay mixing of updated and previous charge densities.

  Evaluating partitioned Hartree potential by multipole expansion.
  | Analytical far-field extrapolation by fixed multipoles:
  | Hartree multipole sum: apparent total charge =  -0.438821E-02
  Summing up the Hartree potential.
  Time summed over all CPUs for potential: real work        0.130 s, elapsed        0.130 s
  | RMS charge density error from multipole expansion :   0.232295E-02
  | Average real-space part of the electrostatic potential :     -0.32720998 eV

  Integrating Hamiltonian matrix: batch-based integration.
  Time summed over all CPUs for integration: real work        0.068 s, elapsed        0.068 s

  Updating Kohn-Sham eigenvalues, eigenvectors, occupation numbers, and Fermi level.
  Solving generalized eigenproblem

  Obtaining occupation numbers and chemical potential using ELSI.
  | Chemical potential (Fermi level):    -4.75699848eV
  What follows are estimated values for band gap, HOMO, LUMO, etc.
  | They are estimated on a discrete k-point grid and not necessarily exact.
  | For converged numbers, create a DOS and/or band structure plot on a denser k-grid.

  Highest occupied state (VBM) at     -4.76509882 eV (relative to internal zero)
  | Occupation number:      1.18121845
  | K-point:     100 at    0.083333    0.166667    0.833333 (in units of recip. lattice)

  Lowest unoccupied state (CBM) at    -4.74871472 eV (relative to internal zero)
  | Occupation number:      0.81475206
  | K-point:     258 at    0.166667    0.666667    0.333333 (in units of recip. lattice)

  ESTIMATED overall HOMO-LUMO gap:      0.01638410 eV between HOMO at k-point 100 and LUMO at k-point 258
  | This appears to be an indirect band gap.
  | Smallest direct gap :      0.82898264 eV for k_point 680 at    0.166667    0.666667    0.333333 (in units of recip. lattice)
  However, this system has fractional occupation numbers. Since we use a finite k-point grid,
  this material is metallic within the approximate finite broadening function (occupation_type)
  applied to determine the occupation numbers.

  Total energy components:
  | Sum of eigenvalues            :        -163.85438486 Ha       -4458.70466834 eV
  | XC energy correction          :         -19.59978047 Ha        -533.33716237 eV
  | XC potential correction       :          25.89659006 Ha         704.68206939 eV
  | Free-atom electrostatic energy:        -132.20263157 Ha       -3597.41663945 eV
  | Hartree energy correction     :           0.51942864 Ha          14.13437254 eV
  | Entropy correction            :          -0.00003260 Ha          -0.00088716 eV
  | ---------------------------
  | Total energy                  :        -289.24077818 Ha       -7870.64202822 eV
  | Total energy, T -> 0          :        -289.24081079 Ha       -7870.64291538 eV  <-- do not rely on this value for anything but (periodic) metals
  | Electronic free energy        :        -289.24084339 Ha       -7870.64380255 eV

  Derived energy quantities:
  | Kinetic energy                :         289.30127676 Ha        7872.28827836 eV
  | Electrostatic energy          :        -558.94227448 Ha      -15209.59314422 eV
  | Energy correction for multipole
  | error in Hartree potential    :           0.00024210 Ha           0.00658792 eV
  | Sum of eigenvalues per atom                           :       -4458.70466834 eV
  | Total energy (T->0) per atom                          :       -7870.64291538 eV  <-- do not rely on this value for anything but (periodic) metals
  | Electronic free energy per atom                       :       -7870.64380255 eV

  Self-consistency convergence accuracy:
  | Change of charge density      :  0.1920E-02
  | Change of sum of eigenvalues  :  0.1844E+00 eV
  | Change of total energy        :  0.2227E-04 eV

  End self-consistency iteration #     5       :  max(cpu_time)    wall_clock(cpu1)
  | Time for this iteration                    :        0.435 s           0.439 s
  | Charge density update                      :        0.114 s           0.114 s
  | Density mixing & preconditioning           :        0.012 s           0.012 s
  | Hartree multipole update                   :        0.000 s           0.000 s
  | Hartree multipole summation                :        0.132 s           0.132 s
  | Integration                                :        0.068 s           0.068 s
  | Solution of K.-S. eqns.                    :        0.109 s           0.113 s
  | Total energy evaluation                    :        0.000 s           0.000 s

  Partial memory accounting:
  | Current value for overall tracked memory usage on task 0  :           2.615 MB
  | Peak value for overall tracked memory usage on task 0     :           3.520 MB after allocating wave
  | Largest tracked array allocation on task 0 so far         :           2.500 MB  when allocating +KS_eigenvector_complex
  Note:  These values currently only include a subset of arrays which are explicitly tracked.
  The "true" memory usage will be greater.
------------------------------------------------------------

------------------------------------------------------------
          Begin self-consistency iteration #    6

  Date     :  20190514, Time     :  123645.703
------------------------------------------------------------
  Evaluating new KS density using the density matrix
  Evaluating density matrix
  Time summed over all CPUs for getting density from density matrix: real work        0.106 s, elapsed        0.106 s
  Integration grid: deviation in total charge (<rho> - N_e) =  -3.090861E-13
  Pulay mixing of updated and previous charge densities.

  Evaluating partitioned Hartree potential by multipole expansion.
  | Analytical far-field extrapolation by fixed multipoles:
  | Hartree multipole sum: apparent total charge =  -0.336024E-03
  Summing up the Hartree potential.
  Time summed over all CPUs for potential: real work        0.130 s, elapsed        0.130 s
  | RMS charge density error from multipole expansion :   0.230901E-02
  | Average real-space part of the electrostatic potential :     -0.34340968 eV

  Integrating Hamiltonian matrix: batch-based integration.
  Time summed over all CPUs for integration: real work        0.070 s, elapsed        0.070 s

  Updating Kohn-Sham eigenvalues, eigenvectors, occupation numbers, and Fermi level.
  Solving generalized eigenproblem

  Obtaining occupation numbers and chemical potential using ELSI.
  | Chemical potential (Fermi level):    -4.74974483eV
  What follows are estimated values for band gap, HOMO, LUMO, etc.
  | They are estimated on a discrete k-point grid and not necessarily exact.
  | For converged numbers, create a DOS and/or band structure plot on a denser k-grid.

  Highest occupied state (VBM) at     -4.75773836 eV (relative to internal zero)
  | Occupation number:      1.17886948
  | K-point:     112 at    0.083333    0.333333    0.166667 (in units of recip. lattice)

  Lowest unoccupied state (CBM) at    -4.74173436 eV (relative to internal zero)
  | Occupation number:      0.82075806
  | K-point:     472 at    0.333333    0.666667    0.166667 (in units of recip. lattice)

  ESTIMATED overall HOMO-LUMO gap:      0.01600399 eV between HOMO at k-point 112 and LUMO at k-point 472
  | This appears to be an indirect band gap.
  | Smallest direct gap :      0.82975931 eV for k_point 376 at    0.333333    0.666667    0.166667 (in units of recip. lattice)
  However, this system has fractional occupation numbers. Since we use a finite k-point grid,
  this material is metallic within the approximate finite broadening function (occupation_type)
  applied to determine the occupation numbers.

  Total energy components:
  | Sum of eigenvalues            :        -163.83603498 Ha       -4458.20534271 eV
  | XC energy correction          :         -19.60020483 Ha        -533.34870991 eV
  | XC potential correction       :          25.89717275 Ha         704.69792507 eV
  | Free-atom electrostatic energy:        -132.20263157 Ha       -3597.41663945 eV
  | Hartree energy correction     :           0.50092307 Ha          13.63081031 eV
  | Entropy correction            :          -0.00003263 Ha          -0.00088788 eV
  | ---------------------------
  | Total energy                  :        -289.24077555 Ha       -7870.64195669 eV
  | Total energy, T -> 0          :        -289.24080818 Ha       -7870.64284457 eV  <-- do not rely on this value for anything but (periodic) metals
  | Electronic free energy        :        -289.24084081 Ha       -7870.64373245 eV

  Derived energy quantities:
  | Kinetic energy                :         289.31525762 Ha        7872.66871693 eV
  | Electrostatic energy          :        -558.95582835 Ha      -15209.96196372 eV
  | Energy correction for multipole
  | error in Hartree potential    :           0.00024643 Ha           0.00670573 eV
  | Sum of eigenvalues per atom                           :       -4458.20534271 eV
  | Total energy (T->0) per atom                          :       -7870.64284457 eV  <-- do not rely on this value for anything but (periodic) metals
  | Electronic free energy per atom                       :       -7870.64373245 eV

  Self-consistency convergence accuracy:
  | Change of charge density      :  0.1563E-02
  | Change of sum of eigenvalues  :  0.4993E+00 eV
  | Change of total energy        :  0.7153E-04 eV

  End self-consistency iteration #     6       :  max(cpu_time)    wall_clock(cpu1)
  | Time for this iteration                    :        0.431 s           0.431 s
  | Charge density update                      :        0.116 s           0.116 s
  | Density mixing & preconditioning           :        0.013 s           0.013 s
  | Hartree multipole update                   :        0.000 s           0.000 s
  | Hartree multipole summation                :        0.132 s           0.132 s
  | Integration                                :        0.069 s           0.070 s
  | Solution of K.-S. eqns.                    :        0.100 s           0.099 s
  | Total energy evaluation                    :        0.000 s           0.000 s

  Partial memory accounting:
  | Current value for overall tracked memory usage on task 0  :           2.615 MB
  | Peak value for overall tracked memory usage on task 0     :           3.520 MB after allocating wave
  | Largest tracked array allocation on task 0 so far         :           2.500 MB  when allocating +KS_eigenvector_complex
  Note:  These values currently only include a subset of arrays which are explicitly tracked.
  The "true" memory usage will be greater.
------------------------------------------------------------

------------------------------------------------------------
          Begin self-consistency iteration #    7

  Date     :  20190514, Time     :  123646.134
------------------------------------------------------------
  Evaluating new KS density using the density matrix
  Evaluating density matrix
  Time summed over all CPUs for getting density from density matrix: real work        0.105 s, elapsed        0.105 s
  Integration grid: deviation in total charge (<rho> - N_e) =  -3.339551E-13
  Pulay mixing of updated and previous charge densities.

  Evaluating partitioned Hartree potential by multipole expansion.
  | Analytical far-field extrapolation by fixed multipoles:
  | Hartree multipole sum: apparent total charge =  -0.856894E-03
  Summing up the Hartree potential.
  Time summed over all CPUs for potential: real work        0.132 s, elapsed        0.132 s
  | RMS charge density error from multipole expansion :   0.234320E-02
  | Average real-space part of the electrostatic potential :     -0.34624437 eV

  Integrating Hamiltonian matrix: batch-based integration.
  Time summed over all CPUs for integration: real work        0.069 s, elapsed        0.069 s

  Updating Kohn-Sham eigenvalues, eigenvectors, occupation numbers, and Fermi level.
  Solving generalized eigenproblem

  Obtaining occupation numbers and chemical potential using ELSI.
  | Chemical potential (Fermi level):    -4.75489689eV
  What follows are estimated values for band gap, HOMO, LUMO, etc.
  | They are estimated on a discrete k-point grid and not necessarily exact.
  | For converged numbers, create a DOS and/or band structure plot on a denser k-grid.

  Highest occupied state (VBM) at     -4.76296633 eV (relative to internal zero)
  | Occupation number:      1.18053887
  | K-point:      96 at    0.083333    0.166667    0.333333 (in units of recip. lattice)

  Lowest unoccupied state (CBM) at    -4.74668051 eV (relative to internal zero)
  | Occupation number:      0.81623163
  | K-point:     655 at    0.500000    0.333333    0.666667 (in units of recip. lattice)

  ESTIMATED overall HOMO-LUMO gap:      0.01628582 eV between HOMO at k-point 96 and LUMO at k-point 655
  | This appears to be an indirect band gap.
  | Smallest direct gap :      0.82945324 eV for k_point 376 at    0.500000    0.333333    0.666667 (in units of recip. lattice)
  However, this system has fractional occupation numbers. Since we use a finite k-point grid,
  this material is metallic within the approximate finite broadening function (occupation_type)
  applied to determine the occupation numbers.

  Total energy components:
  | Sum of eigenvalues            :        -163.84576714 Ha       -4458.47016845 eV
  | XC energy correction          :         -19.59952880 Ha        -533.33031411 eV
  | XC potential correction       :          25.89627948 Ha         704.67361804 eV
  | Free-atom electrostatic energy:        -132.20263157 Ha       -3597.41663945 eV
  | Hartree energy correction     :           0.51087253 Ha          13.90154886 eV
  | Entropy correction            :          -0.00003261 Ha          -0.00088727 eV
  | ---------------------------
  | Total energy                  :        -289.24077550 Ha       -7870.64195511 eV
  | Total energy, T -> 0          :        -289.24080810 Ha       -7870.64284238 eV  <-- do not rely on this value for anything but (periodic) metals
  | Electronic free energy        :        -289.24084071 Ha       -7870.64372965 eV

  Derived energy quantities:
  | Kinetic energy                :         289.30931219 Ha        7872.50693337 eV
  | Electrostatic energy          :        -558.95055889 Ha      -15209.81857438 eV
  | Energy correction for multipole
  | error in Hartree potential    :           0.00025005 Ha           0.00680413 eV
  | Sum of eigenvalues per atom                           :       -4458.47016845 eV
  | Total energy (T->0) per atom                          :       -7870.64284238 eV  <-- do not rely on this value for anything but (periodic) metals
  | Electronic free energy per atom                       :       -7870.64372965 eV

  Self-consistency convergence accuracy:
  | Change of charge density      :  0.2315E-03
  | Change of sum of eigenvalues  : -0.2648E+00 eV
  | Change of total energy        :  0.1578E-05 eV

  End self-consistency iteration #     7       :  max(cpu_time)    wall_clock(cpu1)
  | Time for this iteration                    :        0.430 s           0.430 s
  | Charge density update                      :        0.116 s           0.116 s
  | Density mixing & preconditioning           :        0.012 s           0.012 s
  | Hartree multipole update                   :        0.000 s           0.000 s
  | Hartree multipole summation                :        0.133 s           0.134 s
  | Integration                                :        0.070 s           0.069 s
  | Solution of K.-S. eqns.                    :        0.099 s           0.099 s
  | Total energy evaluation                    :        0.000 s           0.000 s

  Partial memory accounting:
  | Current value for overall tracked memory usage on task 0  :           2.616 MB
  | Peak value for overall tracked memory usage on task 0     :           3.520 MB after allocating wave
  | Largest tracked array allocation on task 0 so far         :           2.500 MB  when allocating +KS_eigenvector_complex
  Note:  These values currently only include a subset of arrays which are explicitly tracked.
  The "true" memory usage will be greater.
------------------------------------------------------------

------------------------------------------------------------
          Begin self-consistency iteration #    8

  Date     :  20190514, Time     :  123646.565
------------------------------------------------------------
  Evaluating new KS density using the density matrix
  Evaluating density matrix
  Time summed over all CPUs for getting density from density matrix: real work        0.104 s, elapsed        0.104 s
  Integration grid: deviation in total charge (<rho> - N_e) =  -2.913225E-13
  Pulay mixing of updated and previous charge densities.

  Evaluating partitioned Hartree potential by multipole expansion.
  | Analytical far-field extrapolation by fixed multipoles:
  | Hartree multipole sum: apparent total charge =  -0.341715E-03
  Summing up the Hartree potential.
  Time summed over all CPUs for potential: real work        0.131 s, elapsed        0.131 s
  | RMS charge density error from multipole expansion :   0.230280E-02
  | Average real-space part of the electrostatic potential :     -0.34182691 eV

  Integrating Hamiltonian matrix: batch-based integration.
  Time summed over all CPUs for integration: real work        0.069 s, elapsed        0.069 s

  Updating Kohn-Sham eigenvalues, eigenvectors, occupation numbers, and Fermi level.
  Solving generalized eigenproblem

  Obtaining occupation numbers and chemical potential using ELSI.
  | Chemical potential (Fermi level):    -4.74824426eV
  What follows are estimated values for band gap, HOMO, LUMO, etc.
  | They are estimated on a discrete k-point grid and not necessarily exact.
  | For converged numbers, create a DOS and/or band structure plot on a denser k-grid.

  Highest occupied state (VBM) at     -4.75621352 eV (relative to internal zero)
  | Occupation number:      1.17833566
  | K-point:     110 at    0.083333    0.250000    0.916667 (in units of recip. lattice)

  Lowest unoccupied state (CBM) at    -4.74030202 eV (relative to internal zero)
  | Occupation number:      0.82225911
  | K-point:     258 at    0.166667    0.666667    0.333333 (in units of recip. lattice)

  ESTIMATED overall HOMO-LUMO gap:      0.01591150 eV between HOMO at k-point 110 and LUMO at k-point 258
  | This appears to be an indirect band gap.
  | Smallest direct gap :      0.82983493 eV for k_point 680 at    0.166667    0.666667    0.333333 (in units of recip. lattice)
  However, this system has fractional occupation numbers. Since we use a finite k-point grid,
  this material is metallic within the approximate finite broadening function (occupation_type)
  applied to determine the occupation numbers.

  Total energy components:
  | Sum of eigenvalues            :        -163.83257661 Ha       -4458.11123571 eV
  | XC energy correction          :         -19.60047865 Ha        -533.35616105 eV
  | XC potential correction       :          25.89753393 Ha         704.70775341 eV
  | Free-atom electrostatic energy:        -132.20263157 Ha       -3597.41663945 eV
  | Hartree energy correction     :           0.49737685 Ha          13.53431268 eV
  | Entropy correction            :          -0.00003264 Ha          -0.00088809 eV
  | ---------------------------
  | Total energy                  :        -289.24077605 Ha       -7870.64197012 eV
  | Total energy, T -> 0          :        -289.24080868 Ha       -7870.64285821 eV  <-- do not rely on this value for anything but (periodic) metals
  | Electronic free energy        :        -289.24084132 Ha       -7870.64374629 eV

  Derived energy quantities:
  | Kinetic energy                :         289.31753974 Ha        7872.73081636 eV
  | Electrostatic energy          :        -558.95783713 Ha      -15210.01662543 eV
  | Energy correction for multipole
  | error in Hartree potential    :           0.00024437 Ha           0.00664955 eV
  | Sum of eigenvalues per atom                           :       -4458.11123571 eV
  | Total energy (T->0) per atom                          :       -7870.64285821 eV  <-- do not rely on this value for anything but (periodic) metals
  | Electronic free energy per atom                       :       -7870.64374629 eV

  Self-consistency convergence accuracy:
  | Change of charge density      :  0.8256E-03
  | Change of sum of eigenvalues  :  0.3589E+00 eV
  | Change of total energy        : -0.1501E-04 eV

  End self-consistency iteration #     8       :  max(cpu_time)    wall_clock(cpu1)
  | Time for this iteration                    :        0.428 s           0.428 s
  | Charge density update                      :        0.115 s           0.114 s
  | Density mixing & preconditioning           :        0.013 s           0.013 s
  | Hartree multipole update                   :        0.000 s           0.000 s
  | Hartree multipole summation                :        0.133 s           0.133 s
  | Integration                                :        0.069 s           0.069 s
  | Solution of K.-S. eqns.                    :        0.099 s           0.099 s
  | Total energy evaluation                    :        0.000 s           0.000 s

  Partial memory accounting:
  | Current value for overall tracked memory usage on task 0  :           2.616 MB
  | Peak value for overall tracked memory usage on task 0     :           3.520 MB after allocating wave
  | Largest tracked array allocation on task 0 so far         :           2.500 MB  when allocating +KS_eigenvector_complex
  Note:  These values currently only include a subset of arrays which are explicitly tracked.
  The "true" memory usage will be greater.
------------------------------------------------------------

------------------------------------------------------------
          Begin self-consistency iteration #    9

  Date     :  20190514, Time     :  123646.993
------------------------------------------------------------
  Evaluating new KS density using the density matrix
  Evaluating density matrix
  Time summed over all CPUs for getting density from density matrix: real work        0.105 s, elapsed        0.105 s
  Integration grid: deviation in total charge (<rho> - N_e) =  -3.588241E-13
  Pulay mixing of updated and previous charge densities.

  Evaluating partitioned Hartree potential by multipole expansion.
  | Analytical far-field extrapolation by fixed multipoles:
  | Hartree multipole sum: apparent total charge =  -0.344250E-03
  Summing up the Hartree potential.
  Time summed over all CPUs for potential: real work        0.131 s, elapsed        0.131 s
  | RMS charge density error from multipole expansion :   0.230196E-02
  | Average real-space part of the electrostatic potential :     -0.34169440 eV

  Integrating Hamiltonian matrix: batch-based integration.
  Time summed over all CPUs for integration: real work        0.070 s, elapsed        0.070 s

  Updating Kohn-Sham eigenvalues, eigenvectors, occupation numbers, and Fermi level.
  Solving generalized eigenproblem

  Obtaining occupation numbers and chemical potential using ELSI.
  | Chemical potential (Fermi level):    -4.74815011eV
  What follows are estimated values for band gap, HOMO, LUMO, etc.
  | They are estimated on a discrete k-point grid and not necessarily exact.
  | For converged numbers, create a DOS and/or band structure plot on a denser k-grid.

  Highest occupied state (VBM) at     -4.75611802 eV (relative to internal zero)
  | Occupation number:      1.17830577
  | K-point:     427 at    0.333333    0.250000    0.166667 (in units of recip. lattice)

  Lowest unoccupied state (CBM) at    -4.74021160 eV (relative to internal zero)
  | Occupation number:      0.82234090
  | K-point:     258 at    0.166667    0.666667    0.333333 (in units of recip. lattice)

  ESTIMATED overall HOMO-LUMO gap:      0.01590642 eV between HOMO at k-point 427 and LUMO at k-point 258
  | This appears to be an indirect band gap.
  | Smallest direct gap :      0.82983890 eV for k_point 680 at    0.166667    0.666667    0.333333 (in units of recip. lattice)
  However, this system has fractional occupation numbers. Since we use a finite k-point grid,
  this material is metallic within the approximate finite broadening function (occupation_type)
  applied to determine the occupation numbers.

  Total energy components:
  | Sum of eigenvalues            :        -163.83244400 Ha       -4458.10762739 eV
  | XC energy correction          :         -19.60048973 Ha        -533.35646251 eV
  | XC potential correction       :          25.89754846 Ha         704.70814885 eV
  | Free-atom electrostatic energy:        -132.20263157 Ha       -3597.41663945 eV
  | Hartree energy correction     :           0.49724076 Ha          13.53060945 eV
  | Entropy correction            :          -0.00003264 Ha          -0.00088810 eV
  | ---------------------------
  | Total energy                  :        -289.24077608 Ha       -7870.64197105 eV
  | Total energy, T -> 0          :        -289.24080872 Ha       -7870.64285915 eV  <-- do not rely on this value for anything but (periodic) metals
  | Electronic free energy        :        -289.24084136 Ha       -7870.64374725 eV

  Derived energy quantities:
  | Kinetic energy                :         289.31756402 Ha        7872.73147711 eV
  | Electrostatic energy          :        -558.95785037 Ha      -15210.01698565 eV
  | Energy correction for multipole
  | error in Hartree potential    :           0.00024426 Ha           0.00664661 eV
  | Sum of eigenvalues per atom                           :       -4458.10762739 eV
[...]
  | Hartree multipole update                   :        0.000 s           0.000 s
  | Hartree multipole summation                :        0.132 s           0.132 s
  | Integration                                :        0.075 s           0.075 s
  | Solution of K.-S. eqns.                    :        0.107 s           0.108 s
  | Total energy evaluation                    :        0.000 s           0.000 s

  Partial memory accounting:
  | Current value for overall tracked memory usage on task 0  :           2.616 MB
  | Peak value for overall tracked memory usage on task 0     :           3.520 MB after allocating wave
  | Largest tracked array allocation on task 0 so far         :           2.500 MB  when allocating +KS_eigenvector_complex
  Note:  These values currently only include a subset of arrays which are explicitly tracked.
  The "true" memory usage will be greater.
------------------------------------------------------------

------------------------------------------------------------
          Begin self-consistency iteration #   11

  Date     :  20190514, Time     :  123647.865
------------------------------------------------------------
  Evaluating new KS density using the density matrix
  Evaluating density matrix
  Time summed over all CPUs for getting density from density matrix: real work        0.106 s, elapsed        0.106 s
  Integration grid: deviation in total charge (<rho> - N_e) =  -3.055334E-13
  Pulay mixing of updated and previous charge densities.

  Evaluating partitioned Hartree potential by multipole expansion.
  | Analytical far-field extrapolation by fixed multipoles:
  | Hartree multipole sum: apparent total charge =  -0.349766E-03
  Summing up the Hartree potential.
  Time summed over all CPUs for potential: real work        0.131 s, elapsed        0.131 s
  | RMS charge density error from multipole expansion :   0.230315E-02
  | Average real-space part of the electrostatic potential :     -0.34187346 eV

  Integrating Hamiltonian matrix: batch-based integration.
  Time summed over all CPUs for integration: real work        0.070 s, elapsed        0.070 s

  Updating Kohn-Sham eigenvalues, eigenvectors, occupation numbers, and Fermi level.
  Solving generalized eigenproblem

  Obtaining occupation numbers and chemical potential using ELSI.
  | Chemical potential (Fermi level):    -4.74833865eV
  What follows are estimated values for band gap, HOMO, LUMO, etc.
  | They are estimated on a discrete k-point grid and not necessarily exact.
  | For converged numbers, create a DOS and/or band structure plot on a denser k-grid.

  Highest occupied state (VBM) at     -4.75630937 eV (relative to internal zero)
  | Occupation number:      1.17836777
  | K-point:     110 at    0.083333    0.250000    0.916667 (in units of recip. lattice)

  Lowest unoccupied state (CBM) at    -4.74039247 eV (relative to internal zero)
  | Occupation number:      0.82217245
  | K-point:     258 at    0.166667    0.666667    0.333333 (in units of recip. lattice)

  ESTIMATED overall HOMO-LUMO gap:      0.01591690 eV between HOMO at k-point 110 and LUMO at k-point 258
  | This appears to be an indirect band gap.
  | Smallest direct gap :      0.82982886 eV for k_point 680 at    0.166667    0.666667    0.333333 (in units of recip. lattice)
  However, this system has fractional occupation numbers. Since we use a finite k-point grid,
  this material is metallic within the approximate finite broadening function (occupation_type)
  applied to determine the occupation numbers.

  Total energy components:
  | Sum of eigenvalues            :        -163.83279724 Ha       -4458.11723954 eV
  | XC energy correction          :         -19.60046090 Ha        -533.35567797 eV
  | XC potential correction       :          25.89751044 Ha         704.70711427 eV
  | Free-atom electrostatic energy:        -132.20263157 Ha       -3597.41663945 eV
  | Hartree energy correction     :           0.49760325 Ha          13.54047343 eV
  | Entropy correction            :          -0.00003264 Ha          -0.00088807 eV
  | ---------------------------
  | Total energy                  :        -289.24077602 Ha       -7870.64196926 eV
  | Total energy, T -> 0          :        -289.24080865 Ha       -7870.64285734 eV  <-- do not rely on this value for anything but (periodic) metals
  | Electronic free energy        :        -289.24084129 Ha       -7870.64374541 eV

  Derived energy quantities:
  | Kinetic energy                :         289.31733891 Ha        7872.72535161 eV
  | Electrostatic energy          :        -558.95765403 Ha      -15210.01164290 eV
  | Energy correction for multipole
  | error in Hartree potential    :           0.00024441 Ha           0.00665061 eV
  | Sum of eigenvalues per atom                           :       -4458.11723954 eV
  | Total energy (T->0) per atom                          :       -7870.64285734 eV  <-- do not rely on this value for anything but (periodic) metals
  | Electronic free energy per atom                       :       -7870.64374541 eV

  Self-consistency convergence accuracy:
  | Change of charge density      :  0.6201E-05
  | Change of sum of eigenvalues  : -0.2708E-02 eV
  | Change of total energy        :  0.3115E-06 eV

  End self-consistency iteration #    11       :  max(cpu_time)    wall_clock(cpu1)
  | Time for this iteration                    :        0.431 s           0.431 s
  | Charge density update                      :        0.116 s           0.116 s
  | Density mixing & preconditioning           :        0.013 s           0.013 s
  | Hartree multipole update                   :        0.000 s           0.000 s
  | Hartree multipole summation                :        0.133 s           0.133 s
  | Integration                                :        0.069 s           0.070 s
  | Solution of K.-S. eqns.                    :        0.099 s           0.099 s
  | Total energy evaluation                    :        0.000 s           0.000 s

  Partial memory accounting:
  | Current value for overall tracked memory usage on task 0  :           2.616 MB
  | Peak value for overall tracked memory usage on task 0     :           3.520 MB after allocating wave
  | Largest tracked array allocation on task 0 so far         :           2.500 MB  when allocating +KS_eigenvector_complex
  Note:  These values currently only include a subset of arrays which are explicitly tracked.
  The "true" memory usage will be greater.
------------------------------------------------------------

------------------------------------------------------------
          Begin self-consistency iteration #   12

  Date     :  20190514, Time     :  123648.296
------------------------------------------------------------
  Evaluating new KS density using the density matrix
  Evaluating density matrix
  Time summed over all CPUs for getting density from density matrix: real work        0.104 s, elapsed        0.104 s
  Integration grid: deviation in total charge (<rho> - N_e) =  -3.588241E-13
  Pulay mixing of updated and previous charge densities.

  Evaluating partitioned Hartree potential by multipole expansion.
  | Analytical far-field extrapolation by fixed multipoles:
  | Hartree multipole sum: apparent total charge =  -0.349261E-03
  Summing up the Hartree potential.
  Time summed over all CPUs for potential: real work        0.129 s, elapsed        0.129 s
  | RMS charge density error from multipole expansion :   0.230314E-02
  | Average real-space part of the electrostatic potential :     -0.34187490 eV

  Integrating Hamiltonian matrix: batch-based integration.
  Time summed over all CPUs for integration: real work        0.068 s, elapsed        0.068 s

  Updating Kohn-Sham eigenvalues, eigenvectors, occupation numbers, and Fermi level.
  Solving generalized eigenproblem

  Obtaining occupation numbers and chemical potential using ELSI.
  | Chemical potential (Fermi level):    -4.74833725eV
  What follows are estimated values for band gap, HOMO, LUMO, etc.
  | They are estimated on a discrete k-point grid and not necessarily exact.
  | For converged numbers, create a DOS and/or band structure plot on a denser k-grid.

  Highest occupied state (VBM) at     -4.75630795 eV (relative to internal zero)
  | Occupation number:      1.17836730
  | K-point:     100 at    0.083333    0.166667    0.833333 (in units of recip. lattice)

  Lowest unoccupied state (CBM) at    -4.74039114 eV (relative to internal zero)
  | Occupation number:      0.82217376
  | K-point:     277 at    0.166667    0.833333    0.500000 (in units of recip. lattice)

  ESTIMATED overall HOMO-LUMO gap:      0.01591682 eV between HOMO at k-point 100 and LUMO at k-point 277
  | This appears to be an indirect band gap.
  | Smallest direct gap :      0.82982899 eV for k_point 680 at    0.166667    0.833333    0.500000 (in units of recip. lattice)
  However, this system has fractional occupation numbers. Since we use a finite k-point grid,
  this material is metallic within the approximate finite broadening function (occupation_type)
  applied to determine the occupation numbers.

  Total energy components:
  | Sum of eigenvalues            :        -163.83279393 Ha       -4458.11714946 eV
  | XC energy correction          :         -19.60046100 Ha        -533.35568072 eV
  | XC potential correction       :          25.89751058 Ha         704.70711797 eV
  | Free-atom electrostatic energy:        -132.20263157 Ha       -3597.41663945 eV
  | Hartree energy correction     :           0.49759991 Ha          13.54038239 eV
  | Entropy correction            :          -0.00003264 Ha          -0.00088807 eV
  | ---------------------------
  | Total energy                  :        -289.24077602 Ha       -7870.64196926 eV
  | Total energy, T -> 0          :        -289.24080865 Ha       -7870.64285734 eV  <-- do not rely on this value for anything but (periodic) metals
  | Electronic free energy        :        -289.24084129 Ha       -7870.64374541 eV

  Derived energy quantities:
  | Kinetic energy                :         289.31734087 Ha        7872.72540492 eV
  | Electrostatic energy          :        -558.95765588 Ha      -15210.01169347 eV
  | Energy correction for multipole
  | error in Hartree potential    :           0.00024440 Ha           0.00665057 eV
  | Sum of eigenvalues per atom                           :       -4458.11714946 eV
  | Total energy (T->0) per atom                          :       -7870.64285734 eV  <-- do not rely on this value for anything but (periodic) metals
  | Electronic free energy per atom                       :       -7870.64374541 eV

  Self-consistency convergence accuracy:
  | Change of charge density      :  0.3308E-06
  | Change of sum of eigenvalues  :  0.9008E-04 eV
  | Change of total energy        : -0.1231E-08 eV

  Preliminary charge convergence reached. Turning off preconditioner.

  Writing Kohn-Sham eigenvalues.
  K-point:       1 at    0.000000    0.000000    0.000000 (in units of recip. lattice)

  State    Occupation    Eigenvalue [Ha]    Eigenvalue [eV]
      1       2.00000         -65.541460        -1783.47386
      2       2.00000          -5.129183         -139.57217
      3       2.00000          -3.544100          -96.43987
      4       2.00000          -3.544100          -96.43987
      5       2.00000          -3.544100          -96.43987
      6       2.00000          -0.447711          -12.18283
      7       0.00000          -0.096748           -2.63264
      8       0.00000          -0.096748           -2.63264
      9       0.00000          -0.096748           -2.63264
     10       0.00000           0.055071            1.49856

  What follows are estimated values for band gap, HOMO, LUMO, etc.
  | They are estimated on a discrete k-point grid and not necessarily exact.
  | For converged numbers, create a DOS and/or band structure plot on a denser k-grid.

  Highest occupied state (VBM) at     -4.75630795 eV (relative to internal zero)
  | Occupation number:      1.17836730
  | K-point:     100 at    0.083333    0.166667    0.833333 (in units of recip. lattice)

  Lowest unoccupied state (CBM) at    -4.74039114 eV (relative to internal zero)
  | Occupation number:      0.82217376
  | K-point:     277 at    0.166667    0.833333    0.500000 (in units of recip. lattice)

  ESTIMATED overall HOMO-LUMO gap:      0.01591682 eV between HOMO at k-point 100 and LUMO at k-point 277
  | This appears to be an indirect band gap.
  | Smallest direct gap :      0.82982899 eV for k_point 680 at    0.166667    0.833333    0.500000 (in units of recip. lattice)
  However, this system has fractional occupation numbers. Since we use a finite k-point grid,
  this material is metallic within the approximate finite broadening function (occupation_type)
  applied to determine the occupation numbers.

  Self-consistency cycle converged.

  End self-consistency iteration #    12       :  max(cpu_time)    wall_clock(cpu1)
  | Time for this iteration                    :        0.426 s           0.426 s
  | Charge density update                      :        0.115 s           0.116 s
  | Density mixing                             :        0.013 s           0.012 s
  | Hartree multipole update                   :        0.000 s           0.001 s
  | Hartree multipole summation                :        0.131 s           0.130 s
  | Integration                                :        0.068 s           0.069 s
  | Solution of K.-S. eqns.                    :        0.098 s           0.098 s
  | Total energy evaluation                    :        0.000 s           0.000 s

  Partial memory accounting:
  | Current value for overall tracked memory usage on task 0  :           2.616 MB
  | Peak value for overall tracked memory usage on task 0     :           3.520 MB after allocating wave
  | Largest tracked array allocation on task 0 so far         :           2.500 MB  when allocating +KS_eigenvector_complex
  Note:  These values currently only include a subset of arrays which are explicitly tracked.
  The "true" memory usage will be greater.
------------------------------------------------------------

  Energy and forces in a compact form:
  | Total energy uncorrected      :         -0.787064196926322E+04 eV
  | Total energy corrected        :         -0.787064285733693E+04 eV  <-- do not rely on this value for anything but (periodic) metals
  | Electronic free energy        :         -0.787064374541065E+04 eV

  ------------------------------------ 
  Start decomposition of the XC Energy 
  ------------------------------------ 
  X and C from original XC functional choice 
  Hartree-Fock Energy :          0.000000000 Ha              0.000000000 eV
  X Energy            :        -18.548499857 Ha           -504.730361512 eV
  C Energy            :         -1.051961145 Ha            -28.625319204 eV
  Total XC Energy     :        -19.600461002 Ha           -533.355680716 eV
  ------------------------------------ 
  LDA X and C from self-consistent density 
  X Energy LDA        :        -18.548499857 Ha           -504.730361512 eV
  C Energy LDA        :         -1.051961145 Ha            -28.625319204 eV
  ------------------------------------ 
  End decomposition of the XC Energy 
  ------------------------------------ 

------------------------------------------------------------

------------------------------------------------------------------------------
  Final output of selected total energy values:

  The following output summarizes some interesting total energy values
  at the end of a run (AFTER all relaxation, molecular dynamics, etc.).

  | Total energy of the DFT / Hartree-Fock s.c.f. calculation      :          -7870.641969263 eV
  | Final zero-broadening corrected energy (caution - metals only) :          -7870.642857337 eV
  | For reference only, the value of 1 Hartree used in FHI-aims is :             27.211384500 eV

  Before relying on these values, please be sure to understand exactly which
  total energy value is referred to by a given number. Different objects may
  all carry the same name 'total energy'. Definitions:

  Total energy of the DFT / Hartree-Fock s.c.f. calculation:
  | Note that this energy does not include ANY quantities calculated after the
  | s.c.f. cycle, in particular not ANY RPA, MP2, etc. many-body perturbation terms.

  Final zero-broadening corrected energy:
  | For metallic systems only, a broadening of the occupation numbers at the Fermi
  | level can be extrapolated back to zero broadening by an electron-gas inspired
  | formula. For all systems that are not real metals, this value can be
  | meaningless and should be avoided.

------------------------------------------------------------------------------
  Methods described in the following list of references were used in this FHI-aims run.
  If you publish the results, please make sure to cite these reference if they apply.
  FHI-aims is an academic code, and for our developers (often, Ph.D. students
  and postdocs), scientific credit in the community is essential.
  Thank you for helping us!

  For any use of FHI-aims, please cite:

    Volker Blum, Ralf Gehrke, Felix Hanke, Paula Havu, Ville Havu,
    Xinguo Ren, Karsten Reuter, and Matthias Scheffler
    'Ab initio molecular simulations with numeric atom-centered orbitals'
    Computer Physics Communications 180, 2175-2196 (2009)
    http://dx.doi.org/10.1016/j.cpc.2009.06.022


  For the real-space grid partitioning and parallelization used in this calculation, please cite:

    Ville Havu, Volker Blum, Paula Havu, and Matthias Scheffler,
    'Efficient O(N) integration for all-electron electronic structure calculation'
    'using numerically tabulated basis functions'
    Journal of Computational Physics 228, 8367-8379 (2009).
    http://dx.doi.org/10.1016/j.jcp.2009.08.008

  Of course, there are many other important community references, e.g., those cited in the
  above references. Our list is limited to references that describe implementations in the
  FHI-aims code. The reason is purely practical (length of this list) - please credit others as well.

------------------------------------------------------------
          Leaving FHI-aims.
          Date     :  20190514, Time     :  123648.727

          Computational steps:
          | Number of self-consistency cycles          :           12
          | Number of SCF (re)initializations          :            1

          Detailed time accounting                     :  max(cpu_time)    wall_clock(cpu1)
          | Total time                                 :        5.664 s           5.668 s
          | Preparation time                           :        0.100 s           0.100 s
          | Boundary condition initalization           :        0.031 s           0.031 s
          | Grid partitioning                          :        0.007 s           0.007 s
          | Preloading free-atom quantities on grid    :        0.001 s           0.001 s
          | Free-atom superposition energy             :        0.007 s           0.007 s
          | Total time for integrations                :        0.953 s           0.955 s
          | Total time for solution of K.-S. equations :        1.424 s           1.429 s
          | Total time for density update              :        1.388 s           1.391 s
          | Total time for mixing & preconditioning    :        0.151 s           0.150 s
          | Total time for Hartree multipole update    :        0.005 s           0.003 s
          | Total time for Hartree multipole sum       :        1.565 s           1.564 s
          | Total time for total energy evaluation     :        0.003 s           0.000 s
          | Total time for scaled ZORA corrections     :        0.000 s           0.000 s

 This is a stub MPI_ALLREDUCE call.
 You should not be here. Check your
 setting on the use_mpi variable, or
 link against true MPI-libraries.
