------------------------------------------------------------
          Invoking FHI-aims ...
          Version 171221_1
          Compiled on 2019/05/06 at 14:26:40 on host ffph0xx.

          When using FHI-aims, please cite the following reference:

          Volker Blum, Ralf Gehrke, Felix Hanke, Paula Havu,
          Ville Havu, Xinguo Ren, Karsten Reuter, and Matthias Scheffler,
          'Ab Initio Molecular Simulations with Numeric Atom-Centered Orbitals',
          Computer Physics Communications 180, 2175-2196 (2009)

          For any questions about FHI-aims, please visit the aimsclub website
          with its forums and wiki. Contributions to both the forums and the
          wiki are warmly encouraged - they are for you, and everyone is welcome there.

------------------------------------------------------------



  Date     :  20190509, Time     :  131926.780
  Time zero on CPU 1             :   0.334000000000000E-02  s.
  Internal wall clock time zero  :           326639966.780  s.

  FHI-aims created a unique identifier for this run for later identification
  aims_uuid : 7F06F3F6-025D-45AA-A3C5-72ABB5063CE7


  Performing system and environment tests:
  *** Environment variable OMP_NUM_THREADS is not set
  *** For performance reasons you might want to set it to 1
  | Stacksize not measured: no C compiler

  Obtaining array dimensions for all initial allocations:
  
  -----------------------------------------------------------------------
  Parsing control.in (first pass over file, find array dimensions only).
  The contents of control.in will be repeated verbatim below
  unless switched off by setting 'verbatim_writeout .false.' .
  in the first line of control.in .
  -----------------------------------------------------------------------
  
  #--- method ---
  xc pw-lda
  charge 0.0
  spin collinear
  default_initial_moment 1.0
  
  switch_external_pert 10 safe
  sc_iter_limit    100
  #---
  
  #--- Mixer ---
  mixer pulay
  charge_mix_param 0.3
  n_max_pulay 5
  #---
  
  #--- stuff to be output ---
  output cube eigenstate homo
  cube filename HOMO.cube
  output cube eigenstate lumo
  cube filename LUMO.cube
  
  output cube total_density
  cube filename total_density_uncharged.cube
  #---
  
  #-------------------------------------------------------------------------------
  #--- Species defaults
  #-------------------------------------------------------------------------------
  
  ################################################################################
  #
  #  FHI-aims code project
  # Volker Blum, Fritz Haber Institute Berlin, 2009
  #
  #  Suggested "tight" defaults for H atom (to be pasted into control.in file)
  #
  ################################################################################
    species        H
  #     global species definitions
      nucleus             1
      mass                1.00794
  #
      l_hartree           6
  #
      cut_pot             4.0  2.0  1.0
      basis_dep_cutoff    1e-4
  #
      radial_base         24 7.0
      radial_multiplier   2
      angular_grids       specified
        division   0.1930   50
        division   0.3175  110
        division   0.4293  194
        division   0.5066  302
        division   0.5626  434
  #      division   0.5922  590
  #      division   0.6227  974
  #      division   0.6868 1202
  #      outer_grid  770
        outer_grid  434
  ################################################################################
  #
  #  Definition of "minimal" basis
  #
  ################################################################################
  #     valence basis states
      valence      1  s   1.
  #     ion occupancy
      ion_occ      1  s   0.5
  ################################################################################
  #
  #  Suggested additional basis functions. For production calculations,
  #  uncomment them one after another (the most important basis functions are
  #  listed first).
  #
  #  Basis constructed for dimers: 0.5 A, 0.7 A, 1.0 A, 1.5 A, 2.5 A
  #
  ################################################################################
  #  "First tier" - improvements: -1014.90 meV to -62.69 meV
       hydro 2 s 2.1
       hydro 2 p 3.5
  #  "Second tier" - improvements: -12.89 meV to -1.83 meV
       hydro 1 s 0.85
       hydro 2 p 3.7
       hydro 2 s 1.2
       hydro 3 d 7
  #  "Third tier" - improvements: -0.25 meV to -0.12 meV
  #     hydro 4 f 11.2
  #     hydro 3 p 4.8
  #     hydro 4 d 9
  #     hydro 3 s 3.2
  ################################################################################
  #
  # For methods that use the localized form of the "resolution of identity" for
  # the two-electron Coulomb operator (RI_method LVL), particularly Hartree-Fock and
  # hybrid density functional calculations, the highest accuracy can be obtained by
  # uncommenting the line beginning with "for_aux"  below, thus adding an extra g radial
  # function to the construction of the product basis set for the expansion.
  # See Ref. New J. Phys. 17, 093020 (2015) for more information, particularly Figs. 1 and 6.
  #
  ################################################################################
  #
  # for_aux hydro 5 g 6.0
  ################################################################################
  #
  #  FHI-aims code project
  # Volker Blum, Fritz Haber Institute Berlin, 2009
  #
  #  Suggested "tight" defaults for C atom (to be pasted into control.in file)
  #
  ################################################################################
    species        C
  #     global species definitions
      nucleus             6
      mass                12.0107
  #
      l_hartree           6
  #
      cut_pot             4.0  2.0  1.0
      basis_dep_cutoff    1e-4
  #
      radial_base         34 7.0
      radial_multiplier   2
      angular_grids specified
        division   0.2187   50
        division   0.4416  110
        division   0.6335  194
        division   0.7727  302
        division   0.8772  434
  #      division   0.9334  590
  #      division   0.9924  770
  #      division   1.0230  974
  #      division   1.5020 1202
  #     outer_grid  974
        outer_grid  434
  ################################################################################
  #
  #  Definition of "minimal" basis
  #
  ################################################################################
  #     valence basis states
      valence      2  s   2.
      valence      2  p   2.
  #     ion occupancy
      ion_occ      2  s   1.
      ion_occ      2  p   1.
  ################################################################################
  #
  #  Suggested additional basis functions. For production calculations,
  #  uncomment them one after another (the most important basis functions are
  #  listed first).
  #
  #  Constructed for dimers: 1.0 A, 1.25 A, 1.5 A, 2.0 A, 3.0 A
  #
  ################################################################################
  #  "First tier" - improvements: -1214.57 meV to -155.61 meV
       hydro 2 p 1.7
       hydro 3 d 6
       hydro 2 s 4.9
  #  "Second tier" - improvements: -67.75 meV to -5.23 meV
       hydro 4 f 9.8
       hydro 3 p 5.2
       hydro 3 s 4.3
       hydro 5 g 14.4
       hydro 3 d 6.2
  #  "Third tier" - improvements: -2.43 meV to -0.60 meV
  #     hydro 2 p 5.6
  #     hydro 2 s 1.4
  #     hydro 3 d 4.9
  #     hydro 4 f 11.2
  #  "Fourth tier" - improvements: -0.39 meV to -0.18 meV
  #     hydro 2 p 2.1
  #     hydro 5 g 16.4
  #     hydro 4 d 13.2
  #     hydro 3 s 13.6
  #     hydro 4 f 17.6
  #  Further basis functions - improvements: -0.08 meV and below
  #     hydro 3 s 2
  #     hydro 3 p 6
  #     hydro 4 d 20
  ################################################################################
  #
  # For methods that use the localized form of the "resolution of identity" for
  # the two-electron Coulomb operator (RI_method LVL), particularly Hartree-Fock and
  # hybrid density functional calculations, the highest accuracy can be obtained by
  # uncommenting the line beginning with "for_aux"  below, thus adding an extra g radial
  # function to the construction of the product basis set for the expansion.
  # See Ref. New J. Phys. 17, 093020 (2015) for more information, particularly Figs. 1 and 6.
  #
  ################################################################################
  #
  # for_aux hydro 5 g 6.0
  ################################################################################
  #
  #  FHI-aims code project
  # Volker Blum, Fritz Haber Institute Berlin, 2009
  #
  #  Suggested "tight" defaults for O atom (to be pasted into control.in file)
  #
  ################################################################################
    species        O
  #     global species definitions
      nucleus             8
      mass                15.9994
  #
      l_hartree           6
  #
      cut_pot             4.0  2.0  1.0
      basis_dep_cutoff    1e-4
  #
      radial_base         36 7.0
      radial_multiplier   2
       angular_grids specified
        division   0.1817   50
        division   0.3417  110
        division   0.4949  194
        division   0.6251  302
        division   0.8014  434
  #      division   0.8507  590
  #      division   0.8762  770
  #      division   0.9023  974
  #      division   1.2339 1202
  #      outer_grid 974
        outer_grid  434
  ################################################################################
  #
  #  Definition of "minimal" basis
  #
  ################################################################################
  #     valence basis states
      valence      2  s   2.
      valence      2  p   4.
  #     ion occupancy
      ion_occ      2  s   1.
      ion_occ      2  p   3.
  ################################################################################
  #
  #  Suggested additional basis functions. For production calculations,
  #  uncomment them one after another (the most important basis functions are
  #  listed first).
  #
  #  Constructed for dimers: 1.0 A, 1.208 A, 1.5 A, 2.0 A, 3.0 A
  #
  ################################################################################
  #  "First tier" - improvements: -699.05 meV to -159.38 meV
       hydro 2 p 1.8
       hydro 3 d 7.6
       hydro 3 s 6.4
  #  "Second tier" - improvements: -49.91 meV to -5.39 meV
       hydro 4 f 11.6
       hydro 3 p 6.2
       hydro 3 d 5.6
       hydro 5 g 17.6
       hydro 1 s 0.75
  #  "Third tier" - improvements: -2.83 meV to -0.50 meV
  #     ionic 2 p auto
  #     hydro 4 f 10.8
  #     hydro 4 d 4.7
  #     hydro 2 s 6.8
  #  "Fourth tier" - improvements: -0.40 meV to -0.12 meV
  #     hydro 3 p 5
  #     hydro 3 s 3.3
  #     hydro 5 g 15.6
  #     hydro 4 f 17.6
  #     hydro 4 d 14
  # Further basis functions - -0.08 meV and below
  #     hydro 3 s 2.1
  #     hydro 4 d 11.6
  #     hydro 3 p 16
  #     hydro 2 s 17.2
  ################################################################################
  #
  # For methods that use the localized form of the "resolution of identity" for
  # the two-electron Coulomb operator (RI_method LVL), particularly Hartree-Fock and
  # hybrid density functional calculations, the highest accuracy can be obtained by
  # uncommenting the line beginning with "for_aux"  below, thus adding an extra g radial
  # function to the construction of the product basis set for the expansion.
  # See Ref. New J. Phys. 17, 093020 (2015) for more information, particularly Figs. 1 and 6.
  #
  ################################################################################
  #
  # for_aux hydro 5 g 6.0
  
  -----------------------------------------------------------------------
  Completed first pass over input file control.in .
  -----------------------------------------------------------------------
  
  
  -----------------------------------------------------------------------
  Parsing geometry.in (first pass over file, find array dimensions only).
  The contents of geometry.in will be repeated verbatim below
  unless switched off by setting 'verbatim_writeout .false.' .
  in the first line of geometry.in .
  -----------------------------------------------------------------------
  
  #  Geometry of para-Benzoquinone
     atom    3.0000000000000000        3.0000000000000000        0.0000000000000      C
     atom    3.0000000000000000        4.4000000000000004        0.0000000000000      C
     atom    4.2124360000000003        5.0999999999999996        0.0000000000000      C
     atom    5.4248710000000004        4.4000000000000004        0.0000000000000      C
     atom    5.4248710000000004        3.0000000000000000        0.0000000000000      C
     atom    4.2124360000000003        2.2999999999999998        0.0000000000000      C
     atom    2.0568979999999999        4.9444999999999997        0.0000000000000      H
     atom    4.2124360000000003        6.1890000000000001        0.0000000000000      H
     atom    6.3679730000000001        2.4554999999999998        0.0000000000000      H
     atom    4.2124360000000003        1.2110000000000001        0.0000000000000      H
     atom    6.4814220000000002        5.0099999999999998        0.0000000000000      O
     atom    1.9434490000000000        2.3900000000000001        0.0000000000000      O
  
  -----------------------------------------------------------------------
  Completed first pass over input file geometry.in .
  -----------------------------------------------------------------------
  

  Basic array size parameters:
  | Number of species                 :        3
  | Number of atoms                   :       12
  | Max. basis fn. angular momentum   :        4
  | Max. atomic/ionic basis occupied n:        2
  | Max. number of basis fn. types    :        2
  | Max. radial fns per species/type  :        8
  | Max. logarithmic grid size        :     1301
  | Max. radial integration grid size :       73
  | Max. angular integration grid size:      434
  | Max. angular grid division number :        8
  | Radial grid for Hartree potential :     1301
  | Number of spin channels           :        2
  | External embedding multipoles     :        0
  | Cube type output requested        :        3

------------------------------------------------------------
          Reading file control.in.
------------------------------------------------------------
  XC: Using Perdew-Wang parametrisation of Ceperley-Alder LDA.
  Charge =   0.000000E+00: Neutral system requested explicitly.
  Spin treatment: Spin density functional theory - collinear spins.
  Initial spin moment per atom:   1.0000
  External perturbation switched on up to cycle :         10
  Maximum number of s.-c. iterations  :   100
  Using pulay charge density mixing.
  Charge density mixing - mixing parameter:     0.3000
  Pulay mixing - number of memorized iterations:    5
  'cube'-style plottable output required: Wavefunction for eigenstate HOMO
  | Cube output options:
 * Cube origin was not provided following cube request. Will be using default value.
 * Cube edges were not provided following cube request. Defaults will be used.
 Standard cube format requested.
 Standard cube format requested.
  'cube'-style plottable output required: Wavefunction for eigenstate LUMO
  | Cube output options:
 * Cube origin was not provided following cube request. Will be using default value.
 * Cube edges were not provided following cube request. Defaults will be used.
 Standard cube format requested.
 Standard cube format requested.
  'cube'-style plottable output required: Total charge density. 
  | Cube output options:
 * Cube origin was not provided following cube request. Will be using default value.
 * Cube edges were not provided following cube request. Defaults will be used.
 Standard cube format requested.
 Standard cube format requested.

  Reading configuration options for species H                   .
  | Found nuclear charge :   1.0000
  | Found atomic mass :    1.0079400000000001      amu
  | Found l_max for Hartree potential  :   6
  | Found cutoff potl. onset [A], width [A], scale factor :    4.00000    2.00000    1.00000
  | Threshold for basis-dependent cutoff potential is   0.100000E-03
  | Found data for basic radial integration grid :    24 points, outermost radius =    7.000 A
  | Found multiplier for basic radial grid :   2
  | Found angular grid specification: user-specified.
  | Specified grid contains     6 separate shells.
  | Check grid settings after all constraints further below.
  | Found free-atom valence shell :  1 s   1.000
  | No ionic wave fns used. Skipping ion_occ.
  | Found hydrogenic basis function :  2 s   2.100
  | Found hydrogenic basis function :  2 p   3.500
  | Found hydrogenic basis function :  1 s   0.850
  | Found hydrogenic basis function :  2 p   3.700
  | Found hydrogenic basis function :  2 s   1.200
  | Found hydrogenic basis function :  3 d   7.000
  Species H                   : Missing cutoff potential type.
  Defaulting to exp(1/x)/(1-x)^2 type cutoff potential.
  Species H : No 'logarithmic' tag. Using default grid for free atom:
  | Default logarithmic grid data [bohr] : 0.1000E-03 0.1000E+03 0.1012E+01
  Species H : On-site basis accuracy parameter (for Gram-Schmidt orthonormalisation) not specified.
  Using default value basis_acc =  0.1000000E-03.
  Species H                   : Using default innermost maximum threshold i_radial=  2 for radial functions.
  Species H                   : Default cutoff onset for free atom density etc. : 0.40000000E+01 AA.
  Species H                   : Basic radial grid will be enhanced according to radial_multiplier =   2, to contain    49 grid points.

  Reading configuration options for species C                   .
  | Found nuclear charge :   6.0000
  | Found atomic mass :    12.010700000000000      amu
  | Found l_max for Hartree potential  :   6
  | Found cutoff potl. onset [A], width [A], scale factor :    4.00000    2.00000    1.00000
  | Threshold for basis-dependent cutoff potential is   0.100000E-03
  | Found data for basic radial integration grid :    34 points, outermost radius =    7.000 A
  | Found multiplier for basic radial grid :   2
  | Found angular grid specification: user-specified.
  | Specified grid contains     6 separate shells.
  | Check grid settings after all constraints further below.
  | Found free-atom valence shell :  2 s   2.000
  | Found free-atom valence shell :  2 p   2.000
  | No ionic wave fns used. Skipping ion_occ.
  | No ionic wave fns used. Skipping ion_occ.
  | Found hydrogenic basis function :  2 p   1.700
  | Found hydrogenic basis function :  3 d   6.000
  | Found hydrogenic basis function :  2 s   4.900
  | Found hydrogenic basis function :  4 f   9.800
  | Found hydrogenic basis function :  3 p   5.200
  | Found hydrogenic basis function :  3 s   4.300
  | Found hydrogenic basis function :  5 g  14.400
  | Found hydrogenic basis function :  3 d   6.200
  Species C                   : Missing cutoff potential type.
  Defaulting to exp(1/x)/(1-x)^2 type cutoff potential.
  Species C : No 'logarithmic' tag. Using default grid for free atom:
  | Default logarithmic grid data [bohr] : 0.1000E-03 0.1000E+03 0.1012E+01
  Species C : On-site basis accuracy parameter (for Gram-Schmidt orthonormalisation) not specified.
  Using default value basis_acc =  0.1000000E-03.
  Species C                   : Using default innermost maximum threshold i_radial=  2 for radial functions.
  Species C                   : Default cutoff onset for free atom density etc. : 0.40000000E+01 AA.
  Species C                   : Basic radial grid will be enhanced according to radial_multiplier =   2, to contain    69 grid points.

  Reading configuration options for species O                   .
  | Found nuclear charge :   8.0000
  | Found atomic mass :    15.999400000000000      amu
  | Found l_max for Hartree potential  :   6
  | Found cutoff potl. onset [A], width [A], scale factor :    4.00000    2.00000    1.00000
  | Threshold for basis-dependent cutoff potential is   0.100000E-03
  | Found data for basic radial integration grid :    36 points, outermost radius =    7.000 A
  | Found multiplier for basic radial grid :   2
  | Found angular grid specification: user-specified.
  | Specified grid contains     6 separate shells.
  | Check grid settings after all constraints further below.
  | Found free-atom valence shell :  2 s   2.000
  | Found free-atom valence shell :  2 p   4.000
  | No ionic wave fns used. Skipping ion_occ.
  | No ionic wave fns used. Skipping ion_occ.
  | Found hydrogenic basis function :  2 p   1.800
  | Found hydrogenic basis function :  3 d   7.600
  | Found hydrogenic basis function :  3 s   6.400
  | Found hydrogenic basis function :  4 f  11.600
  | Found hydrogenic basis function :  3 p   6.200
  | Found hydrogenic basis function :  3 d   5.600
  | Found hydrogenic basis function :  5 g  17.600
  | Found hydrogenic basis function :  1 s   0.750
  Species O                   : Missing cutoff potential type.
  Defaulting to exp(1/x)/(1-x)^2 type cutoff potential.
  Species O : No 'logarithmic' tag. Using default grid for free atom:
  | Default logarithmic grid data [bohr] : 0.1000E-03 0.1000E+03 0.1012E+01
  Species O : On-site basis accuracy parameter (for Gram-Schmidt orthonormalisation) not specified.
  Using default value basis_acc =  0.1000000E-03.
  Species O                   : Using default innermost maximum threshold i_radial=  2 for radial functions.
  Species O                   : Default cutoff onset for free atom density etc. : 0.40000000E+01 AA.
  Species O                   : Basic radial grid will be enhanced according to radial_multiplier =   2, to contain    73 grid points.

  Finished reading input file 'control.in'. Consistency checks are next.

  MPI_IN_PLACE appears to work with this MPI implementation.
  | Keeping use_mpi_in_place .true. (see manual).
  Target number of points in a grid batch is not set. Defaulting to  100
  Method for grid partitioning is not set. Defaulting to 'maxmin' partitioning.
  Batch size limit is not set. Defaulting to    200
  By default, will store active basis functions for each batch.
  If in need of memory, prune_basis_once .false. can be used to disable this option.
  communication_type for Hartree potential was not specified.
  Defaulting to calc_hartree .
 * Attention: 
 * You may want to set distributed_spline_storage to .true. in order to save memory.
 * This doesn't harm performance and is perfectly ok unless:
 * - you get error messages in postprocessing (about missing atoms in get_rho_multipole_spl)
 * - you need full spline storage in hirshfeld_analysis
  Pulay mixer: Number of initial linear mixing iterations not set.
  Defaulting to    0 iterations.
  Work space size for distributed Hartree potential not set.
  Defaulting to   0.200000E+03 MB.
  Mixing parameter for spin density mixing has not been set.
  Using charge_mix_param as default:     0.3000.
  Algorithm-dependent basis array size parameters:
  | n_max_pulay                         :        5
 * Notice: The s.c.f. convergence criterion sc_accuracy_rho was not provided.
 * We used to stop in this case, and ask the user to provide reasonable
 * scf convergence criteria. However, this led some users to employ criteria
 * that led to extremely long run times, e.g., for simple relaxation.
 * We now preset a default value for sc_accuracy_rho if it is not set.
 * You may still wish to check if this setting is too tight or too loose for your needs.
 * Based on n_atoms, FHI-aims chose sc_accuracy_rho =  0.200000E-05 .
  Presetting      1001 iterations before the initial mixing cycle
  is restarted anyway using the sc_init_iter criterion / keyword.
  Presetting a factor      1.000 between actual scf density residual
  and density convergence criterion sc_accuracy_rho below which sc_init_iter
  takes no effect.
 * No s.c.f. convergence criteria (sc_accuracy_*) were provided in control.in.
 * The run will proceed with a reasonable default guess, but please check whether.
 * the s.c.f. cycles seem to take too much or too little time.
  Calculation of forces was not defined in control.in. No forces will be calculated.
  Geometry relaxation not requested: no relaxation will be performed.
  No accuracy limit for integral partition fn. given. Defaulting to  0.1000E-14.
  No threshold value for u(r) in integrations given. Defaulting to  0.1000E-05.

  Attention! Symmetry-breaking settings requested above.
  Enforcing the following defaults: 
    Occupation (smearing) type: Gaussian broadening
    Gaussian broadening width :   0.100000E-04 eV.

  No accuracy for occupation numbers given. Defaulting to  0.1000E-12.
  No threshold value for occupation numbers given. Defaulting to  0.0000E+00.
  No accuracy for fermi level given. Defaulting to  0.1000E-19.
  Maximum # of iterations to find E_F not set. Defaulting to  200.
  Preferred method for the eigenvalue solver ('KS_method') not specified in 'control.in'.
  Defaulting to serial version, 'lapack_fast'.
  Will not use alltoall communication since running on < 1024 CPUs.
  Threshold for basis singularities not set.
  Default threshold for basis singularities:  0.1000E-04
  partition_type (choice of integration weights) for integrals was not specified.
  | Using a version of the partition function of Stratmann and coworkers ('stratmann_smoother').
  | At each grid point, the set of atoms used to build the partition table is smoothly restricted to
  | only those atoms whose free-atom density would be non-zero at that grid point.
  Partitioning for Hartree potential was not defined. Using partition_type for integrals.
  | Adjusted default value of keyword multip_moments_threshold to:       0.10000000E-11
  | This value may affect high angular momentum components of the Hartree potential in periodic systems.
  No q(lm)/r^(l+1) cutoff set for long-range Hartree potential.
  | Using default value of  0.100000E-09 .
  | Verify using the multipole_threshold keyword.
  Defaulting to new monopole extrapolation.
  Density update method: automatic selection selected.
  * Volumetric cube output requested. Tightening default wave_threshold to 1d-8
------------------------------------------------------------


------------------------------------------------------------
          Reading geometry description geometry.in.
------------------------------------------------------------
  Attention! Symmetry-breaking settings requested in control.in.
    Homogeneous external field: Initial settings   0.000000E+00  0.000000E+00  0.100000E-02
 * Warning! You did not set the 'relativistic' flag in input file 'control.in'.
 * Since you are not attempting to treat any elements beyond Ca(Z=20), FHI-aims
 * will default to 'relativistic none'.
 * You must ensure that this is really what you want!!
 * For example, DO NOT compute total-energy differences between results from
 * different settings of the 'relativistic' flag.
  Input structure read successfully.
  The structure contains       12 atoms,  and a total of         56.000 electrons.

  Input geometry:
  | No unit cell requested.
  | Atomic structure:
  |       Atom                x [A]            y [A]            z [A]
  |    1: Species C             3.00000000        3.00000000        0.00000000
  |    2: Species C             3.00000000        4.40000000        0.00000000
  |    3: Species C             4.21243600        5.10000000        0.00000000
  |    4: Species C             5.42487100        4.40000000        0.00000000
  |    5: Species C             5.42487100        3.00000000        0.00000000
  |    6: Species C             4.21243600        2.30000000        0.00000000
  |    7: Species H             2.05689800        4.94450000        0.00000000
  |    8: Species H             4.21243600        6.18900000        0.00000000
  |    9: Species H             6.36797300        2.45550000        0.00000000
  |   10: Species H             4.21243600        1.21100000        0.00000000
  |   11: Species O             6.48142200        5.01000000        0.00000000
  |   12: Species O             1.94344900        2.39000000        0.00000000
  |

  | The smallest distance between any two atoms is         1.08900000 AA.
  |
  | The first atom of this pair is atom number                      6 .
  | The second atom of this pair is atom number                    10 .

  Initial moments and charges:
  |  Atom   Moment         Charge        Species
  |     1   0.100000E+01   0.000000E+00   C
  |     2   0.100000E+01   0.000000E+00   C
  |     3   0.100000E+01   0.000000E+00   C
  |     4   0.100000E+01   0.000000E+00   C
  |     5   0.100000E+01   0.000000E+00   C
  |     6   0.100000E+01   0.000000E+00   C
  |     7   0.100000E+01   0.000000E+00   H
  |     8   0.100000E+01   0.000000E+00   H
  |     9   0.100000E+01   0.000000E+00   H
  |    10   0.100000E+01   0.000000E+00   H
  |    11   0.100000E+01   0.000000E+00   O
  |    12   0.100000E+01   0.000000E+00   O

  Number of empty states per atom not set in control.in - providing a guess from actual geometry.
  | Total number of empty states used during s.c.f. cycle:       30
  If you use a very high smearing, use empty_states (per atom!) in control.in to increase this value.

  Structure-dependent array size parameters: 
  | Number of distinct atom types in initial rho :        3
  | Maximum number of distinct radial functions  :       29
  | Maximum number of basis functions            :      372
  | Number of Kohn-Sham states (occupied + empty):       58
------------------------------------------------------------

------------------------------------------------------------
          Preparing all fixed parts of the calculation.
------------------------------------------------------------
  Determining machine precision:
     2.2250738585072014E-308
  Setting up grids for atomic and cluster calculations.

  Creating wave function, potential, and density for free atoms.

  Species: H

  List of occupied orbitals and eigenvalues:
    n    l              occ      energy [Ha]    energy [eV]
    1    0           1.0000        -0.233220        -6.3462


  Species: C

  List of occupied orbitals and eigenvalues:
    n    l              occ      energy [Ha]    energy [eV]
    1    0           2.0000        -9.946836      -270.6672
    2    0           2.0000        -0.500303       -13.6139
    2    1           2.0000        -0.198612        -5.4045


  Species: O

  List of occupied orbitals and eigenvalues:
    n    l              occ      energy [Ha]    energy [eV]
    1    0           2.0000       -18.758091      -510.4336
    2    0           2.0000        -0.871176       -23.7059
    2    1           4.0000        -0.338214        -9.2033

  Spin-polarized or charged system:
  Charge density initialized according to selected moments and charges.

  Creating spin-polarized density from free atoms.

  Species: C
  Charge:   0.000000
  Moment:   1.000000

  List of occupied orbitals and eigenvalues:
    n    l      energy [Ha]    energy [eV]    occupation
  Spin-up
    1    0        -9.949782      -270.7473     1.00000000
    2    0        -0.519886       -14.1468     1.00000000
    2    1        -0.216845        -5.9007     1.50000000
  Spin-down
    1    0        -9.932026      -270.2642     1.00000000
    2    0        -0.472335       -12.8529     1.00000000
    2    1        -0.172898        -4.7048     0.50000000


  Species: H
  Charge:   0.000000
  Moment:   1.000000

  List of occupied orbitals and eigenvalues:
    n    l      energy [Ha]    energy [eV]    occupation
  Spin-up
    1    0        -0.268903        -7.3172     1.00000000
  Spin-down
    1    0        -0.094843        -2.5808     0.00000000


  Species: O
  Charge:   0.000000
  Moment:   1.000000

  List of occupied orbitals and eigenvalues:
    n    l      energy [Ha]    energy [eV]    occupation
  Spin-up
    1    0       -18.767080      -510.6782     1.00000000
    2    0        -0.896278       -24.3890     1.00000000
    2    1        -0.362424        -9.8621     2.50000000
  Spin-down
    1    0       -18.740260      -509.9484     1.00000000
    2    0        -0.839856       -22.8536     1.00000000
    2    1        -0.308323        -8.3899     1.50000000

  Creating fixed part of basis set: Ionic, confined, hydrogenic.

  H                    hydrogenic:

  List of hydrogenic basis orbitals: 
    n    l      effective z      eigenvalue [eV]  inner max. [A]     outer max. [A]     outer radius [A]   
    2    0         2.100000       -14.9965           0.193243           1.317208           5.573719
    2    1         3.500000       -41.6672           0.602369           0.602369           4.259334
    1    0         0.850000        -9.8292           0.624871           0.624871           5.573719
    2    1         3.700000       -46.5653           0.573622           0.573622           4.105953
    2    0         1.200000        -4.5995           0.334980           2.228188           5.642276
    3    2         7.000000       -74.0753           0.680699           0.680699           3.958095


  C                    hydrogenic:

  List of hydrogenic basis orbitals: 
    n    l      effective z      eigenvalue [eV]  inner max. [A]     outer max. [A]     outer radius [A]   
    2    1         1.700000        -9.8152           1.245706           1.245706           5.603412
    3    2         6.000000       -54.4226           0.792453           0.792453           4.388011
    2    0         4.900000       -81.6681           0.082559           0.562749           3.564598
    4    3         9.800000       -81.6681           0.863254           0.863254           4.229996
    3    1         5.200000       -40.8774           0.305389           1.215618           5.081344
    3    0         4.300000       -27.9508           0.091041           1.610311           5.535327
    5    4        14.400000      -112.8510           0.917666           0.917666           4.127827
    3    2         6.200000       -58.1113           0.763917           0.763917           4.282025


  O                    hydrogenic:

  List of hydrogenic basis orbitals: 
    n    l      effective z      eigenvalue [eV]  inner max. [A]     outer max. [A]     outer radius [A]   
    2    1         1.800000       -11.0118           1.178562           1.178562           5.567066
    3    2         7.600000       -87.3182           0.624125           0.624125           3.764702
    3    0         6.400000       -61.9209           0.061167           1.081902           4.522403
    4    3        11.600000      -114.4238           0.731631           0.731631           3.811008
    3    1         6.200000       -58.1113           0.255680           1.030270           4.522403
    3    2         5.600000       -47.4081           0.847233           0.847233           4.578029
    5    4        17.600000      -168.5799           0.749740           0.749740           3.629133
    1    0         0.750000        -7.6499           0.705284           0.705284           5.567066


  Adding cutoff potential to free-atom effective potential.
  Creating atomic-like basis functions for current effective potential.

  Species H                   :

  List of atomic basis orbitals and eigenvalues:
    n    l      energy [Ha]    energy [eV]    outer radius [A]
    1    0        -0.233220        -6.3462       5.573719


  Species C                   :

  List of atomic basis orbitals and eigenvalues:
    n    l      energy [Ha]    energy [eV]    outer radius [A]
    1    0        -9.946836      -270.6672       2.470206
    2    0        -0.500303       -13.6139       5.468070
    2    1        -0.198612        -5.4045       5.535327


  Species O                   :

  List of atomic basis orbitals and eigenvalues:
    n    l      energy [Ha]    energy [eV]    outer radius [A]
    1    0       -18.758091      -510.4336       1.830144
    2    0        -0.871176       -23.7059       5.366593
    2    1        -0.338214        -9.2033       5.499423

  Assembling full basis from fixed parts.
  | Species H :   atomic orbital   1 s accepted.
  | Species H :    hydro orbital   2 s accepted.
  | Species H :    hydro orbital   1 s accepted.
  | Species H :    hydro orbital   2 s accepted.
  | Species H :    hydro orbital   2 p accepted.
  | Species H :    hydro orbital   2 p accepted.
  | Species H :    hydro orbital   3 d accepted.
  | Species C :   atomic orbital   1 s accepted.
  | Species C :    hydro orbital   2 s accepted.
  | Species C :   atomic orbital   2 s accepted.
  | Species C :    hydro orbital   3 s accepted.
  | Species C :    hydro orbital   3 p accepted.
  | Species C :   atomic orbital   2 p accepted.
  | Species C :    hydro orbital   2 p accepted.
  | Species C :    hydro orbital   3 d accepted.
  | Species C :    hydro orbital   3 d accepted.
  | Species C :    hydro orbital   4 f accepted.
  | Species C :    hydro orbital   5 g accepted.
  | Species O :   atomic orbital   1 s accepted.
  | Species O :    hydro orbital   3 s accepted.
  | Species O :   atomic orbital   2 s accepted.
  | Species O :    hydro orbital   1 s accepted.
  | Species O :    hydro orbital   3 p accepted.
  | Species O :   atomic orbital   2 p accepted.
  | Species O :    hydro orbital   2 p accepted.
  | Species O :    hydro orbital   3 d accepted.
  | Species O :    hydro orbital   3 d accepted.
  | Species O :    hydro orbital   4 f accepted.
  | Species O :    hydro orbital   5 g accepted.

  Basis size parameters after reduction:
  | Total number of radial functions:       29
  | Total number of basis functions :      372

  Per-task memory consumption for arrays in subroutine allocate_ext:
  |           4.840036MB.
  Testing on-site integration grid accuracy.
  |  Species  Function  <phi|h_atom|phi> (log., in eV)  <phi|h_atom|phi> (rad., in eV)
           1        1                 -6.3465499670                 -6.3466517897
           1        2                 13.9255123248                 13.9252158366
           1        3                 42.5820300838                 42.5725529183
           1        4                 44.6080800718                 44.5543339253 ***
           1        5                 28.9862042128                 28.9862042374
           1        6                 59.7424928664                 59.7425632637
           1        7                 60.2977264576                 60.2977262009
           2        8               -270.6671842925               -270.6671827993
           2        9                -10.6108610693                -10.6108827880
           2       10                 16.2274077503                 16.2274214632
           2       11                 49.2561491827                 49.2563829898
           2       12                 14.7877844988                 14.7877813581
           2       13                  3.5625931238                  3.5626464976
           2       14                 11.7852890256                 11.7878514290
           2       15                 29.4361834129                 29.4361837426
           2       16                 54.5768569826                 54.5767696925
           2       17                 59.3658767864                 59.3658767242
           2       18                 93.4519010566                 93.4519011342
           3       19               -510.4336245878               -510.4336201999
           3       20                 14.9009230815                 14.9009083655
           3       21                -21.2083409572                -21.2083501216
           3       22                 14.5816533182                 14.5816684301
           3       23                 20.4776286238                 20.4776290232
           3       24                 -2.7074166801                 -2.7074173204
           3       25                 13.8442743639                 13.8442374806
           3       26                 45.7831922021                 45.7831921819
           3       27                 52.0362324269                 52.0362339899
           3       28                 85.2955246461                 85.2955246727
           3       29                141.9684961692                141.9684961727
 * Note: Onsite integrals marked "***" above are less accurate than
 * onsite_accuracy_threshold =    0.03000 eV. Usually, this is harmless.
 * When in doubt, tighten the "radial" and/or "radial_multiplier" flags to check.

  Preparing densities etc. for the partition functions (integrals / Hartree potential).

  Preparations completed.
  max(cpu_time)          :      0.204 s.
  Wall clock time (cpu1) :      0.204 s.
------------------------------------------------------------

------------------------------------------------------------
          Begin self-consistency loop: Initialization.

          Date     :  20190509, Time     :  131926.999
------------------------------------------------------------

  Initializing index lists of integration centers etc. from given atomic structure:
  | Number of centers in hartree potential         :        12
  | Number of centers in hartree multipole         :        12
  | Number of centers in electron density summation:        12
  | Number of centers in basis integrals           :        12
  | Number of centers in integrals                 :        12
  | Number of centers in hamiltonian               :        12
  Partitioning the integration grid into batches with maxmin method.
  | Maximal weight for a single point:     1.000
  | Minimal weight for a single point:     0.000
  | Number of batches:     2362
  | Maximal batch size:     191
  | Minimal batch size:      51
  | Average batch size:      87.445
  | Standard deviation of batch sizes:      27.026
  Initializing partition tables, free-atom densities, potentials, etc. across the integration grid (initialize_grid_storage).
  | initialize_grid_storage: Actual outermost partition radius vs. multipole_radius_free
  | (-- VB: in principle, multipole_radius_free should be larger, hence this output)
  | Species        1: Confinement radius =              6.000000000000000 AA, multipole_radius_free =              6.071692442739658 AA.
  | Species        1: outer_partition_radius set to              6.071692442739658 AA .
  | Species        2: Confinement radius =              6.000000000000000 AA, multipole_radius_free =              6.029870734432609 AA.
  | Species        2: outer_partition_radius set to              6.029870734432609 AA .
  | Species        3: Confinement radius =              6.000000000000000 AA, multipole_radius_free =              6.064445521808699 AA.
  | Species        3: outer_partition_radius set to              6.064445521808699 AA .
  | Original list of interatomic distances with          12 x         12 entries is created.
  | Net number of integration points:   206544
  | of which are non-zero points    :   172874
  Renormalizing the initial density to the exact electron count on the 3D integration grid.
  | Initial density: Formal number of electrons (from input files) :      56.0000000000
  | Integrated number of electrons on 3D grid     :      56.0000040990
  | Charge integration error                      :       0.0000040990
  | Normalization factor for density and gradient :       0.9999999268
  Obtaining max. number of non-zero basis functions in each batch (get_n_compute_maxes).
  | Maximal number of non-zero basis functions:      371 in task     0
  Selecting the method for density update.
  Loop over occupied states selected for charge density update.
  Allocating        0.345 MB for KS_eigenvector
  Integrating Hamiltonian matrix: batch-based integration.
  Time summed over all CPUs for integration: real work       13.939 s, elapsed       13.939 s
  Integrating overlap matrix.
  Time summed over all CPUs for integration: real work        5.041 s, elapsed        5.041 s

  Updating Kohn-Sham eigenvalues, eigenvectors, occupation numbers, and Fermi level.
  Solving generalized eigenproblem
  Updating Kohn-Sham eigenvalues and eigenfunctions.
  Transforming overlap matrix and checking for singularities.
  Overlap matrix is nonsingular:
  | Lowest eigenvalue:  0.115285E-03
  Solving real generalised eigenvalue problem by standard LAPACK (fast)
  Updating Kohn-Sham eigenvalues and eigenfunctions.
  Solving real generalised eigenvalue problem by standard LAPACK (fast)

  Obtaining occupation numbers and chemical potential using ELSI.
  | Chemical potential (Fermi level):    -9.85468320eV
  Writing Kohn-Sham eigenvalues.

  Spin-up eigenvalues:

  State    Occupation    Eigenvalue [Ha]    Eigenvalue [eV]
      1       1.00000         -18.851646         -512.97937
      2       1.00000         -18.851645         -512.97936
      3       1.00000         -10.078896         -274.26071
      4       1.00000         -10.078791         -274.25786
      5       1.00000         -10.078565         -274.25171
      6       1.00000         -10.078376         -274.24656
      7       1.00000         -10.078002         -274.23640
      8       1.00000         -10.077922         -274.23422
      9       1.00000          -1.173276          -31.92646
     10       1.00000          -1.171056          -31.86606
     11       1.00000          -0.994575          -27.06377
     12       1.00000          -0.918937          -25.00555
     13       1.00000          -0.855716          -23.28521
     14       1.00000          -0.797561          -21.70275
     15       1.00000          -0.752903          -20.48752
     16       1.00000          -0.688783          -18.74274
     17       1.00000          -0.657562          -17.89317
     18       1.00000          -0.632703          -17.21673
     19       1.00000          -0.617929          -16.81470
     20       1.00000          -0.599578          -16.31534
     21       1.00000          -0.575055          -15.64803
     22       1.00000          -0.574169          -15.62393
     23       1.00000          -0.568710          -15.47538
     24       1.00000          -0.546071          -14.85936
     25       1.00000          -0.450612          -12.26177
     26       1.00000          -0.437692          -11.91020
     27       1.00000          -0.435456          -11.84935
     28       1.00000          -0.434406          -11.82080
     29       0.00000          -0.345441           -9.39993
     30       0.00000          -0.249661           -6.79363
     31       0.00000          -0.182450           -4.96473
     32       0.00000          -0.085219           -2.31893
     33       0.00000          -0.081370           -2.21420
     34       0.00000          -0.060558           -1.64787
     35       0.00000          -0.025466           -0.69297
     36       0.00000          -0.016702           -0.45448
     37       0.00000          -0.011432           -0.31109
     38       0.00000          -0.008572           -0.23327
     39       0.00000           0.005038            0.13709
     40       0.00000           0.036308            0.98800
     41       0.00000           0.044191            1.20251
     42       0.00000           0.070434            1.91661
     43       0.00000           0.082724            2.25104
     44       0.00000           0.084658            2.30365
     45       0.00000           0.086649            2.35784
     46       0.00000           0.087358            2.37714
     47       0.00000           0.097988            2.66638
     48       0.00000           0.109014            2.96643
     49       0.00000           0.126145            3.43257
     50       0.00000           0.140127            3.81306
     51       0.00000           0.147504            4.01378
     52       0.00000           0.152906            4.16079
     53       0.00000           0.170624            4.64293
     54       0.00000           0.173699            4.72659
     55       0.00000           0.176496            4.80271
     56       0.00000           0.180864            4.92156
     57       0.00000           0.202927            5.52194
     58       0.00000           0.206295            5.61357

  Spin-down eigenvalues:

  State    Occupation    Eigenvalue [Ha]    Eigenvalue [eV]
      1       1.00000         -18.824364         -512.23702
      2       1.00000         -18.824364         -512.23700
      3       1.00000         -10.059184         -273.72431
      4       1.00000         -10.059135         -273.72300
      5       1.00000         -10.058567         -273.70752
      6       1.00000         -10.058434         -273.70392
      7       1.00000         -10.058162         -273.69652
      8       1.00000         -10.058078         -273.69423
      9       1.00000          -1.108244          -30.15684
     10       1.00000          -1.105956          -30.09460
     11       1.00000          -0.927711          -25.24431
     12       1.00000          -0.843687          -22.95790
     13       1.00000          -0.786360          -21.39794
     14       1.00000          -0.718412          -19.54898
     15       1.00000          -0.671535          -18.27341
     16       1.00000          -0.620576          -16.88672
     17       1.00000          -0.576538          -15.68841
     18       1.00000          -0.542283          -14.75627
     19       1.00000          -0.517736          -14.08830
     20       1.00000          -0.511661          -13.92300
     21       1.00000          -0.510966          -13.90409
     22       1.00000          -0.496159          -13.50118
     23       1.00000          -0.488378          -13.28944
     24       1.00000          -0.460498          -12.53078
     25       1.00000          -0.390069          -10.61432
     26       1.00000          -0.375188          -10.20938
     27       1.00000          -0.371534          -10.10995
     28       1.00000          -0.367962          -10.01275
     29       0.00000          -0.283941           -7.72643
     30       0.00000          -0.184589           -5.02293
     31       0.00000          -0.121869           -3.31621
     32       0.00000          -0.027797           -0.75639
     33       0.00000          -0.016262           -0.44252
     34       0.00000          -0.011672           -0.31760
     35       0.00000           0.009329            0.25387
     36       0.00000           0.024861            0.67650
     37       0.00000           0.031344            0.85290
     38       0.00000           0.057255            1.55798
     39       0.00000           0.064721            1.76115
     40       0.00000           0.065556            1.78386
     41       0.00000           0.092450            2.51568
     42       0.00000           0.097899            2.66397
     43       0.00000           0.112367            3.05767
     44       0.00000           0.117436            3.19560
     45       0.00000           0.134570            3.66184
     46       0.00000           0.140275            3.81707
     47       0.00000           0.149062            4.05618
     48       0.00000           0.151365            4.11886
     49       0.00000           0.155950            4.24363
     50       0.00000           0.186225            5.06744
     51       0.00000           0.188520            5.12990
     52       0.00000           0.190564            5.18552
     53       0.00000           0.191137            5.20111
     54       0.00000           0.203027            5.52463
     55       0.00000           0.207371            5.64284
     56       0.00000           0.219972            5.98573
     57       0.00000           0.238385            6.48680
     58       0.00000           0.253542            6.89922

  Current spin moment of the entire structure :
  | N = N_up - N_down :    0.00
  | S                 :    0.00
  | J                 :    1.00

  Highest occupied state (VBM) at    -10.01275082 eV
  | Occupation number:      1.00000000
  | Spin channel:        2

  Lowest unoccupied state (CBM) at    -9.39993165 eV
  | Occupation number:      0.00000000
  | Spin channel:        1

  Overall HOMO-LUMO gap:      0.61281917 eV.
  Calculating total energy contributions from superposition of free atom densities.

  Total energy components:
  | Sum of eigenvalues            :        -222.44833318 Ha       -6053.12712549 eV
  | XC energy correction          :         -47.36425138 Ha       -1288.84685590 eV
  | XC potential correction       :          62.39140093 Ha        1697.75640024 eV
  | Free-atom electrostatic energy:        -171.05839834 Ha       -4654.73584929 eV
  | Hartree energy correction     :          -0.00000000 Ha          -0.00000000 eV
  | Ionic    embedding energy     :           0.00000000 Ha           0.00000000 eV
  | Density  embedding energy     :          -0.00000000 Ha          -0.00000000 eV
  | Nonlocal embedding energy     :           0.00000000 Ha           0.00000000 eV
  | External embedding energy     :          -0.00000000 Ha          -0.00000000 eV
  | Entropy correction            :          -0.00000000 Ha          -0.00000000 eV
  | ---------------------------
  | Total energy                  :        -378.47958197 Ha      -10298.95343045 eV
  | Total energy, T -> 0          :        -378.47958197 Ha      -10298.95343045 eV  <-- do not rely on this value for anything but (periodic) metals
  | Electronic free energy        :        -378.47958197 Ha      -10298.95343045 eV

  Total energy including external embedding contributions:
  | Total energy + embedding      :        -378.47958197 Ha      -10298.95343045 eV
  | Total energy + embedding, T->0:        -378.47958197 Ha      -10298.95343045 eV  <-- do not rely on this value for anything but (periodic) metals
  | Elec. free energy + embedding :        -378.47958197 Ha      -10298.95343045 eV

  Derived energy quantities:
  | Kinetic energy                :         375.12082063 Ha       10207.55688403 eV
  | Electrostatic energy          :        -706.23615122 Ha      -19217.66345857 eV
  | Energy correction for multipole
  | error in Hartree potential    :           0.00000000 Ha           0.00000000 eV
  | Sum of eigenvalues per atom                           :        -504.42726046 eV
  | Total energy (T->0) per atom                          :        -858.24611920 eV  <-- do not rely on this value for anything but (periodic) metals
  | Electronic free energy per atom                       :        -858.24611920 eV
  Initialize hartree_potential_storage
  Max. number of atoms included in rho_multipole:           12

  End scf initialization - timings             :  max(cpu_time)    wall_clock(cpu1)
  | Time for scf. initialization               :       20.471 s          20.480 s
  | Boundary condition initialization          :        0.000 s           0.000 s
  | Integration                                :       18.973 s          18.981 s
  | Solution of K.-S. eqns.                    :        0.282 s           0.282 s
  | Grid partitioning                          :        0.332 s           0.333 s
  | Preloading free-atom quantities on grid    :        0.009 s           0.009 s
  | Free-atom superposition energy             :        0.223 s           0.222 s
  | Total energy evaluation                    :        0.000 s           0.000 s

  Partial memory accounting:
  | Current value for overall tracked memory usage on task 0  :           3.118 MB
  | Peak value for overall tracked memory usage on task 0     :           5.947 MB after allocating wave
  | Largest tracked array allocation on task 0 so far         :           1.134 MB  when allocating H_times_psi
  Note:  These values currently only include a subset of arrays which are explicitly tracked.
  The "true" memory usage will be greater.
------------------------------------------------------------

------------------------------------------------------------
          Begin self-consistency iteration #    1

  Date     :  20190509, Time     :  131947.480
------------------------------------------------------------
  Evaluating new KS density.
  Integration grid: deviation in total charge (<rho> - N_e) =  -2.842171E-14
  | <rho_up-rho_dn> = N_up-N_dn =     -0.0000; <|rho_up-rho_dn|> =      0.6376
  Pulay mixing of updated and previous charge densities.

  Evaluating partitioned Hartree potential by multipole expansion.
  | Analytical far-field extrapolation by fixed multipoles:
  | Hartree multipole sum: apparent total charge =   0.364199E-05
  Summing up the Hartree potential.
  Time summed over all CPUs for potential: real work        0.787 s, elapsed        0.787 s
  | RMS charge density error from multipole expansion :   0.450438E-02

  Integrating Hamiltonian matrix: batch-based integration.
  Time summed over all CPUs for integration: real work       12.434 s, elapsed       12.434 s

  Updating Kohn-Sham eigenvalues, eigenvectors, occupation numbers, and Fermi level.
  Solving generalized eigenproblem
  Updating Kohn-Sham eigenvalues and eigenfunctions.
  Solving real generalised eigenvalue problem by standard LAPACK (fast)
  Updating Kohn-Sham eigenvalues and eigenfunctions.
  Solving real generalised eigenvalue problem by standard LAPACK (fast)

  Obtaining occupation numbers and chemical potential using ELSI.
  | Chemical potential (Fermi level):    -7.04451881eV
  Writing Kohn-Sham eigenvalues.

  Spin-up eigenvalues:

  State    Occupation    Eigenvalue [Ha]    Eigenvalue [eV]
      1       1.00000         -18.674631         -508.16255
      2       1.00000         -18.674630         -508.16254
      3       1.00000          -9.978891         -271.53944
      4       1.00000          -9.978890         -271.53942
      5       1.00000          -9.921976         -269.99071
      6       1.00000          -9.921972         -269.99059
      7       1.00000          -9.921560         -269.97938
      8       1.00000          -9.921558         -269.97934
      9       1.00000          -1.066290          -29.01523
     10       1.00000          -1.063492          -28.93910
     11       1.00000          -0.890223          -24.22421
     12       1.00000          -0.812926          -22.12084
     13       1.00000          -0.756256          -20.57876
     14       1.00000          -0.700263          -19.05512
     15       1.00000          -0.651511          -17.72852
     16       1.00000          -0.581960          -15.83593
     17       1.00000          -0.552712          -15.04006
     18       1.00000          -0.538139          -14.64350
     19       1.00000          -0.516065          -14.04285
     20       1.00000          -0.494950          -13.46828
     21       1.00000          -0.491691          -13.37960
     22       1.00000          -0.470824          -12.81176
     23       1.00000          -0.463716          -12.61835
     24       1.00000          -0.461769          -12.56538
     25       1.00000          -0.356667           -9.70541
     26       1.00000          -0.350990           -9.55093
     27       1.00000          -0.325456           -8.85610
     28       1.00000          -0.323434           -8.80110
     29       0.00000          -0.255415           -6.95020
     30       0.00000          -0.164570           -4.47817
     31       0.00000          -0.103423           -2.81429
     32       0.00000          -0.044295           -1.20532
     33       0.00000          -0.026716           -0.72699
     34       0.00000          -0.001648           -0.04485
     35       0.00000           0.003172            0.08631
     36       0.00000           0.015979            0.43481
     37       0.00000           0.020569            0.55972
     38       0.00000           0.053707            1.46145
     39       0.00000           0.063569            1.72979
     40       0.00000           0.068751            1.87080
     41       0.00000           0.079598            2.16597
     42       0.00000           0.108641            2.95627
     43       0.00000           0.110587            3.00924
     44       0.00000           0.116403            3.16749
     45       0.00000           0.127255            3.46280
     46       0.00000           0.150313            4.09022
     47       0.00000           0.151664            4.12700
     48       0.00000           0.156100            4.24771
     49       0.00000           0.168452            4.58380
     50       0.00000           0.183924            5.00484
     51       0.00000           0.184084            5.00917
     52       0.00000           0.194847            5.30205
     53       0.00000           0.197505            5.37438
     54       0.00000           0.201700            5.48854
     55       0.00000           0.215373            5.86060
     56       0.00000           0.220863            6.01000
     57       0.00000           0.247254            6.72812
     58       0.00000           0.264075            7.18585

  Spin-down eigenvalues:

  State    Occupation    Eigenvalue [Ha]    Eigenvalue [eV]
      1       1.00000         -18.654922         -507.62627
      2       1.00000         -18.654922         -507.62626
      3       1.00000          -9.965801         -271.18324
      4       1.00000          -9.965801         -271.18324
      5       1.00000          -9.908398         -269.62123
      6       1.00000          -9.908396         -269.62118
      7       1.00000          -9.907988         -269.61007
      8       1.00000          -9.907986         -269.61003
      9       1.00000          -1.021425          -27.79438
     10       1.00000          -1.018544          -27.71598
     11       1.00000          -0.844912          -22.99123
     12       1.00000          -0.761409          -20.71899
     13       1.00000          -0.708954          -19.29163
     14       1.00000          -0.645855          -17.57460
     15       1.00000          -0.593595          -16.15254
     16       1.00000          -0.535771          -14.57908
     17       1.00000          -0.498894          -13.57559
     18       1.00000          -0.463426          -12.61045
     19       1.00000          -0.455714          -12.40060
     20       1.00000          -0.445253          -12.11596
     21       1.00000          -0.444246          -12.08854
     22       1.00000          -0.422098          -11.48588
     23       1.00000          -0.412445          -11.22319
     24       1.00000          -0.396875          -10.79951
     25       1.00000          -0.315436           -8.58344
     26       1.00000          -0.308759           -8.40177
     27       1.00000          -0.281632           -7.66360
     28       1.00000          -0.280216           -7.62508
     29       0.00000          -0.213149           -5.80007
     30       0.00000          -0.120697           -3.28433
     31       0.00000          -0.061938           -1.68541
     32       0.00000          -0.014239           -0.38747
     33       0.00000           0.000418            0.01138
     34       0.00000           0.023981            0.65256
     35       0.00000           0.041181            1.12058
     36       0.00000           0.043345            1.17948
     37       0.00000           0.048952            1.33205
     38       0.00000           0.083927            2.28376
     39       0.00000           0.094210            2.56358
     40       0.00000           0.097386            2.65001
     41       0.00000           0.118312            3.21944
     42       0.00000           0.128557            3.49822
     43       0.00000           0.135497            3.68705
     44       0.00000           0.143475            3.90415
     45       0.00000           0.152476            4.14909
     46       0.00000           0.174928            4.76002
     47       0.00000           0.182523            4.96671
     48       0.00000           0.194562            5.29430
     49       0.00000           0.200275            5.44977
     50       0.00000           0.206653            5.62332
     51       0.00000           0.213924            5.82116
     52       0.00000           0.221030            6.01454
     53       0.00000           0.221282            6.02140
     54       0.00000           0.223194            6.07341
     55       0.00000           0.240366            6.54070
     56       0.00000           0.244923            6.66469
     57       0.00000           0.277206            7.54316
     58       0.00000           0.296926            8.07977

  Current spin moment of the entire structure :
  | N = N_up - N_down :    0.00
  | S                 :    0.00
  | J                 :    1.00

  Highest occupied state (VBM) at     -7.62507856 eV
  | Occupation number:      1.00000000
  | Spin channel:        2

  Lowest unoccupied state (CBM) at    -6.95020003 eV
  | Occupation number:      0.00000000
  | Spin channel:        1

  Overall HOMO-LUMO gap:      0.67487853 eV.

  Total energy components:
  | Sum of eigenvalues            :        -216.59311553 Ha       -5893.79854679 eV
  | XC energy correction          :         -47.70112827 Ha       -1298.01374238 eV
  | XC potential correction       :          62.82501254 Ha        1709.55557258 eV
  | Free-atom electrostatic energy:        -171.05839834 Ha       -4654.73584929 eV
  | Hartree energy correction     :          -5.84732824 Ha        -159.11389700 eV
  | Ionic    embedding energy     :           0.00000000 Ha           0.00000000 eV
  | Density  embedding energy     :          -0.00000001 Ha          -0.00000017 eV
  | Nonlocal embedding energy     :           0.00000000 Ha           0.00000000 eV
  | External embedding energy     :          -0.00000001 Ha          -0.00000017 eV
  | Entropy correction            :          -0.00000000 Ha          -0.00000000 eV
  | ---------------------------
  | Total energy                  :        -378.37495783 Ha      -10296.10646272 eV
  | Total energy, T -> 0          :        -378.37495783 Ha      -10296.10646272 eV  <-- do not rely on this value for anything but (periodic) metals
  | Electronic free energy        :        -378.37495783 Ha      -10296.10646272 eV

  Total energy including external embedding contributions:
  | Total energy + embedding      :        -378.37495784 Ha      -10296.10646289 eV
  | Total energy + embedding, T->0:        -378.37495784 Ha      -10296.10646289 eV  <-- do not rely on this value for anything but (periodic) metals
  | Elec. free energy + embedding :        -378.37495784 Ha      -10296.10646289 eV

  Derived energy quantities:
  | Kinetic energy                :         377.44286666 Ha       10270.74297150 eV
  | Electrostatic energy          :        -708.11669623 Ha      -19268.83569201 eV
  | Energy correction for multipole
  | error in Hartree potential    :          -0.01288597 Ha          -0.35064513 eV
  | Sum of eigenvalues per atom                           :        -491.14987890 eV
  | Total energy (T->0) per atom                          :        -858.00887189 eV  <-- do not rely on this value for anything but (periodic) metals
  | Electronic free energy per atom                       :        -858.00887189 eV

  Self-consistency convergence accuracy:
  | Change of charge/spin density :  0.5940E+00  0.7266E+00
  | Change of sum of eigenvalues  :  0.1593E+03 eV
  | Change of total energy        :  0.2847E+01 eV

  End self-consistency iteration #     1       :  max(cpu_time)    wall_clock(cpu1)
  | Time for this iteration                    :       15.374 s          15.378 s
  | Charge density update                      :        2.010 s           2.010 s
  | Density mixing                             :        0.004 s           0.004 s
  | Hartree multipole update                   :        0.015 s           0.015 s
  | Hartree multipole summation                :        0.788 s           0.789 s
  | Integration                                :       12.431 s          12.434 s
  | Solution of K.-S. eqns.                    :        0.126 s           0.125 s
  | Total energy evaluation                    :        0.000 s           0.000 s

  Partial memory accounting:
  | Current value for overall tracked memory usage on task 0  :           3.118 MB
  | Peak value for overall tracked memory usage on task 0     :           7.054 MB after allocating wave
  | Largest tracked array allocation on task 0 so far         :           1.134 MB  when allocating H_times_psi
  Note:  These values currently only include a subset of arrays which are explicitly tracked.
  The "true" memory usage will be greater.
------------------------------------------------------------

------------------------------------------------------------
          Begin self-consistency iteration #    2

  Date     :  20190509, Time     :  132002.858
------------------------------------------------------------
  Evaluating new KS density.
  Integration grid: deviation in total charge (<rho> - N_e) =  -4.973799E-14
  | <rho_up-rho_dn> = N_up-N_dn =     -0.0000; <|rho_up-rho_dn|> =      0.4739
  Pulay mixing of updated and previous charge densities.

  Evaluating partitioned Hartree potential by multipole expansion.
  | Analytical far-field extrapolation by fixed multipoles:
  | Hartree multipole sum: apparent total charge =   0.214505E-05
  Summing up the Hartree potential.
  Time summed over all CPUs for potential: real work        0.687 s, elapsed        0.687 s
  | RMS charge density error from multipole expansion :   0.102007E-01

  Integrating Hamiltonian matrix: batch-based integration.
  Time summed over all CPUs for integration: real work       11.265 s, elapsed       11.265 s

  Updating Kohn-Sham eigenvalues, eigenvectors, occupation numbers, and Fermi level.
  Solving generalized eigenproblem
  Updating Kohn-Sham eigenvalues and eigenfunctions.
  Solving real generalised eigenvalue problem by standard LAPACK (fast)
  Updating Kohn-Sham eigenvalues and eigenfunctions.
  Solving real generalised eigenvalue problem by standard LAPACK (fast)

  Obtaining occupation numbers and chemical potential using ELSI.
  | Chemical potential (Fermi level):    -5.31404103eV
  Current spin moment of the entire structure :
  | N = N_up - N_down :    0.00
  | S                 :    0.00
  | J                 :    1.00

  Highest occupied state (VBM) at     -6.15732857 eV
  | Occupation number:      1.00000000
  | Spin channel:        2

  Lowest unoccupied state (CBM) at    -5.04220656 eV
  | Occupation number:      0.00000000
  | Spin channel:        1

  Overall HOMO-LUMO gap:      1.11512201 eV.

  Checking to see if s.c.f. parameters should be adjusted.

  Total energy components:
  | Sum of eigenvalues            :        -212.14884364 Ha       -5772.86375539 eV
  | XC energy correction          :         -47.97706748 Ha       -1305.52243039 eV
  | XC potential correction       :          63.17915054 Ha        1719.19215780 eV
  | Free-atom electrostatic energy:        -171.05839834 Ha       -4654.73584929 eV
  | Hartree energy correction     :         -10.42118376 Ha        -283.57483812 eV
  | Ionic    embedding energy     :           0.00000000 Ha           0.00000000 eV
  | Density  embedding energy     :          -0.00000001 Ha          -0.00000038 eV
  | Nonlocal embedding energy     :           0.00000000 Ha           0.00000000 eV
  | External embedding energy     :          -0.00000001 Ha          -0.00000038 eV
  | Entropy correction            :          -0.00000000 Ha          -0.00000000 eV
  | ---------------------------
  | Total energy                  :        -378.42634266 Ha      -10297.50471502 eV
  | Total energy, T -> 0          :        -378.42634266 Ha      -10297.50471502 eV  <-- do not rely on this value for anything but (periodic) metals
  | Electronic free energy        :        -378.42634266 Ha      -10297.50471502 eV

  Total energy including external embedding contributions:
  | Total energy + embedding      :        -378.42634267 Ha      -10297.50471539 eV
  | Total energy + embedding, T->0:        -378.42634267 Ha      -10297.50471539 eV  <-- do not rely on this value for anything but (periodic) metals
  | Elec. free energy + embedding :        -378.42634267 Ha      -10297.50471539 eV

  Derived energy quantities:
  | Kinetic energy                :         377.86762295 Ha       10282.30117822 eV
  | Electrostatic energy          :        -708.31689814 Ha      -19274.28346322 eV
  | Energy correction for multipole
  | error in Hartree potential    :          -0.02692555 Ha          -0.73268158 eV
  | Sum of eigenvalues per atom                           :        -481.07197962 eV
  | Total energy (T->0) per atom                          :        -858.12539292 eV  <-- do not rely on this value for anything but (periodic) metals
  | Electronic free energy per atom                       :        -858.12539292 eV

  Self-consistency convergence accuracy:
  | Change of charge/spin density :  0.3317E+00  0.5165E+00
  | Change of sum of eigenvalues  :  0.1209E+03 eV
  | Change of total energy        : -0.1398E+01 eV

  End self-consistency iteration #     2       :  max(cpu_time)    wall_clock(cpu1)
  | Time for this iteration                    :       13.724 s          13.724 s
  | Charge density update                      :        1.631 s           1.631 s
  | Density mixing                             :        0.005 s           0.006 s
  | Hartree multipole update                   :        0.012 s           0.012 s
  | Hartree multipole summation                :        0.687 s           0.687 s
  | Integration                                :       11.265 s          11.265 s
  | Solution of K.-S. eqns.                    :        0.123 s           0.122 s
  | Total energy evaluation                    :        0.000 s           0.000 s

  Partial memory accounting:
  | Current value for overall tracked memory usage on task 0  :           3.119 MB
  | Peak value for overall tracked memory usage on task 0     :           7.055 MB after allocating wave
  | Largest tracked array allocation on task 0 so far         :           1.134 MB  when allocating H_times_psi
  Note:  These values currently only include a subset of arrays which are explicitly tracked.
  The "true" memory usage will be greater.
------------------------------------------------------------

------------------------------------------------------------
          Begin self-consistency iteration #    3

  Date     :  20190509, Time     :  132016.582
------------------------------------------------------------
  Evaluating new KS density.
  Integration grid: deviation in total charge (<rho> - N_e) =   7.105427E-14
  | <rho_up-rho_dn> = N_up-N_dn =     -0.0000; <|rho_up-rho_dn|> =      0.2286
  Pulay mixing of updated and previous charge densities.

  Evaluating partitioned Hartree potential by multipole expansion.
  | Analytical far-field extrapolation by fixed multipoles:
  | Hartree multipole sum: apparent total charge =   0.233044E-05
  Summing up the Hartree potential.
  Time summed over all CPUs for potential: real work        0.688 s, elapsed        0.688 s
  | RMS charge density error from multipole expansion :   0.124981E-01

  Integrating Hamiltonian matrix: batch-based integration.
  Time summed over all CPUs for integration: real work       11.300 s, elapsed       11.300 s

  Updating Kohn-Sham eigenvalues, eigenvectors, occupation numbers, and Fermi level.
  Solving generalized eigenproblem
  Updating Kohn-Sham eigenvalues and eigenfunctions.
  Solving real generalised eigenvalue problem by standard LAPACK (fast)
  Updating Kohn-Sham eigenvalues and eigenfunctions.
  Solving real generalised eigenvalue problem by standard LAPACK (fast)

  Obtaining occupation numbers and chemical potential using ELSI.
  | Chemical potential (Fermi level):    -5.37843559eV
  Current spin moment of the entire structure :
  | N = N_up - N_down :    0.00
  | S                 :    0.00
  | J                 :    1.00

  Highest occupied state (VBM) at     -6.11718212 eV
  | Occupation number:      1.00000000
  | Spin channel:        2

  Lowest unoccupied state (CBM) at    -4.96502158 eV
  | Occupation number:      0.00000000
  | Spin channel:        1

  Overall HOMO-LUMO gap:      1.15216054 eV.

  Total energy components:
  | Sum of eigenvalues            :        -212.39980743 Ha       -5779.69282781 eV
  | XC energy correction          :         -47.97077848 Ha       -1305.35129797 eV
  | XC potential correction       :          63.16886134 Ha        1718.91217427 eV
  | Free-atom electrostatic energy:        -171.05839834 Ha       -4654.73584929 eV
  | Hartree energy correction     :         -10.17831276 Ha        -276.96598205 eV
  | Ionic    embedding energy     :           0.00000000 Ha           0.00000000 eV
  | Density  embedding energy     :          -0.00000002 Ha          -0.00000044 eV
  | Nonlocal embedding energy     :           0.00000000 Ha           0.00000000 eV
  | External embedding energy     :          -0.00000002 Ha          -0.00000044 eV
  | Entropy correction            :          -0.00000000 Ha          -0.00000000 eV
  | ---------------------------
  | Total energy                  :        -378.43843566 Ha      -10297.83378241 eV
  | Total energy, T -> 0          :        -378.43843566 Ha      -10297.83378241 eV  <-- do not rely on this value for anything but (periodic) metals
  | Electronic free energy        :        -378.43843566 Ha      -10297.83378241 eV

  Total energy including external embedding contributions:
  | Total energy + embedding      :        -378.43843568 Ha      -10297.83378285 eV
  | Total energy + embedding, T->0:        -378.43843568 Ha      -10297.83378285 eV  <-- do not rely on this value for anything but (periodic) metals
  | Elec. free energy + embedding :        -378.43843568 Ha      -10297.83378285 eV

  Derived energy quantities:
  | Kinetic energy                :         376.97744034 Ha       10258.07807693 eV
  | Electrostatic energy          :        -707.44509754 Ha      -19250.56056181 eV
  | Energy correction for multipole
  | error in Hartree potential    :          -0.03128039 Ha          -0.85118274 eV
  | Sum of eigenvalues per atom                           :        -481.64106898 eV
  | Total energy (T->0) per atom                          :        -858.15281520 eV  <-- do not rely on this value for anything but (periodic) metals
  | Electronic free energy per atom                       :        -858.15281520 eV

  Self-consistency convergence accuracy:
  | Change of charge/spin density :  0.1148E+00  0.2007E+00
  | Change of sum of eigenvalues  : -0.6829E+01 eV
  | Change of total energy        : -0.3291E+00 eV

  End self-consistency iteration #     3       :  max(cpu_time)    wall_clock(cpu1)
  | Time for this iteration                    :       13.798 s          13.798 s
  | Charge density update                      :        1.667 s           1.667 s
  | Density mixing                             :        0.007 s           0.008 s
  | Hartree multipole update                   :        0.012 s           0.012 s
  | Hartree multipole summation                :        0.688 s           0.688 s
  | Integration                                :       11.300 s          11.300 s
  | Solution of K.-S. eqns.                    :        0.123 s           0.123 s
  | Total energy evaluation                    :        0.000 s           0.000 s

  Partial memory accounting:
  | Current value for overall tracked memory usage on task 0  :           3.119 MB
  | Peak value for overall tracked memory usage on task 0     :           7.055 MB after allocating wave
  | Largest tracked array allocation on task 0 so far         :           1.134 MB  when allocating H_times_psi
[...]
  | Ionic    embedding energy     :           0.00000000 Ha           0.00000000 eV
  | Density  embedding energy     :          -0.00000002 Ha          -0.00000042 eV
  | Nonlocal embedding energy     :           0.00000000 Ha           0.00000000 eV
  | External embedding energy     :          -0.00000002 Ha          -0.00000042 eV
  | Entropy correction            :          -0.00000000 Ha          -0.00000000 eV
  | ---------------------------
  | Total energy                  :        -378.43770714 Ha      -10297.81395841 eV
  | Total energy, T -> 0          :        -378.43770714 Ha      -10297.81395841 eV  <-- do not rely on this value for anything but (periodic) metals
  | Electronic free energy        :        -378.43770714 Ha      -10297.81395841 eV

  Total energy including external embedding contributions:
  | Total energy + embedding      :        -378.43770716 Ha      -10297.81395883 eV
  | Total energy + embedding, T->0:        -378.43770716 Ha      -10297.81395883 eV  <-- do not rely on this value for anything but (periodic) metals
  | Elec. free energy + embedding :        -378.43770716 Ha      -10297.81395883 eV

  Derived energy quantities:
  | Kinetic energy                :         376.43985357 Ha       10243.44959650 eV
  | Electrostatic energy          :        -706.98562813 Ha      -19238.05776297 eV
  | Energy correction for multipole
  | error in Hartree potential    :          -0.03085721 Ha          -0.83966747 eV
  | Sum of eigenvalues per atom                           :        -483.22440117 eV
  | Total energy (T->0) per atom                          :        -858.15116320 eV  <-- do not rely on this value for anything but (periodic) metals
  | Electronic free energy per atom                       :        -858.15116320 eV

  Self-consistency convergence accuracy:
  | Change of charge/spin density :  0.8516E-06  0.1467E-05
  | Change of sum of eigenvalues  :  0.2120E-03 eV
  | Change of total energy        :  0.2249E-07 eV

  Writing Kohn-Sham eigenvalues.

  Spin-up eigenvalues:

  State    Occupation    Eigenvalue [Ha]    Eigenvalue [eV]
      1       1.00000         -18.626000         -506.83925
      2       1.00000         -18.626000         -506.83925
      3       1.00000          -9.883397         -268.94092
      4       1.00000          -9.883397         -268.94091
      5       1.00000          -9.835957         -267.65001
      6       1.00000          -9.835955         -267.64995
      7       1.00000          -9.835546         -267.63883
      8       1.00000          -9.835545         -267.63879
      9       1.00000          -0.983433          -26.76057
     10       1.00000          -0.980550          -26.68213
     11       1.00000          -0.804910          -21.90271
     12       1.00000          -0.722706          -19.66582
     13       1.00000          -0.668240          -18.18375
     14       1.00000          -0.608683          -16.56311
     15       1.00000          -0.559167          -15.21570
     16       1.00000          -0.488062          -13.28084
     17       1.00000          -0.463878          -12.62277
     18       1.00000          -0.442428          -12.03908
     19       1.00000          -0.433513          -11.79649
     20       1.00000          -0.419171          -11.40623
     21       1.00000          -0.406276          -11.05534
     22       1.00000          -0.399417          -10.86869
     23       1.00000          -0.372901          -10.14715
     24       1.00000          -0.372260          -10.12971
     25       1.00000          -0.293521           -7.98712
     26       1.00000          -0.285401           -7.76615
     27       1.00000          -0.243006           -6.61254
     28       1.00000          -0.239701           -6.52261
     29       0.00000          -0.190451           -5.18242
     30       0.00000          -0.098653           -2.68449
     31       0.00000          -0.038737           -1.05410
     32       0.00000          -0.009521           -0.25908
     33       0.00000           0.005827            0.15856
     34       0.00000           0.031577            0.85925
     35       0.00000           0.050324            1.36940
     36       0.00000           0.052323            1.42378
     37       0.00000           0.062595            1.70330
     38       0.00000           0.090823            2.47142
     39       0.00000           0.104873            2.85375
     40       0.00000           0.108248            2.94558
     41       0.00000           0.126098            3.43131
     42       0.00000           0.132611            3.60853
     43       0.00000           0.150884            4.10578
     44       0.00000           0.153936            4.18880
     45       0.00000           0.156193            4.25022
     46       0.00000           0.186979            5.08797
     47       0.00000           0.195244            5.31287
     48       0.00000           0.205640            5.59575
     49       0.00000           0.215669            5.86866
     50       0.00000           0.218518            5.94618
     51       0.00000           0.223622            6.08505
     52       0.00000           0.231395            6.29658
     53       0.00000           0.231783            6.30713
     54       0.00000           0.239774            6.52457
     55       0.00000           0.250595            6.81904
     56       0.00000           0.258200            7.02597
     57       0.00000           0.303934            8.27045
     58       0.00000           0.316724            8.61850

  Spin-down eigenvalues:

  State    Occupation    Eigenvalue [Ha]    Eigenvalue [eV]
      1       1.00000         -18.626000         -506.83925
      2       1.00000         -18.626000         -506.83925
      3       1.00000          -9.883397         -268.94092
      4       1.00000          -9.883397         -268.94091
      5       1.00000          -9.835957         -267.65001
      6       1.00000          -9.835955         -267.64995
      7       1.00000          -9.835546         -267.63883
      8       1.00000          -9.835545         -267.63878
      9       1.00000          -0.983433          -26.76057
     10       1.00000          -0.980550          -26.68213
     11       1.00000          -0.804910          -21.90271
     12       1.00000          -0.722706          -19.66582
     13       1.00000          -0.668240          -18.18375
     14       1.00000          -0.608683          -16.56311
     15       1.00000          -0.559167          -15.21570
     16       1.00000          -0.488062          -13.28084
     17       1.00000          -0.463878          -12.62277
     18       1.00000          -0.442428          -12.03908
     19       1.00000          -0.433513          -11.79649
     20       1.00000          -0.419171          -11.40623
     21       1.00000          -0.406276          -11.05534
     22       1.00000          -0.399417          -10.86869
     23       1.00000          -0.372901          -10.14715
     24       1.00000          -0.372260          -10.12971
     25       1.00000          -0.293521           -7.98712
     26       1.00000          -0.285401           -7.76615
     27       1.00000          -0.243006           -6.61254
     28       1.00000          -0.239701           -6.52261
     29       0.00000          -0.190451           -5.18242
     30       0.00000          -0.098653           -2.68449
     31       0.00000          -0.038737           -1.05410
     32       0.00000          -0.009521           -0.25908
     33       0.00000           0.005827            0.15856
     34       0.00000           0.031577            0.85925
     35       0.00000           0.050324            1.36940
     36       0.00000           0.052323            1.42378
     37       0.00000           0.062595            1.70330
     38       0.00000           0.090823            2.47142
     39       0.00000           0.104873            2.85374
     40       0.00000           0.108248            2.94558
     41       0.00000           0.126098            3.43131
     42       0.00000           0.132611            3.60853
     43       0.00000           0.150884            4.10577
     44       0.00000           0.153936            4.18880
     45       0.00000           0.156193            4.25022
     46       0.00000           0.186979            5.08797
     47       0.00000           0.195244            5.31287
     48       0.00000           0.205640            5.59575
     49       0.00000           0.215669            5.86866
     50       0.00000           0.218518            5.94618
     51       0.00000           0.223622            6.08505
     52       0.00000           0.231395            6.29657
     53       0.00000           0.231783            6.30713
     54       0.00000           0.239774            6.52457
     55       0.00000           0.250595            6.81904
     56       0.00000           0.258200            7.02597
     57       0.00000           0.303934            8.27045
     58       0.00000           0.316724            8.61850

  Current spin moment of the entire structure :
  | N = N_up - N_down :    0.00
  | S                 :    0.00
  | J                 :    1.00

  Highest occupied state (VBM) at     -6.52260838 eV
  | Occupation number:      1.00000000
  | Spin channel:        1

  Lowest unoccupied state (CBM) at    -5.18242453 eV
  | Occupation number:      0.00000000
  | Spin channel:        2

  Overall HOMO-LUMO gap:      1.34018385 eV.

  Self-consistency cycle converged.

  End self-consistency iteration #    17       :  max(cpu_time)    wall_clock(cpu1)
  | Time for this iteration                    :       13.756 s          13.756 s
  | Charge density update                      :        1.680 s           1.680 s
  | Density mixing                             :        0.011 s           0.011 s
  | Hartree multipole update                   :        0.012 s           0.012 s
  | Hartree multipole summation                :        0.684 s           0.685 s
  | Integration                                :       11.245 s          11.245 s
  | Solution of K.-S. eqns.                    :        0.122 s           0.122 s
  | Total energy evaluation                    :        0.000 s           0.001 s

  Partial memory accounting:
  | Current value for overall tracked memory usage on task 0  :           3.120 MB
  | Peak value for overall tracked memory usage on task 0     :           7.056 MB after allocating wave
  | Largest tracked array allocation on task 0 so far         :           1.134 MB  when allocating H_times_psi
  Note:  These values currently only include a subset of arrays which are explicitly tracked.
  The "true" memory usage will be greater.
------------------------------------------------------------

  Energy and forces in a compact form:
  | Total energy uncorrected      :         -0.102978139588315E+05 eV
  | Total energy corrected        :         -0.102978139588315E+05 eV  <-- do not rely on this value for anything but (periodic) metals
  | Electronic free energy        :         -0.102978139588315E+05 eV

  ------------------------------------ 
  Start decomposition of the XC Energy 
  ------------------------------------ 
  X and C from original XC functional choice 
  Hartree-Fock Energy :          0.000000000 Ha              0.000000000 eV
  X Energy            :        -44.198875873 Ha          -1202.712605835 eV
  C Energy            :         -3.693056725 Ha           -100.493186533 eV
  Total XC Energy     :        -47.891932598 Ha          -1303.205792367 eV
  ------------------------------------ 
  LDA X and C from self-consistent density 
  X Energy LDA        :        -44.198875873 Ha          -1202.712605835 eV
  C Energy LDA        :         -3.693056725 Ha           -100.493186533 eV
  ------------------------------------ 
  End decomposition of the XC Energy 
  ------------------------------------ 

------------------------------------------------------------

  ------------------------------------------------------------
                      Starting Cube Output
  ------------------------------------------------------------

  The following cube files will be created:

  --------------------------------------
    Cube file:            1
    cube origin       4.2124      3.7000      0.0000
    cube edge 119      0.1000      0.0000      0.0000
    cube edge 123      0.0000      0.1000      0.0000
    cube edge 74      0.0000      0.0000      0.1000
    cube filename: HOMO.cube
  --------------------------------------
    Cube file:            2
    cube origin       4.2124      3.7000      0.0000
    cube edge 119      0.1000      0.0000      0.0000
    cube edge 123      0.0000      0.1000      0.0000
    cube edge 74      0.0000      0.0000      0.1000
    cube filename: LUMO.cube
  --------------------------------------
    Cube file:            3
    cube origin       4.2124      3.7000      0.0000
    cube edge 119      0.1000      0.0000      0.0000
    cube edge 123      0.0000      0.1000      0.0000
    cube edge 74      0.0000      0.0000      0.1000
    cube filename: total_density_uncharged.cube
  --------------------------------------

  * WARNING: The output  of  the cube file is in 1/Ang^3  or
  * WARNING: 1/Ang^3/2,  but  the cube voxel  definition  is
  * WARNING: in atomic units. Be careful when postprocessing
  * WARNING: Consistent units can be chosen in control.in by
  *               cube_content_unit  bohr

 
   Starting cube            1
   Cube will be divided in
     12 minicubes along the first,
     13 minicubes along the second, and
     8 minicubes along the third cube edge
   Calculating all minicubes on main processor
   Cube file 1 finished.

 
   Starting cube            2
   Cube will be divided in
     12 minicubes along the first,
     13 minicubes along the second, and
     8 minicubes along the third cube edge
   Calculating all minicubes on main processor
   Cube file 2 finished.

  Evaluating density matrix
  Evaluating density matrix
 
   Starting cube            3
   Cube will be divided in
     12 minicubes along the first,
     13 minicubes along the second, and
     8 minicubes along the third cube edge
   Calculating all minicubes on main processor
   Cube file 3 finished.

  Cube output                                             :  max(cpu_time)    wall_clock(cpu1)
  | Total time for cube output                            :         68.039              68.044
------------------------------------------------------------

------------------------------------------------------------------------------
  Final output of selected total energy values:

  The following output summarizes some interesting total energy values
  at the end of a run (AFTER all relaxation, molecular dynamics, etc.).

  | Total energy of the DFT / Hartree-Fock s.c.f. calculation      :         -10297.813958832 eV
  | Final zero-broadening corrected energy (caution - metals only) :         -10297.813958832 eV
  | For reference only, the value of 1 Hartree used in FHI-aims is :             27.211384500 eV

  Before relying on these values, please be sure to understand exactly which
  total energy value is referred to by a given number. Different objects may
  all carry the same name 'total energy'. Definitions:

  Total energy of the DFT / Hartree-Fock s.c.f. calculation:
  | Note that this energy does not include ANY quantities calculated after the
  | s.c.f. cycle, in particular not ANY RPA, MP2, etc. many-body perturbation terms.

  Final zero-broadening corrected energy:
  | For metallic systems only, a broadening of the occupation numbers at the Fermi
  | level can be extrapolated back to zero broadening by an electron-gas inspired
  | formula. For all systems that are not real metals, this value can be
  | meaningless and should be avoided.

------------------------------------------------------------------------------
  Methods described in the following list of references were used in this FHI-aims run.
  If you publish the results, please make sure to cite these reference if they apply.
  FHI-aims is an academic code, and for our developers (often, Ph.D. students
  and postdocs), scientific credit in the community is essential.
  Thank you for helping us!

  For any use of FHI-aims, please cite:

    Volker Blum, Ralf Gehrke, Felix Hanke, Paula Havu, Ville Havu,
    Xinguo Ren, Karsten Reuter, and Matthias Scheffler
    'Ab initio molecular simulations with numeric atom-centered orbitals'
    Computer Physics Communications 180, 2175-2196 (2009)
    http://dx.doi.org/10.1016/j.cpc.2009.06.022


  For pseudopotentials or QM/MM embedding infrastructure used in your run, please cite:

    D. Berger, A. J. Logsdail, H. Oberhofer, M. R. Farrow, C. R. A. Catlow, P. Sherwood,
    A. A. Sokol, V. Blum, and K. Reuter,
    'Embedded-cluster calculations in a numeric atomic orbital'
    'density-functional theory framework'
    The Journal of Chemical Physics 141, (2014).
    http://dx.doi.org/10.1063/1.4885816


  For the real-space grid partitioning and parallelization used in this calculation, please cite:

    Ville Havu, Volker Blum, Paula Havu, and Matthias Scheffler,
    'Efficient O(N) integration for all-electron electronic structure calculation'
    'using numerically tabulated basis functions'
    Journal of Computational Physics 228, 8367-8379 (2009).
    http://dx.doi.org/10.1016/j.jcp.2009.08.008

  Of course, there are many other important community references, e.g., those cited in the
  above references. Our list is limited to references that describe implementations in the
  FHI-aims code. The reason is purely practical (length of this list) - please credit others as well.

 * A warning regarding the cube file format (cube_content_unit legacy)
 * was issued above. The output is Angstrom-based but the cube voxel
 * definition is in atomic units. Please check carefully.

------------------------------------------------------------
          Leaving FHI-aims.
          Date     :  20190509, Time     :  132500.605

          Computational steps:
          | Number of self-consistency cycles          :           17
          | Number of SCF (re)initializations          :            1

          Detailed time accounting                     :  max(cpu_time)    wall_clock(cpu1)
          | Total time                                 :      333.798 s         333.825 s
          | Preparation time                           :        0.204 s           0.204 s
          | Boundary condition initalization           :        0.000 s           0.000 s
          | Grid partitioning                          :        0.332 s           0.333 s
          | Preloading free-atom quantities on grid    :        0.009 s           0.009 s
          | Free-atom superposition energy             :        0.223 s           0.222 s
          | Total time for integrations                :      220.459 s         220.476 s
          | Total time for solution of K.-S. equations :        2.522 s           2.519 s
          | Total time for density update              :       28.820 s          28.820 s
          | Total time for mixing                      :        0.182 s           0.185 s
          | Total time for Hartree multipole update    :        0.214 s           0.214 s
          | Total time for Hartree multipole sum       :       11.965 s          11.968 s
          | Total time for total energy evaluation     :        0.002 s           0.003 s
          | Total time for QM/MM embedding             :        0.000 s           0.000 s
          | Total time for cube output                 :       68.039 s          68.044 s

 This is a stub MPI_ALLREDUCE call.
 You should not be here. Check your
 setting on the use_mpi variable, or
 link against true MPI-libraries.
