------------------------------------------------------------
          Invoking FHI-aims ...
          Version 171221_1
          Compiled on 2019/05/06 at 14:26:40 on host ffph0xx.

          When using FHI-aims, please cite the following reference:

          Volker Blum, Ralf Gehrke, Felix Hanke, Paula Havu,
          Ville Havu, Xinguo Ren, Karsten Reuter, and Matthias Scheffler,
          'Ab Initio Molecular Simulations with Numeric Atom-Centered Orbitals',
          Computer Physics Communications 180, 2175-2196 (2009)

          For any questions about FHI-aims, please visit the aimsclub website
          with its forums and wiki. Contributions to both the forums and the
          wiki are warmly encouraged - they are for you, and everyone is welcome there.

------------------------------------------------------------



  Date     :  20190514, Time     :  123614.910
  Time zero on CPU 1             :   0.702000000000000E-03  s.
  Internal wall clock time zero  :           327069374.910  s.

  FHI-aims created a unique identifier for this run for later identification
  aims_uuid : ECE56753-AD83-4500-A0BF-CC3EB2C8D7D6


  Performing system and environment tests:
  *** Environment variable OMP_NUM_THREADS is not set
  *** For performance reasons you might want to set it to 1
  | Stacksize not measured: no C compiler

  Obtaining array dimensions for all initial allocations:
  
  -----------------------------------------------------------------------
  Parsing control.in (first pass over file, find array dimensions only).
  The contents of control.in will be repeated verbatim below
  unless switched off by setting 'verbatim_writeout .false.' .
  in the first line of control.in .
  -----------------------------------------------------------------------
  
  #--- method ---
  xc pw-lda
  spin none
  relativistic atomic_zora scalar
  #---
  
  #--- k-grid settings ---
  k_grid 12 12 12
  #---
  
  
  
  
  
  
  
  
  
  
  
  #-------------------------------------------------------------------------------
  #--- Species defaults for Si
  #-------------------------------------------------------------------------------
  
  ################################################################################
  #
  #  FHI-aims code project
  #  VB, Fritz-Haber Institut, 2009
  #
  #  Suggested "light" defaults for Si atom (to be pasted into control.in file)
  #  Be sure to double-check any results obtained with these settings for post-processing,
  #  e.g., with the "tight" defaults and larger basis sets.
  #
  ################################################################################
    species        Si
  #     global species definitions
      nucleus             14
      mass                28.0855
  #
      l_hartree           4
  #
      cut_pot             3.5          1.5  1.0
      basis_dep_cutoff    1e-4
  #
      radial_base         42 5.0
      radial_multiplier   1
      angular_grids       specified
        division   0.5866   50
        division   0.9616  110
        division   1.2249  194
        division   1.3795  302
  #      division   1.4810  434
  #      division   1.5529  590
  #      division   1.6284  770
  #      division   1.7077  974
  #      division   2.4068 1202
  #      outer_grid   974
        outer_grid 302
  ################################################################################
  #
  #  Definition of "minimal" basis
  #
  ################################################################################
  #     valence basis states
      valence      3  s   2.
      valence      3  p   2.
  #     ion occupancy
      ion_occ      3  s   1.
      ion_occ      3  p   1.
  ################################################################################
  #
  #  Suggested additional basis functions. For production calculations,
  #  uncomment them one after another (the most important basis functions are
  #  listed first).
  #
  #  Constructed for dimers: 1.75 A, 2.0 A, 2.25 A, 2.75 A, 3.75 A
  #
  ################################################################################
  #  "First tier" - improvements: -571.96 meV to -37.03 meV
       hydro 3 d 4.2
       hydro 2 p 1.4
  #     hydro 4 f 6.2
       ionic 3 s auto
  #  "Second tier" - improvements: -16.76 meV to -3.03 meV
  #     hydro 3 d 9
  #     hydro 5 g 9.4
  #     hydro 4 p 4
  #     hydro 1 s 0.65
  #  "Third tier" - improvements: -3.89 meV to -0.60 meV
  #     ionic 3 d auto
  #     hydro 3 s 2.6
  #     hydro 4 f 8.4
  #     hydro 3 d 3.4
  #     hydro 3 p 7.8
  #  "Fourth tier" - improvements: -0.33 meV to -0.11 meV
  #     hydro 2 p 1.6
  #     hydro 5 g 10.8
  #     hydro 5 f 11.2
  #     hydro 3 d 1
  #     hydro 4 s 4.5
  #  Further basis functions that fell out of the optimization - noise
  #  level... < -0.08 meV
  #     hydro 4 d 6.6
  #     hydro 5 g 16.4
  #     hydro 4 d 9
  
  -----------------------------------------------------------------------
  Completed first pass over input file control.in .
  -----------------------------------------------------------------------
  
  
  -----------------------------------------------------------------------
  Parsing geometry.in (first pass over file, find array dimensions only).
  The contents of geometry.in will be repeated verbatim below
  unless switched off by setting 'verbatim_writeout .false.' .
  in the first line of geometry.in .
  -----------------------------------------------------------------------
  
  lattice_vector  -2.450000   2.450000   2.450000
  lattice_vector   2.450000  -2.450000   2.450000
  lattice_vector   2.450000   2.450000  -2.450000
  atom_frac   0.000000   0.000000   0.000000 Si
  
  -----------------------------------------------------------------------
  Completed first pass over input file geometry.in .
  -----------------------------------------------------------------------
  

  Basic array size parameters:
  | Number of species                 :        1
  | Number of atoms                   :        1
  | Number of lattice vectors         :        3
  | Max. basis fn. angular momentum   :        2
  | Max. atomic/ionic basis occupied n:        3
  | Max. number of basis fn. types    :        3
  | Max. radial fns per species/type  :        5
  | Max. logarithmic grid size        :     1346
  | Max. radial integration grid size :       42
  | Max. angular integration grid size:      302
  | Max. angular grid division number :        8
  | Radial grid for Hartree potential :     1346
  | Number of spin channels           :        1

------------------------------------------------------------
          Reading file control.in.
------------------------------------------------------------
  XC: Using Perdew-Wang parametrisation of Ceperley-Alder LDA.
  Spin treatment: No spin polarisation.
  Scalar relativistic treatment of kinetic energy: on-site free-atom approximation to ZORA.
  Found k-point grid:        12        12        12

  Reading configuration options for species Si                  .
  | Found nuclear charge :  14.0000
  | Found atomic mass :    28.085500000000000      amu
  | Found l_max for Hartree potential  :   4
  | Found cutoff potl. onset [A], width [A], scale factor :    3.50000    1.50000    1.00000
  | Threshold for basis-dependent cutoff potential is   0.100000E-03
  | Found data for basic radial integration grid :    42 points, outermost radius =    5.000 A
  | Found multiplier for basic radial grid :   1
  | Found angular grid specification: user-specified.
  | Specified grid contains     5 separate shells.
  | Check grid settings after all constraints further below.
  | Found free-atom valence shell :  3 s   2.000
  | Found free-atom valence shell :  3 p   2.000
  | Found free-ion valence shell :  3 s   1.000
  | Found free-ion valence shell :  3 p   1.000
  | Found hydrogenic basis function :  3 d   4.200
  | Found hydrogenic basis function :  2 p   1.400
  | Found ionic basis function :  3 s , default cutoff radius.
  Species Si                  : Missing cutoff potential type.
  Defaulting to exp(1/x)/(1-x)^2 type cutoff potential.
  Species Si: No 'logarithmic' tag. Using default grid for free atom:
  | Default logarithmic grid data [bohr] : 0.1000E-03 0.1000E+03 0.1012E+01
  | Will include ionic basis functions of  2.0-fold positive Si                   ion.
  Species Si: On-site basis accuracy parameter (for Gram-Schmidt orthonormalisation) not specified.
  Using default value basis_acc =  0.1000000E-03.
  Species Si                  : Using default innermost maximum threshold i_radial=  2 for radial functions.
  Species Si                  : Default cutoff onset for free atom density etc. : 0.35000000E+01 AA.
  Species Si                  : Basic radial grid will be enhanced according to radial_multiplier =   1, to contain    42 grid points.

  Finished reading input file 'control.in'. Consistency checks are next.

  MPI_IN_PLACE appears to work with this MPI implementation.
  | Keeping use_mpi_in_place .true. (see manual).
  Target number of points in a grid batch is not set. Defaulting to  100
  Method for grid partitioning is not set. Defaulting to 'maxmin' partitioning.
  Batch size limit is not set. Defaulting to    200
  By default, will store active basis functions for each batch.
  If in need of memory, prune_basis_once .false. can be used to disable this option.
  communication_type for Hartree potential was not specified.
  Defaulting to calc_hartree .
 * Attention: 
 * You may want to set distributed_spline_storage to .true. in order to save memory.
 * This doesn't harm performance and is perfectly ok unless:
 * - you get error messages in postprocessing (about missing atoms in get_rho_multipole_spl)
 * - you need full spline storage in hirshfeld_analysis
  Defaulting to Pulay charge density mixer.
  Pulay mixer: Number of relevant iterations not set.
  Defaulting to    8 iterations.
  Pulay mixer: Number of initial linear mixing iterations not set.
  Defaulting to    0 iterations.
  Work space size for distributed Hartree potential not set.
  Defaulting to   0.200000E+03 MB.
  Mixing parameter for charge density mixing has not been set.
  Using default: charge_mix_param =     0.0500.
  The mixing parameter will be adjusted in iteration number     2 of the first full s.c.f. cycle only.
  Algorithm-dependent basis array size parameters:
  | n_max_pulay                         :        8
 * Notice: The s.c.f. convergence criterion sc_accuracy_rho was not provided.
 * We used to stop in this case, and ask the user to provide reasonable
 * scf convergence criteria. However, this led some users to employ criteria
 * that led to extremely long run times, e.g., for simple relaxation.
 * We now preset a default value for sc_accuracy_rho if it is not set.
 * You may still wish to check if this setting is too tight or too loose for your needs.
 * Based on n_atoms, FHI-aims chose sc_accuracy_rho =  0.100000E-05 .
  Maximum number of self-consistency iterations not provided.
  Presetting  1000 iterations.
  Presetting      1001 iterations before the initial mixing cycle
  is restarted anyway using the sc_init_iter criterion / keyword.
  Presetting a factor      1.000 between actual scf density residual
  and density convergence criterion sc_accuracy_rho below which sc_init_iter
  takes no effect.
 * No s.c.f. convergence criteria (sc_accuracy_*) were provided in control.in.
 * The run will proceed with a reasonable default guess, but please check whether.
 * the s.c.f. cycles seem to take too much or too little time.
  Calculation of forces was not defined in control.in. No forces will be calculated.
  Geometry relaxation not requested: no relaxation will be performed.
  No accuracy limit for integral partition fn. given. Defaulting to  0.1000E-14.
  No threshold value for u(r) in integrations given. Defaulting to  0.1000E-05.
  No occupation type (smearing scheme) given. Defaulting to Gaussian broadening, width =  0.1000E-01 eV.
  The width will be adjusted in iteration number     2 of the first full s.c.f. cycle only.
  S.C.F. convergence parameters will be adjusted in iteration number     2 of the first full s.c.f. cycle only.
  No accuracy for occupation numbers given. Defaulting to  0.1000E-12.
  No threshold value for occupation numbers given. Defaulting to  0.0000E+00.
  No accuracy for fermi level given. Defaulting to  0.1000E-19.
  Maximum # of iterations to find E_F not set. Defaulting to  200.
  Preferred method for the eigenvalue solver ('KS_method') not specified in 'control.in'.
  Defaulting to serial version, 'lapack_fast'.
  Will not use alltoall communication since running on < 1024 CPUs.
  Threshold for basis singularities not set.
  Default threshold for basis singularities:  0.1000E-04
  partition_type (choice of integration weights) for integrals was not specified.
  | Using a version of the partition function of Stratmann and coworkers ('stratmann_smoother').
  | At each grid point, the set of atoms used to build the partition table is smoothly restricted to
  | only those atoms whose free-atom density would be non-zero at that grid point.
  Partitioning for Hartree potential was not defined. Using partition_type for integrals.
  | Adjusted default value of keyword multip_moments_threshold to:       0.10000000E-11
  | This value may affect high angular momentum components of the Hartree potential in periodic systems.
  Angular momentum expansion for Kerker preconditioner not set explicitly.
  | Using default value of   0
  No explicit requirement for turning off preconditioner.
  | By default, it will be turned off when the charge convergence reaches
  | sc_accuracy_rho  =   0.100000E-05
  No special mixing parameter while Kerker preconditioner is on.
  Using default: charge_mix_param =     0.0500.
  No q(lm)/r^(l+1) cutoff set for long-range Hartree potential.
  | Using default value of  0.100000E-09 .
  | Verify using the multipole_threshold keyword.
  Defaulting to new monopole extrapolation.
  Density update method: automatic selection selected.
  Using density matrix based charge density update.
  Using density matrix based charge density update.
  Using packed matrix style: index .
  Defaulting to use time-reversal symmetry for k-point grid.
------------------------------------------------------------


------------------------------------------------------------
          Reading geometry description geometry.in.
------------------------------------------------------------
  Input structure read successfully.
  The structure contains        1 atoms,  and a total of         14.000 electrons.

  Input geometry:
  | Unit cell:
  |       -2.45000000        2.45000000        2.45000000
  |        2.45000000       -2.45000000        2.45000000
  |        2.45000000        2.45000000       -2.45000000
  | Atomic structure:
  |       Atom                x [A]            y [A]            z [A]
  |    1: Species Si            0.00000000        0.00000000        0.00000000

  Lattice parameters for 3D lattice (in Angstroms) :     4.243524    4.243524    4.243524
  Angle(s) between unit vectors (in degrees)      :   109.471221  109.471221  109.471221

  |

  | The smallest distance between any two atoms is         4.24352448 AA.
  |
  | The first atom of this pair is atom number                      1 .
  | The second atom of this pair is atom number                     1 .
  | Wigner-Seitz cell of the first atom image           0     0     1 .
  | (The Wigner-Seitz cell of the second atom is 0 0 0  by definition.)

  Quantities derived from the lattice vectors:
  | Reciprocal lattice vector 1:  0.000000  1.282283  1.282283
  | Reciprocal lattice vector 2:  1.282283 -0.000000  1.282283
  | Reciprocal lattice vector 3:  1.282283  1.282283 -0.000000
  | Unit cell volume                               :   0.588245E+02  A^3

  Range separation radius for Ewald summation (hartree_convergence_parameter):      5.00000000 bohr.

  Fractional coordinates:
                         L1                L2                L3
       atom_frac         0.00000000        0.00000000        0.00000000  Si

  Number of empty states per atom not set in control.in - providing a guess from actual geometry.
  | Total number of empty states used during s.c.f. cycle:        3
  If you use a very high smearing, use empty_states (per atom!) in control.in to increase this value.

  Structure-dependent array size parameters: 
  | Maximum number of distinct radial functions  :        8
  | Maximum number of basis functions            :       18
  | Number of Kohn-Sham states (occupied + empty):       10
------------------------------------------------------------

------------------------------------------------------------
          Preparing all fixed parts of the calculation.
------------------------------------------------------------
  Determining machine precision:
     2.2250738585072014E-308
  Setting up grids for atomic and cluster calculations.

  Creating wave function, potential, and density for free atoms.

  Species: Si

  List of occupied orbitals and eigenvalues:
    n    l              occ      energy [Ha]    energy [eV]
    1    0           2.0000       -65.491668     -1782.1190
    2    0           2.0000        -5.087967      -138.4506
    3    0           2.0000        -0.391471       -10.6525
    2    1           6.0000        -3.502246       -95.3010
    3    1           2.0000        -0.143943        -3.9169

  Creating fixed part of basis set: Ionic, confined, hydrogenic.

  Si                   ion:

  List of free ionic orbitals and eigenvalues:
    n    l      energy [Ha]    energy [eV]
    1    0       -66.364436     -1805.8682
    2    0        -5.935799      -161.5213
    3    0        -1.078166       -29.3384
    2    1        -4.351123      -118.4001
    3    1        -0.781733       -21.2720


  List of ionic basis orbitals and eigenvalues:
    n    l      energy [Ha]    energy [eV]    outer radius [A]
    3    0        -1.078146       -29.3378       4.214062


  Si                   hydrogenic:

  List of hydrogenic basis orbitals: 
    n    l      effective z      eigenvalue [eV]  inner max. [A]     outer max. [A]     outer radius [A]   
    3    2         4.200000       -26.6624           1.139231           1.139231           4.534782
    2    1         1.400000        -6.4613           1.472672           1.472672           4.590560


  Adding cutoff potential to free-atom effective potential.
  Creating atomic-like basis functions for current effective potential.

  Species Si                  :

  List of atomic basis orbitals and eigenvalues:
    n    l      energy [Ha]    energy [eV]    outer radius [A]
    1    0       -65.491668     -1782.1190       0.789468
    2    0        -5.087967      -138.4506       2.815114
    3    0        -0.391471       -10.6525       4.534782
    2    1        -3.502246       -95.3010       3.259919
    3    1        -0.143943        -3.9169       4.590560

  Assembling full basis from fixed parts.
  | Species Si :   atomic orbital   1 s accepted.
  | Species Si :   atomic orbital   2 s accepted.
  | Species Si :    ionic orbital   3 s accepted.
  | Species Si :   atomic orbital   3 s accepted.
  | Species Si :   atomic orbital   2 p accepted.
  | Species Si :   atomic orbital   3 p accepted.
  | Species Si :    hydro orbital   2 p accepted.
  | Species Si :    hydro orbital   3 d accepted.

  Basis size parameters after reduction:
  | Total number of radial functions:        8
  | Total number of basis functions :       18

  Per-task memory consumption for arrays in subroutine allocate_ext:
  |           2.757468MB.
  Testing on-site integration grid accuracy.
  |  Species  Function  <phi|h_atom|phi> (log., in eV)  <phi|h_atom|phi> (rad., in eV)
           1        1              -1782.1189727076              -1782.1182429251
           1        2               -138.4506350693               -138.4506310079
           1        3                -10.3030408815                -10.3029120678
           1        4                  5.0238999146                  4.9457540310 ***
           1        5                -95.3009689499                -95.3009689315
           1        6                 -3.9266496564                 -3.9420918374
           1        7                  6.3453628447                  6.1632372158 ***
           1        8                  6.2883050744                  6.2861881409
 * Note: Onsite integrals marked "***" above are less accurate than
 * onsite_accuracy_threshold =    0.03000 eV. Usually, this is harmless.
 * When in doubt, tighten the "radial" and/or "radial_multiplier" flags to check.

  Preparing densities etc. for the partition functions (integrals / Hartree potential).

  Preparations completed.
  max(cpu_time)          :      0.105 s.
  Wall clock time (cpu1) :      0.105 s.
------------------------------------------------------------

------------------------------------------------------------
          Begin self-consistency loop: Initialization.

          Date     :  20190514, Time     :  123615.016
------------------------------------------------------------

  Initializing index lists of integration centers etc. from given atomic structure:
  Mapping all atomic coordinates to central unit cell.

  Initializing the k-points
          Using symmetry for reducing the k-points
  | k-points reduced from:     1728 to      868
  | Number of k-points                             :       868
  The eigenvectors in the calculations are COMPLEX.
  | K-points in task   0:       868
  | Number of basis functions in the Hamiltonian integrals :       430
  | Number of basis functions in a single unit cell        :        18
  | Number of centers in hartree potential         :       339
  | Number of centers in hartree multipole         :        89
  | Number of centers in electron density summation:        59
  | Number of centers in basis integrals           :        59
  | Number of centers in integrals                 :        27
  | Number of centers in hamiltonian               :        59
  | Consuming        813 KiB for k_phase.
  | Number of super-cells (origin) [n_cells]                     :        2197
  | Number of super-cells (after PM_index) [n_cells]             :          60
  | Number of super-cells in hamiltonian [n_cells_in_hamiltonian]:          60
  | Size of matrix packed + index [n_hamiltonian_matrix_size] :        8084
  Partitioning the integration grid into batches with maxmin method.
  | Maximal weight for a single point:     1.000
  | Minimal weight for a single point:     0.532
  | Number of batches:       64
  | Maximal batch size:      90
  | Minimal batch size:      85
  | Average batch size:      87.562
  | Standard deviation of batch sizes:       1.499
  Initializing partition tables, free-atom densities, potentials, etc. across the integration grid (initialize_grid_storage).
  | initialize_grid_storage: Actual outermost partition radius vs. multipole_radius_free
  | (-- VB: in principle, multipole_radius_free should be larger, hence this output)
  | Species        1: Confinement radius =              4.999999999999999 AA, multipole_radius_free =              5.000694715736543 AA.
  | Species        1: outer_partition_radius set to              5.000694715736543 AA .
  | Original list of interatomic distances with          59 x         59 entries is created.
  | Net number of integration points:     5604
  | of which are non-zero points    :     5342
  | Numerical average free-atom electrostatic potential    :     -4.47197501 eV
  Renormalizing the initial density to the exact electron count on the 3D integration grid.
  | Initial density: Formal number of electrons (from input files) :      14.0000000000
  | Integrated number of electrons on 3D grid     :      13.9998675073
  | Charge integration error                      :      -0.0001324927
  | Normalization factor for density and gradient :       1.0000094639
  Obtaining max. number of non-zero basis functions in each batch (get_n_compute_maxes).
  | Maximal number of non-zero basis functions:      198 in task     0
  Allocating        2.500 MB for KS_eigenvector_complex
  Integrating Hamiltonian matrix: batch-based integration.
  Time summed over all CPUs for integration: real work        0.058 s, elapsed        0.058 s
  Integrating overlap matrix.
  Time summed over all CPUs for integration: real work        0.041 s, elapsed        0.041 s
  Decreasing sparse matrix size:
   Tolerance:   9.9999998245167004E-014
   Hamiltonian matrix
  | Array has     5423 nonzero elements out of     8084 elements
  | Sparsity factor is 0.329
   Overlap matrix
  | Array has     5417 nonzero elements out of     8084 elements
  | Sparsity factor is 0.330
  New size of hamiltonian matrix:        5562

  Updating Kohn-Sham eigenvalues, eigenvectors, occupation numbers, and Fermi level.
  Solving generalized eigenproblem
  Transforming overlap matrix and checking for singularities.
  Overlap matrix is nonsingular at first k-point:
  | Lowest eigenvalue:  0.799514E-01

  Obtaining occupation numbers and chemical potential using ELSI.
  | Chemical potential (Fermi level):    -4.42504362eV
  Writing Kohn-Sham eigenvalues.
  K-point:       1 at    0.000000    0.000000    0.000000 (in units of recip. lattice)

  State    Occupation    Eigenvalue [Ha]    Eigenvalue [eV]
      1       2.00000         -65.491685        -1782.11942
      2       2.00000          -5.087975         -138.45083
      3       2.00000          -3.502254          -95.30119
      4       2.00000          -3.502254          -95.30119
      5       2.00000          -3.502254          -95.30119
      6       2.00000          -0.427055          -11.62077
      7       0.00000          -0.090869           -2.47267
      8       0.00000          -0.090869           -2.47267
      9       0.00000          -0.090869           -2.47267
     10       0.00000           0.055538            1.51126

  What follows are estimated values for band gap, HOMO, LUMO, etc.
  | They are estimated on a discrete k-point grid and not necessarily exact.
  | For converged numbers, create a DOS and/or band structure plot on a denser k-grid.

  Highest occupied state (VBM) at     -4.43722367 eV (relative to internal zero)
  | Occupation number:      1.91502438
  | K-point:     652 at    0.500000    0.333333    0.333333 (in units of recip. lattice)

  Lowest unoccupied state (CBM) at    -4.40670769 eV (relative to internal zero)
  | Occupation number:      0.00951172
  | K-point:     566 at    0.416667    0.500000    0.583333 (in units of recip. lattice)

  ESTIMATED overall HOMO-LUMO gap:      0.03051598 eV between HOMO at k-point 652 and LUMO at k-point 566
  | This appears to be an indirect band gap.
  | Smallest direct gap :      0.03767043 eV for k_point 566 at    0.416667    0.500000    0.583333 (in units of recip. lattice)
  However, this system has fractional occupation numbers. Since we use a finite k-point grid,
  this material is metallic within the approximate finite broadening function (occupation_type)
  applied to determine the occupation numbers.
  Calculating total energy contributions from superposition of free atom densities.

  Total energy components:
  | Sum of eigenvalues            :        -163.33798401 Ha       -4444.65268622 eV
  | XC energy correction          :         -19.63775427 Ha        -534.37048222 eV
  | XC potential correction       :          25.94663355 Ha         706.04382188 eV
  | Free-atom electrostatic energy:        -132.20394050 Ha       -3597.45225729 eV
  | Hartree energy correction     :          -0.00000000 Ha          -0.00000000 eV
  | Entropy correction            :          -0.00000037 Ha          -0.00001004 eV
  | ---------------------------
  | Total energy                  :        -289.23304523 Ha       -7870.43160384 eV
  | Total energy, T -> 0          :        -289.23304560 Ha       -7870.43161388 eV  <-- do not rely on this value for anything but (periodic) metals
  | Electronic free energy        :        -289.23304597 Ha       -7870.43162391 eV

  Derived energy quantities:
  | Kinetic energy                :         289.54936989 Ha        7879.03923590 eV
  | Electrostatic energy          :        -559.14466085 Ha      -15215.10035753 eV
  | Energy correction for multipole
  | error in Hartree potential    :           0.00000000 Ha           0.00000000 eV
  | Sum of eigenvalues per atom                           :       -4444.65268622 eV
  | Total energy (T->0) per atom                          :       -7870.43161388 eV  <-- do not rely on this value for anything but (periodic) metals
  | Electronic free energy per atom                       :       -7870.43162391 eV
  Initialize hartree_potential_storage
  Max. number of atoms included in rho_multipole:            1

  End scf initialization - timings             :  max(cpu_time)    wall_clock(cpu1)
  | Time for scf. initialization               :        0.386 s           0.386 s
  | Boundary condition initialization          :        0.035 s           0.035 s
  | Integration                                :        0.098 s           0.099 s
  | Solution of K.-S. eqns.                    :        0.218 s           0.218 s
  | Grid partitioning                          :        0.008 s           0.009 s
  | Preloading free-atom quantities on grid    :        0.001 s           0.001 s
  | Free-atom superposition energy             :        0.007 s           0.006 s
  | Total energy evaluation                    :        0.000 s           0.001 s

  Partial memory accounting:
  | Current value for overall tracked memory usage on task 0  :           2.611 MB
  | Peak value for overall tracked memory usage on task 0     :           3.403 MB after allocating wave
  | Largest tracked array allocation on task 0 so far         :           2.500 MB  when allocating +KS_eigenvector_complex
  Note:  These values currently only include a subset of arrays which are explicitly tracked.
  The "true" memory usage will be greater.
------------------------------------------------------------

------------------------------------------------------------
          Begin self-consistency iteration #    1

  Date     :  20190514, Time     :  123615.402
------------------------------------------------------------
  Evaluating new KS density using the density matrix
  Evaluating density matrix
  Time summed over all CPUs for getting density from density matrix: real work        0.091 s, elapsed        0.091 s
  Integration grid: deviation in total charge (<rho> - N_e) =  -3.961276E-13
  Pulay mixing of updated and previous charge densities.

  Evaluating partitioned Hartree potential by multipole expansion.
  | Analytical far-field extrapolation by fixed multipoles:
  | Hartree multipole sum: apparent total charge =  -0.291041E-03
  Summing up the Hartree potential.
  | Estimated reciprocal-space cutoff momentum G_max:         1.84432723 bohr^-1 .
  | Reciprocal lattice points for long-range Hartree potential:      42
  Time summed over all CPUs for potential: real work        0.102 s, elapsed        0.102 s
  | RMS charge density error from multipole expansion :   0.512417E-04
  | Average real-space part of the electrostatic potential :     -0.01230415 eV

  Integrating Hamiltonian matrix: batch-based integration.
  Time summed over all CPUs for integration: real work        0.058 s, elapsed        0.058 s

  Updating Kohn-Sham eigenvalues, eigenvectors, occupation numbers, and Fermi level.
  Solving generalized eigenproblem

  Obtaining occupation numbers and chemical potential using ELSI.
  | Chemical potential (Fermi level):    -4.43792260eV
  Writing Kohn-Sham eigenvalues.
  K-point:       1 at    0.000000    0.000000    0.000000 (in units of recip. lattice)

  State    Occupation    Eigenvalue [Ha]    Eigenvalue [eV]
      1       2.00000         -65.494084        -1782.18472
      2       2.00000          -5.089842         -138.50165
      3       2.00000          -3.504166          -95.35321
      4       2.00000          -3.504166          -95.35321
      5       2.00000          -3.504166          -95.35321
      6       2.00000          -0.427664          -11.63734
      7       0.00000          -0.091497           -2.48975
      8       0.00000          -0.091497           -2.48975
      9       0.00000          -0.091497           -2.48975
     10       0.00000           0.054978            1.49603

  What follows are estimated values for band gap, HOMO, LUMO, etc.
  | They are estimated on a discrete k-point grid and not necessarily exact.
  | For converged numbers, create a DOS and/or band structure plot on a denser k-grid.

  Highest occupied state (VBM) at     -4.45004585 eV (relative to internal zero)
  | Occupation number:      1.91356051
  | K-point:     243 at    0.166667    0.500000    0.666667 (in units of recip. lattice)

  Lowest unoccupied state (CBM) at    -4.42004504 eV (relative to internal zero)
  | Occupation number:      0.01146266
  | K-point:     565 at    0.416667    0.500000    0.500000 (in units of recip. lattice)

  ESTIMATED overall HOMO-LUMO gap:      0.03000081 eV between HOMO at k-point 243 and LUMO at k-point 565
  | This appears to be an indirect band gap.
  | Smallest direct gap :      0.03760250 eV for k_point 565 at    0.416667    0.500000    0.500000 (in units of recip. lattice)
  However, this system has fractional occupation numbers. Since we use a finite k-point grid,
  this material is metallic within the approximate finite broadening function (occupation_type)
  applied to determine the occupation numbers.

  Total energy components:
  | Sum of eigenvalues            :        -163.36025173 Ha       -4445.25862196 eV
  | XC energy correction          :         -19.63559474 Ha        -534.31171840 eV
  | XC potential correction       :          25.94378810 Ha         705.96639350 eV
  | Free-atom electrostatic energy:        -132.20394050 Ha       -3597.45225729 eV
  | Hartree energy correction     :           0.02308924 Ha           0.62829006 eV
  | Entropy correction            :          -0.00000038 Ha          -0.00001022 eV
  | ---------------------------
  | Total energy                  :        -289.23290963 Ha       -7870.42791408 eV
  | Total energy, T -> 0          :        -289.23291001 Ha       -7870.42792430 eV  <-- do not rely on this value for anything but (periodic) metals
  | Electronic free energy        :        -289.23291038 Ha       -7870.42793451 eV

  Derived energy quantities:
  | Kinetic energy                :         289.53722493 Ha        7878.70875460 eV
  | Electrostatic energy          :        -559.13453982 Ha      -15214.82495029 eV
  | Energy correction for multipole
  | error in Hartree potential    :           0.00000535 Ha           0.00014558 eV
  | Sum of eigenvalues per atom                           :       -4445.25862196 eV
  | Total energy (T->0) per atom                          :       -7870.42792430 eV  <-- do not rely on this value for anything but (periodic) metals
  | Electronic free energy per atom                       :       -7870.42793451 eV

  Self-consistency convergence accuracy:
  | Change of charge density      :  0.3193E-01
  | Change of sum of eigenvalues  : -0.6059E+00 eV
  | Change of total energy        :  0.3690E-02 eV

  End self-consistency iteration #     1       :  max(cpu_time)    wall_clock(cpu1)
  | Time for this iteration                    :        0.373 s           0.373 s
  | Charge density update                      :        0.100 s           0.100 s
  | Density mixing & preconditioning           :        0.012 s           0.012 s
  | Hartree multipole update                   :        0.000 s           0.000 s
  | Hartree multipole summation                :        0.104 s           0.104 s
  | Integration                                :        0.058 s           0.058 s
  | Solution of K.-S. eqns.                    :        0.098 s           0.099 s
  | Total energy evaluation                    :        0.000 s           0.000 s

  Partial memory accounting:
  | Current value for overall tracked memory usage on task 0  :           2.611 MB
  | Peak value for overall tracked memory usage on task 0     :           3.403 MB after allocating wave
  | Largest tracked array allocation on task 0 so far         :           2.500 MB  when allocating +KS_eigenvector_complex
  Note:  These values currently only include a subset of arrays which are explicitly tracked.
  The "true" memory usage will be greater.
------------------------------------------------------------

------------------------------------------------------------
          Begin self-consistency iteration #    2

  Date     :  20190514, Time     :  123615.775
------------------------------------------------------------
  Evaluating new KS density using the density matrix
  Evaluating density matrix
  Time summed over all CPUs for getting density from density matrix: real work        0.090 s, elapsed        0.090 s
  Integration grid: deviation in total charge (<rho> - N_e) =  -2.877698E-13
  Pulay mixing of updated and previous charge densities.

  Evaluating partitioned Hartree potential by multipole expansion.
  | Analytical far-field extrapolation by fixed multipoles:
  | Hartree multipole sum: apparent total charge =  -0.326185E-02
  Summing up the Hartree potential.
  Time summed over all CPUs for potential: real work        0.129 s, elapsed        0.129 s
  | RMS charge density error from multipole expansion :   0.100773E-02
  | Average real-space part of the electrostatic potential :     -0.25422281 eV

  Integrating Hamiltonian matrix: batch-based integration.
  Time summed over all CPUs for integration: real work        0.057 s, elapsed        0.057 s

  Updating Kohn-Sham eigenvalues, eigenvectors, occupation numbers, and Fermi level.
  Solving generalized eigenproblem

  Obtaining occupation numbers and chemical potential using ELSI.
  | Chemical potential (Fermi level):    -4.68249542eV
  What follows are estimated values for band gap, HOMO, LUMO, etc.
  | They are estimated on a discrete k-point grid and not necessarily exact.
  | For converged numbers, create a DOS and/or band structure plot on a denser k-grid.

  Highest occupied state (VBM) at     -4.69229278 eV (relative to internal zero)
  | Occupation number:      1.83411712
  | K-point:     493 at    0.333333    0.833333    0.500000 (in units of recip. lattice)

  Lowest unoccupied state (CBM) at    -4.67267724 eV (relative to internal zero)
  | Occupation number:      0.16498439
  | K-point:     566 at    0.416667    0.500000    0.583333 (in units of recip. lattice)

  ESTIMATED overall HOMO-LUMO gap:      0.01961554 eV between HOMO at k-point 493 and LUMO at k-point 566
  | This appears to be an indirect band gap.
  | Smallest direct gap :      0.03637308 eV for k_point 566 at    0.416667    0.500000    0.583333 (in units of recip. lattice)
  However, this system has fractional occupation numbers. Since we use a finite k-point grid,
  this material is metallic within the approximate finite broadening function (occupation_type)
  applied to determine the occupation numbers.

  Checking to see if s.c.f. parameters should be adjusted.
  Adjusted the Pulay mixing parameter (charge_mix_param) for an expected low-gap system. New value:   0.020000 .
  Adjusted the occupation broadening width for an expected low-gap system. New value:      0.05000000 eV.

  Total energy components:
  | Sum of eigenvalues            :        -163.80506468 Ha       -4457.36259811 eV
  | XC energy correction          :         -19.59660032 Ha        -533.25062623 eV
  | XC potential correction       :          25.89240448 Ha         704.56817403 eV
  | Free-atom electrostatic energy:        -132.20394050 Ha       -3597.45225729 eV
  | Hartree energy correction     :           0.48180753 Ha          13.11064987 eV
  | Entropy correction            :          -0.00004362 Ha          -0.00118709 eV
  | ---------------------------
  | Total energy                  :        -289.23139349 Ha       -7870.38665772 eV
  | Total energy, T -> 0          :        -289.23143711 Ha       -7870.38784481 eV  <-- do not rely on this value for anything but (periodic) metals
  | Electronic free energy        :        -289.23148074 Ha       -7870.38903190 eV

  Derived energy quantities:
  | Kinetic energy                :         289.24073584 Ha        7870.64087595 eV
  | Electrostatic energy          :        -558.87552901 Ha      -15207.77690744 eV
  | Energy correction for multipole
  | error in Hartree potential    :           0.00012056 Ha           0.00328059 eV
  | Sum of eigenvalues per atom                           :       -4457.36259811 eV
  | Total energy (T->0) per atom                          :       -7870.38784481 eV  <-- do not rely on this value for anything but (periodic) metals
  | Electronic free energy per atom                       :       -7870.38903190 eV

  Self-consistency convergence accuracy:
  | Change of charge density      :  0.3039E-01
  | Change of sum of eigenvalues  : -0.1210E+02 eV
  | Change of total energy        :  0.4126E-01 eV

  End self-consistency iteration #     2       :  max(cpu_time)    wall_clock(cpu1)
  | Time for this iteration                    :        0.396 s           0.396 s
  | Charge density update                      :        0.100 s           0.100 s
  | Density mixing & preconditioning           :        0.011 s           0.011 s
  | Hartree multipole update                   :        0.000 s           0.000 s
  | Hartree multipole summation                :        0.130 s           0.131 s
  | Integration                                :        0.058 s           0.057 s
  | Solution of K.-S. eqns.                    :        0.096 s           0.096 s
  | Total energy evaluation                    :        0.000 s           0.000 s

  Partial memory accounting:
  | Current value for overall tracked memory usage on task 0  :           2.612 MB
  | Peak value for overall tracked memory usage on task 0     :           3.403 MB after allocating wave
  | Largest tracked array allocation on task 0 so far         :           2.500 MB  when allocating +KS_eigenvector_complex
  Note:  These values currently only include a subset of arrays which are explicitly tracked.
  The "true" memory usage will be greater.
------------------------------------------------------------

------------------------------------------------------------
          Begin self-consistency iteration #    3

  Date     :  20190514, Time     :  123616.171
------------------------------------------------------------
  Evaluating new KS density using the density matrix
  Evaluating density matrix
  Time summed over all CPUs for getting density from density matrix: real work        0.093 s, elapsed        0.093 s
  Integration grid: deviation in total charge (<rho> - N_e) =  -3.588241E-13
  Pulay mixing of updated and previous charge densities.

  Evaluating partitioned Hartree potential by multipole expansion.
  | Analytical far-field extrapolation by fixed multipoles:
  | Hartree multipole sum: apparent total charge =  -0.269399E-02
  Summing up the Hartree potential.
  Time summed over all CPUs for potential: real work        0.125 s, elapsed        0.125 s
  | RMS charge density error from multipole expansion :   0.750342E-03
  | Average real-space part of the electrostatic potential :     -0.18013315 eV

  Integrating Hamiltonian matrix: batch-based integration.
  Time summed over all CPUs for integration: real work        0.057 s, elapsed        0.057 s

  Updating Kohn-Sham eigenvalues, eigenvectors, occupation numbers, and Fermi level.
  Solving generalized eigenproblem

  Obtaining occupation numbers and chemical potential using ELSI.
  | Chemical potential (Fermi level):    -4.60518327eV
  What follows are estimated values for band gap, HOMO, LUMO, etc.
  | They are estimated on a discrete k-point grid and not necessarily exact.
  | For converged numbers, create a DOS and/or band structure plot on a denser k-grid.

  Highest occupied state (VBM) at     -4.60670422 eV (relative to internal zero)
  | Occupation number:      1.03431368
  | K-point:     261 at    0.166667    0.666667    0.666667 (in units of recip. lattice)

  Lowest unoccupied state (CBM) at    -4.58280274 eV (relative to internal zero)
  | Occupation number:      0.52672257
  | K-point:     662 at    0.500000    0.416667    0.500000 (in units of recip. lattice)

  ESTIMATED overall HOMO-LUMO gap:      0.02390148 eV between HOMO at k-point 261 and LUMO at k-point 662
  | This appears to be an indirect band gap.
  | Smallest direct gap :      0.03681402 eV for k_point 662 at    0.500000    0.416667    0.500000 (in units of recip. lattice)
  However, this system has fractional occupation numbers. Since we use a finite k-point grid,
  this material is metallic within the approximate finite broadening function (occupation_type)
  applied to determine the occupation numbers.

  Total energy components:
  | Sum of eigenvalues            :        -163.59741210 Ha       -4451.71208382 eV
  | XC energy correction          :         -19.61609888 Ha        -533.78120907 eV
  | XC potential correction       :          25.91816949 Ha         705.26927553 eV
  | Free-atom electrostatic energy:        -132.20394050 Ha       -3597.45225729 eV
  | Hartree energy correction     :           0.26757918 Ha           7.28119994 eV
  | Entropy correction            :          -0.00003729 Ha          -0.00101477 eV
  | ---------------------------
  | Total energy                  :        -289.23170281 Ha       -7870.39507470 eV
  | Total energy, T -> 0          :        -289.23174010 Ha       -7870.39608948 eV  <-- do not rely on this value for anything but (periodic) metals
  | Electronic free energy        :        -289.23177739 Ha       -7870.39710425 eV

  Derived energy quantities:
  | Kinetic energy                :         289.46400505 Ha        7876.71634036 eV
  | Electrostatic energy          :        -559.07960898 Ha      -15213.33020600 eV
  | Energy correction for multipole
  | error in Hartree potential    :           0.00008511 Ha           0.00231589 eV
  | Sum of eigenvalues per atom                           :       -4451.71208382 eV
  | Total energy (T->0) per atom                          :       -7870.39608948 eV  <-- do not rely on this value for anything but (periodic) metals
  | Electronic free energy per atom                       :       -7870.39710425 eV

  Self-consistency convergence accuracy:
  | Change of charge density      :  0.8081E-02
  | Change of sum of eigenvalues  :  0.5651E+01 eV
  | Change of total energy        : -0.8417E-02 eV

  End self-consistency iteration #     3       :  max(cpu_time)    wall_clock(cpu1)
  | Time for this iteration                    :        0.395 s           0.395 s
  | Charge density update                      :        0.102 s           0.102 s
  | Density mixing & preconditioning           :        0.012 s           0.011 s
  | Hartree multipole update                   :        0.000 s           0.001 s
  | Hartree multipole summation                :        0.127 s           0.127 s
  | Integration                                :        0.057 s           0.057 s
  | Solution of K.-S. eqns.                    :        0.097 s           0.097 s
  | Total energy evaluation                    :        0.000 s           0.000 s

  Partial memory accounting:
  | Current value for overall tracked memory usage on task 0  :           2.613 MB
  | Peak value for overall tracked memory usage on task 0     :           3.403 MB after allocating wave
  | Largest tracked array allocation on task 0 so far         :           2.500 MB  when allocating +KS_eigenvector_complex
  Note:  These values currently only include a subset of arrays which are explicitly tracked.
  The "true" memory usage will be greater.
------------------------------------------------------------

------------------------------------------------------------
          Begin self-consistency iteration #    4

  Date     :  20190514, Time     :  123616.566
------------------------------------------------------------
  Evaluating new KS density using the density matrix
  Evaluating density matrix
  Time summed over all CPUs for getting density from density matrix: real work        0.090 s, elapsed        0.090 s
  Integration grid: deviation in total charge (<rho> - N_e) =  -3.801404E-13
  Pulay mixing of updated and previous charge densities.

  Evaluating partitioned Hartree potential by multipole expansion.
  | Analytical far-field extrapolation by fixed multipoles:
  | Hartree multipole sum: apparent total charge =  -0.454163E-02
  Summing up the Hartree potential.
  Time summed over all CPUs for potential: real work        0.130 s, elapsed        0.130 s
  | RMS charge density error from multipole expansion :   0.134457E-02
  | Average real-space part of the electrostatic potential :     -0.32992042 eV

  Integrating Hamiltonian matrix: batch-based integration.
  Time summed over all CPUs for integration: real work        0.057 s, elapsed        0.057 s

  Updating Kohn-Sham eigenvalues, eigenvectors, occupation numbers, and Fermi level.
  Solving generalized eigenproblem

  Obtaining occupation numbers and chemical potential using ELSI.
  | Chemical potential (Fermi level):    -4.75361133eV
  What follows are estimated values for band gap, HOMO, LUMO, etc.
  | They are estimated on a discrete k-point grid and not necessarily exact.
  | For converged numbers, create a DOS and/or band structure plot on a denser k-grid.

  Highest occupied state (VBM) at     -4.77106709 eV (relative to internal zero)
  | Occupation number:      1.37849849
  | K-point:     662 at    0.500000    0.416667    0.500000 (in units of recip. lattice)

  Lowest unoccupied state (CBM) at    -4.75248102 eV (relative to internal zero)
  | Occupation number:      0.97449599
  | K-point:     637 at    0.500000    0.166667    0.666667 (in units of recip. lattice)

  ESTIMATED overall HOMO-LUMO gap:      0.01858607 eV between HOMO at k-point 662 and LUMO at k-point 637
  | This appears to be an indirect band gap.
  | Smallest direct gap :      0.03611277 eV for k_point 662 at    0.500000    0.166667    0.666667 (in units of recip. lattice)
  However, this system has fractional occupation numbers. Since we use a finite k-point grid,
  this material is metallic within the approximate finite broadening function (occupation_type)
  applied to determine the occupation numbers.

  Total energy components:
  | Sum of eigenvalues            :        -163.85673769 Ha       -4458.76869229 eV
  | XC energy correction          :         -19.59414273 Ha        -533.18375177 eV
  | XC potential correction       :          25.88924786 Ha         704.48227794 eV
  | Free-atom electrostatic energy:        -132.20394050 Ha       -3597.45225729 eV
  | Hartree energy correction     :           0.53425320 Ha          14.53776937 eV
  | Entropy correction            :          -0.00003959 Ha          -0.00107733 eV
  | ---------------------------
  | Total energy                  :        -289.23131986 Ha       -7870.38465403 eV
  | Total energy, T -> 0          :        -289.23135945 Ha       -7870.38573136 eV  <-- do not rely on this value for anything but (periodic) metals
  | Electronic free energy        :        -289.23139904 Ha       -7870.38680868 eV

  Derived energy quantities:
  | Kinetic energy                :         289.30802976 Ha        7872.47203680 eV
  | Electrostatic energy          :        -558.94520689 Ha      -15209.67293906 eV
  | Energy correction for multipole
  | error in Hartree potential    :           0.00016752 Ha           0.00455835 eV
  | Sum of eigenvalues per atom                           :       -4458.76869229 eV
  | Total energy (T->0) per atom                          :       -7870.38573136 eV  <-- do not rely on this value for anything but (periodic) metals
  | Electronic free energy per atom                       :       -7870.38680868 eV

  Self-consistency convergence accuracy:
  | Change of charge density      :  0.1560E-01
  | Change of sum of eigenvalues  : -0.7057E+01 eV
  | Change of total energy        :  0.1042E-01 eV

  End self-consistency iteration #     4       :  max(cpu_time)    wall_clock(cpu1)
  | Time for this iteration                    :        0.398 s           0.398 s
  | Charge density update                      :        0.099 s           0.099 s
  | Density mixing & preconditioning           :        0.011 s           0.011 s
  | Hartree multipole update                   :        0.000 s           0.000 s
  | Hartree multipole summation                :        0.132 s           0.132 s
  | Integration                                :        0.057 s           0.058 s
  | Solution of K.-S. eqns.                    :        0.099 s           0.098 s
  | Total energy evaluation                    :        0.000 s           0.000 s

  Partial memory accounting:
  | Current value for overall tracked memory usage on task 0  :           2.613 MB
  | Peak value for overall tracked memory usage on task 0     :           3.403 MB after allocating wave
  | Largest tracked array allocation on task 0 so far         :           2.500 MB  when allocating +KS_eigenvector_complex
  Note:  These values currently only include a subset of arrays which are explicitly tracked.
  The "true" memory usage will be greater.
------------------------------------------------------------

------------------------------------------------------------
          Begin self-consistency iteration #    5

  Date     :  20190514, Time     :  123616.964
------------------------------------------------------------
  Evaluating new KS density using the density matrix
  Evaluating density matrix
  Time summed over all CPUs for getting density from density matrix: real work        0.090 s, elapsed        0.090 s
  Integration grid: deviation in total charge (<rho> - N_e) =  -2.096101E-13
  Pulay mixing of updated and previous charge densities.

  Evaluating partitioned Hartree potential by multipole expansion.
  | Analytical far-field extrapolation by fixed multipoles:
  | Hartree multipole sum: apparent total charge =  -0.615130E-02
  Summing up the Hartree potential.
  Time summed over all CPUs for potential: real work        0.130 s, elapsed        0.130 s
  | RMS charge density error from multipole expansion :   0.142450E-02
  | Average real-space part of the electrostatic potential :     -0.34858622 eV

  Integrating Hamiltonian matrix: batch-based integration.
  Time summed over all CPUs for integration: real work        0.057 s, elapsed        0.057 s

  Updating Kohn-Sham eigenvalues, eigenvectors, occupation numbers, and Fermi level.
  Solving generalized eigenproblem

  Obtaining occupation numbers and chemical potential using ELSI.
  | Chemical potential (Fermi level):    -4.77884448eV
  What follows are estimated values for band gap, HOMO, LUMO, etc.
  | They are estimated on a discrete k-point grid and not necessarily exact.
  | For converged numbers, create a DOS and/or band structure plot on a denser k-grid.

  Highest occupied state (VBM) at     -4.79686297 eV (relative to internal zero)
  | Occupation number:      1.38969616
  | K-point:     566 at    0.416667    0.500000    0.583333 (in units of recip. lattice)

  Lowest unoccupied state (CBM) at    -4.77730495 eV (relative to internal zero)
  | Occupation number:      0.96526748
  | K-point:     637 at    0.500000    0.166667    0.666667 (in units of recip. lattice)

  ESTIMATED overall HOMO-LUMO gap:      0.01955802 eV between HOMO at k-point 566 and LUMO at k-point 637
  | This appears to be an indirect band gap.
  | Smallest direct gap :      0.03600181 eV for k_point 566 at    0.500000    0.166667    0.666667 (in units of recip. lattice)
  However, this system has fractional occupation numbers. Since we use a finite k-point grid,
  this material is metallic within the approximate finite broadening function (occupation_type)
  applied to determine the occupation numbers.

  Total energy components:
  | Sum of eigenvalues            :        -163.89940639 Ha       -4459.92976650 eV
  | XC energy correction          :         -19.59111613 Ha        -533.10139377 eV
  | XC potential correction       :          25.88525842 Ha         704.37371983 eV
  | Free-atom electrostatic energy:        -132.20394050 Ha       -3597.45225729 eV
  | Hartree energy correction     :           0.57786246 Ha          15.72443756 eV
  | Entropy correction            :          -0.00004001 Ha          -0.00108871 eV
  | ---------------------------
  | Total energy                  :        -289.23134213 Ha       -7870.38526016 eV
  | Total energy, T -> 0          :        -289.23138214 Ha       -7870.38634888 eV  <-- do not rely on this value for anything but (periodic) metals
  | Electronic free energy        :        -289.23142215 Ha       -7870.38743759 eV

  Derived energy quantities:
  | Kinetic energy                :         289.28791047 Ha        7871.92456311 eV
  | Electrostatic energy          :        -558.92813648 Ha      -15209.20842951 eV
  | Energy correction for multipole
  | error in Hartree potential    :           0.00017944 Ha           0.00488274 eV
  | Sum of eigenvalues per atom                           :       -4459.92976650 eV
  | Total energy (T->0) per atom                          :       -7870.38634888 eV  <-- do not rely on this value for anything but (periodic) metals
  | Electronic free energy per atom                       :       -7870.38743759 eV

  Self-consistency convergence accuracy:
  | Change of charge density      :  0.2079E-02
  | Change of sum of eigenvalues  : -0.1161E+01 eV
  | Change of total energy        : -0.6061E-03 eV

  End self-consistency iteration #     5       :  max(cpu_time)    wall_clock(cpu1)
  | Time for this iteration                    :        0.399 s           0.399 s
  | Charge density update                      :        0.099 s           0.100 s
  | Density mixing & preconditioning           :        0.011 s           0.011 s
  | Hartree multipole update                   :        0.000 s           0.001 s
  | Hartree multipole summation                :        0.131 s           0.131 s
  | Integration                                :        0.057 s           0.057 s
  | Solution of K.-S. eqns.                    :        0.099 s           0.099 s
  | Total energy evaluation                    :        0.000 s           0.000 s

  Partial memory accounting:
  | Current value for overall tracked memory usage on task 0  :           2.613 MB
  | Peak value for overall tracked memory usage on task 0     :           3.403 MB after allocating wave
  | Largest tracked array allocation on task 0 so far         :           2.500 MB  when allocating +KS_eigenvector_complex
  Note:  These values currently only include a subset of arrays which are explicitly tracked.
  The "true" memory usage will be greater.
------------------------------------------------------------

------------------------------------------------------------
          Begin self-consistency iteration #    6

  Date     :  20190514, Time     :  123617.363
------------------------------------------------------------
  Evaluating new KS density using the density matrix
  Evaluating density matrix
  Time summed over all CPUs for getting density from density matrix: real work        0.090 s, elapsed        0.090 s
  Integration grid: deviation in total charge (<rho> - N_e) =  -3.606004E-13
  Pulay mixing of updated and previous charge densities.

  Evaluating partitioned Hartree potential by multipole expansion.
  | Analytical far-field extrapolation by fixed multipoles:
  | Hartree multipole sum: apparent total charge =  -0.128203E-02
  Summing up the Hartree potential.
  Time summed over all CPUs for potential: real work        0.129 s, elapsed        0.129 s
  | RMS charge density error from multipole expansion :   0.138997E-02
  | Average real-space part of the electrostatic potential :     -0.34163395 eV

  Integrating Hamiltonian matrix: batch-based integration.
  Time summed over all CPUs for integration: real work        0.057 s, elapsed        0.057 s

  Updating Kohn-Sham eigenvalues, eigenvectors, occupation numbers, and Fermi level.
  Solving generalized eigenproblem

  Obtaining occupation numbers and chemical potential using ELSI.
  | Chemical potential (Fermi level):    -4.74563832eV
  What follows are estimated values for band gap, HOMO, LUMO, etc.
  | They are estimated on a discrete k-point grid and not necessarily exact.
  | For converged numbers, create a DOS and/or band structure plot on a denser k-grid.

  Highest occupied state (VBM) at     -4.76280959 eV (relative to internal zero)
  | Occupation number:      1.37280368
  | K-point:     565 at    0.416667    0.500000    0.500000 (in units of recip. lattice)

  Lowest unoccupied state (CBM) at    -4.74460835 eV (relative to internal zero)
  | Occupation number:      0.97675932
  | K-point:     493 at    0.333333    0.833333    0.500000 (in units of recip. lattice)

  ESTIMATED overall HOMO-LUMO gap:      0.01820124 eV between HOMO at k-point 565 and LUMO at k-point 493
  | This appears to be an indirect band gap.
  | Smallest direct gap :      0.03614273 eV for k_point 565 at    0.333333    0.833333    0.500000 (in units of recip. lattice)
  However, this system has fractional occupation numbers. Since we use a finite k-point grid,
  this material is metallic within the approximate finite broadening function (occupation_type)
  applied to determine the occupation numbers.

  Total energy components:
  | Sum of eigenvalues            :        -163.83698733 Ha       -4458.23125750 eV
  | XC energy correction          :         -19.59480967 Ha        -533.20190017 eV
  | XC potential correction       :          25.89014635 Ha         704.50672707 eV
  | Free-atom electrostatic energy:        -132.20394050 Ha       -3597.45225729 eV
  | Hartree energy correction     :           0.51427460 Ha          13.99412382 eV
  | Entropy correction            :          -0.00003948 Ha          -0.00107419 eV
  | ---------------------------
  | Total energy                  :        -289.23131655 Ha       -7870.38456406 eV
  | Total energy, T -> 0          :        -289.23135602 Ha       -7870.38563825 eV  <-- do not rely on this value for anything but (periodic) metals
  | Electronic free energy        :        -289.23139550 Ha       -7870.38671244 eV

  Derived energy quantities:
  | Kinetic energy                :         289.32312893 Ha        7872.88290596 eV
  | Electrostatic energy          :        -558.95963580 Ha      -15210.06556985 eV
  | Energy correction for multipole
  | error in Hartree potential    :           0.00017314 Ha           0.00471126 eV
  | Sum of eigenvalues per atom                           :       -4458.23125750 eV
  | Total energy (T->0) per atom                          :       -7870.38563825 eV  <-- do not rely on this value for anything but (periodic) metals
  | Electronic free energy per atom                       :       -7870.38671244 eV

  Self-consistency convergence accuracy:
  | Change of charge density      :  0.4595E-02
  | Change of sum of eigenvalues  :  0.1699E+01 eV
  | Change of total energy        :  0.6961E-03 eV

  End self-consistency iteration #     6       :  max(cpu_time)    wall_clock(cpu1)
  | Time for this iteration                    :        0.398 s           0.399 s
  | Charge density update                      :        0.099 s           0.100 s
  | Density mixing & preconditioning           :        0.011 s           0.011 s
  | Hartree multipole update                   :        0.000 s           0.001 s
  | Hartree multipole summation                :        0.131 s           0.130 s
  | Integration                                :        0.057 s           0.057 s
  | Solution of K.-S. eqns.                    :        0.099 s           0.099 s
  | Total energy evaluation                    :        0.000 s           0.000 s

  Partial memory accounting:
  | Current value for overall tracked memory usage on task 0  :           2.614 MB
  | Peak value for overall tracked memory usage on task 0     :           3.403 MB after allocating wave
  | Largest tracked array allocation on task 0 so far         :           2.500 MB  when allocating +KS_eigenvector_complex
  Note:  These values currently only include a subset of arrays which are explicitly tracked.
  The "true" memory usage will be greater.
------------------------------------------------------------

------------------------------------------------------------
          Begin self-consistency iteration #    7

  Date     :  20190514, Time     :  123617.762
------------------------------------------------------------
  Evaluating new KS density using the density matrix
  Evaluating density matrix
  Time summed over all CPUs for getting density from density matrix: real work        0.092 s, elapsed        0.092 s
  Integration grid: deviation in total charge (<rho> - N_e) =  -3.907985E-13
  Pulay mixing of updated and previous charge densities.

  Evaluating partitioned Hartree potential by multipole expansion.
  | Analytical far-field extrapolation by fixed multipoles:
  | Hartree multipole sum: apparent total charge =  -0.119538E-02
  Summing up the Hartree potential.
  Time summed over all CPUs for potential: real work        0.131 s, elapsed        0.131 s
  | RMS charge density error from multipole expansion :   0.138423E-02
  | Average real-space part of the electrostatic potential :     -0.34153285 eV

  Integrating Hamiltonian matrix: batch-based integration.
  Time summed over all CPUs for integration: real work        0.058 s, elapsed        0.058 s

  Updating Kohn-Sham eigenvalues, eigenvectors, occupation numbers, and Fermi level.
  Solving generalized eigenproblem

  Obtaining occupation numbers and chemical potential using ELSI.
  | Chemical potential (Fermi level):    -4.74535649eV
  What follows are estimated values for band gap, HOMO, LUMO, etc.
  | They are estimated on a discrete k-point grid and not necessarily exact.
  | For converged numbers, create a DOS and/or band structure plot on a denser k-grid.

  Highest occupied state (VBM) at     -4.76253143 eV (relative to internal zero)
  | Occupation number:      1.37287717
  | K-point:     565 at    0.416667    0.500000    0.500000 (in units of recip. lattice)

  Lowest unoccupied state (CBM) at    -4.74433223 eV (relative to internal zero)
  | Occupation number:      0.97688806
  | K-point:     460 at    0.333333    0.500000    0.833333 (in units of recip. lattice)

  ESTIMATED overall HOMO-LUMO gap:      0.01819920 eV between HOMO at k-point 565 and LUMO at k-point 460
  | This appears to be an indirect band gap.
  | Smallest direct gap :      0.03614443 eV for k_point 565 at    0.333333    0.500000    0.833333 (in units of recip. lattice)
  However, this system has fractional occupation numbers. Since we use a finite k-point grid,
  this material is metallic within the approximate finite broadening function (occupation_type)
  applied to determine the occupation numbers.

  Total energy components:
  | Sum of eigenvalues            :        -163.83650276 Ha       -4458.21807169 eV
  | XC energy correction          :         -19.59483634 Ha        -533.20262590 eV
  | XC potential correction       :          25.89018184 Ha         704.50769281 eV
  | Free-atom electrostatic energy:        -132.20394050 Ha       -3597.45225729 eV
  | Hartree energy correction     :           0.51378116 Ha          13.98069659 eV
  | Entropy correction            :          -0.00003947 Ha          -0.00107406 eV
  | ---------------------------
  | Total energy                  :        -289.23131660 Ha       -7870.38456547 eV
  | Total energy, T -> 0          :        -289.23135607 Ha       -7870.38563953 eV  <-- do not rely on this value for anything but (periodic) metals
  | Electronic free energy        :        -289.23139554 Ha       -7870.38671359 eV

  Derived energy quantities:
  | Kinetic energy                :         289.32356462 Ha        7872.89476172 eV
  | Electrostatic energy          :        -558.96004488 Ha      -15210.07670129 eV
  | Energy correction for multipole
  | error in Hartree potential    :           0.00017252 Ha           0.00469460 eV
  | Sum of eigenvalues per atom                           :       -4458.21807169 eV
  | Total energy (T->0) per atom                          :       -7870.38563953 eV  <-- do not rely on this value for anything but (periodic) metals
  | Electronic free energy per atom                       :       -7870.38671359 eV

  Self-consistency convergence accuracy:
  | Change of charge density      :  0.6053E-03
  | Change of sum of eigenvalues  :  0.1319E-01 eV
  | Change of total energy        : -0.1409E-05 eV

  End self-consistency iteration #     7       :  max(cpu_time)    wall_clock(cpu1)
  | Time for this iteration                    :        0.403 s           0.403 s
  | Charge density update                      :        0.101 s           0.101 s
  | Density mixing & preconditioning           :        0.011 s           0.012 s
  | Hartree multipole update                   :        0.000 s           0.000 s
  | Hartree multipole summation                :        0.133 s           0.133 s
  | Integration                                :        0.058 s           0.058 s
  | Solution of K.-S. eqns.                    :        0.098 s           0.098 s
  | Total energy evaluation                    :        0.000 s           0.000 s

  Partial memory accounting:
  | Current value for overall tracked memory usage on task 0  :           2.614 MB
  | Peak value for overall tracked memory usage on task 0     :           3.403 MB after allocating wave
  | Largest tracked array allocation on task 0 so far         :           2.500 MB  when allocating +KS_eigenvector_complex
  Note:  These values currently only include a subset of arrays which are explicitly tracked.
  The "true" memory usage will be greater.
------------------------------------------------------------

------------------------------------------------------------
          Begin self-consistency iteration #    8

  Date     :  20190514, Time     :  123618.165
------------------------------------------------------------
  Evaluating new KS density using the density matrix
  Evaluating density matrix
  Time summed over all CPUs for getting density from density matrix: real work        0.090 s, elapsed        0.090 s
  Integration grid: deviation in total charge (<rho> - N_e) =  -2.859935E-13
  Pulay mixing of updated and previous charge densities.

  Evaluating partitioned Hartree potential by multipole expansion.
  | Analytical far-field extrapolation by fixed multipoles:
  | Hartree multipole sum: apparent total charge =  -0.956582E-04
  Summing up the Hartree potential.
  Time summed over all CPUs for potential: real work        0.130 s, elapsed        0.130 s
  | RMS charge density error from multipole expansion :   0.135444E-02
  | Average real-space part of the electrostatic potential :     -0.34114188 eV

  Integrating Hamiltonian matrix: batch-based integration.
  Time summed over all CPUs for integration: real work        0.057 s, elapsed        0.057 s

  Updating Kohn-Sham eigenvalues, eigenvectors, occupation numbers, and Fermi level.
  Solving generalized eigenproblem

  Obtaining occupation numbers and chemical potential using ELSI.
  | Chemical potential (Fermi level):    -4.74068603eV
  What follows are estimated values for band gap, HOMO, LUMO, etc.
  | They are estimated on a discrete k-point grid and not necessarily exact.
  | For converged numbers, create a DOS and/or band structure plot on a denser k-grid.

  Highest occupied state (VBM) at     -4.75780007 eV (relative to internal zero)
  | Occupation number:      1.37165535
  | K-point:     662 at    0.500000    0.416667    0.500000 (in units of recip. lattice)

  Lowest unoccupied state (CBM) at    -4.73973842 eV (relative to internal zero)
  | Occupation number:      0.97861722
  | K-point:     637 at    0.500000    0.166667    0.666667 (in units of recip. lattice)

  ESTIMATED overall HOMO-LUMO gap:      0.01806165 eV between HOMO at k-point 662 and LUMO at k-point 637
  | This appears to be an indirect band gap.
  | Smallest direct gap :      0.03616596 eV for k_point 662 at    0.500000    0.166667    0.666667 (in units of recip. lattice)
  However, this system has fractional occupation numbers. Since we use a finite k-point grid,
  this material is metallic within the approximate finite broadening function (occupation_type)
  applied to determine the occupation numbers.

  Total energy components:
  | Sum of eigenvalues            :        -163.82863093 Ha       -4458.00386845 eV
  | XC energy correction          :         -19.59518905 Ha        -533.21222355 eV
  | XC potential correction       :          25.89065011 Ha         704.52043497 eV
  | Free-atom electrostatic energy:        -132.20394050 Ha       -3597.45225729 eV
  | Hartree energy correction     :           0.50579353 Ha          13.76334226 eV
  | Entropy correction            :          -0.00003940 Ha          -0.00107210 eV
  | ---------------------------
  | Total energy                  :        -289.23131684 Ha       -7870.38457206 eV
  | Total energy, T -> 0          :        -289.23135624 Ha       -7870.38564416 eV  <-- do not rely on this value for anything but (periodic) metals
  | Electronic free energy        :        -289.23139564 Ha       -7870.38671627 eV

  Derived energy quantities:
  | Kinetic energy                :         289.32723107 Ha        7872.99453087 eV
  | Electrostatic energy          :        -558.96335886 Ha      -15210.16687938 eV
  | Energy correction for multipole
  | error in Hartree potential    :           0.00016905 Ha           0.00460017 eV
  | Sum of eigenvalues per atom                           :       -4458.00386845 eV
  | Total energy (T->0) per atom                          :       -7870.38564416 eV  <-- do not rely on this value for anything but (periodic) metals
  | Electronic free energy per atom                       :       -7870.38671627 eV

  Self-consistency convergence accuracy:
  | Change of charge density      :  0.5706E-03
  | Change of sum of eigenvalues  :  0.2142E+00 eV
  | Change of total energy        : -0.6591E-05 eV

  End self-consistency iteration #     8       :  max(cpu_time)    wall_clock(cpu1)
  | Time for this iteration                    :        0.400 s           0.400 s
  | Charge density update                      :        0.100 s           0.100 s
  | Density mixing & preconditioning           :        0.011 s           0.012 s
  | Hartree multipole update                   :        0.000 s           0.000 s
  | Hartree multipole summation                :        0.132 s           0.132 s
  | Integration                                :        0.057 s           0.057 s
  | Solution of K.-S. eqns.                    :        0.099 s           0.099 s
  | Total energy evaluation                    :        0.000 s           0.000 s

  Partial memory accounting:
  | Current value for overall tracked memory usage on task 0  :           2.614 MB
  | Peak value for overall tracked memory usage on task 0     :           3.403 MB after allocating wave
  | Largest tracked array allocation on task 0 so far         :           2.500 MB  when allocating +KS_eigenvector_complex
  Note:  These values currently only include a subset of arrays which are explicitly tracked.
  The "true" memory usage will be greater.
------------------------------------------------------------

------------------------------------------------------------
          Begin self-consistency iteration #    9

  Date     :  20190514, Time     :  123618.565
------------------------------------------------------------
  Evaluating new KS density using the density matrix
  Evaluating density matrix
  Time summed over all CPUs for getting density from density matrix: real work        0.090 s, elapsed        0.090 s
  Integration grid: deviation in total charge (<rho> - N_e) =  -2.788880E-13
  Pulay mixing of updated and previous charge densities.

  Evaluating partitioned Hartree potential by multipole expansion.
  | Analytical far-field extrapolation by fixed multipoles:
  | Hartree multipole sum: apparent total charge =  -0.101467E-03
  Summing up the Hartree potential.
  Time summed over all CPUs for potential: real work        0.133 s, elapsed        0.133 s
  | RMS charge density error from multipole expansion :   0.135343E-02
  | Average real-space part of the electrostatic potential :     -0.34048482 eV

  Integrating Hamiltonian matrix: batch-based integration.
  Time summed over all CPUs for integration: real work        0.057 s, elapsed        0.057 s

  Updating Kohn-Sham eigenvalues, eigenvectors, occupation numbers, and Fermi level.
  Solving generalized eigenproblem

  Obtaining occupation numbers and chemical potential using ELSI.
  | Chemical potential (Fermi level):    -4.73993150eV
  What follows are estimated values for band gap, HOMO, LUMO, etc.
  | They are estimated on a discrete k-point grid and not necessarily exact.
  | For converged numbers, create a DOS and/or band structure plot on a denser k-grid.

  Highest occupied state (VBM) at     -4.75702420 eV (relative to internal zero)
  | Occupation number:      1.37122698
  | K-point:     574 at    0.416667    0.583333    0.500000 (in units of recip. lattice)

  Lowest unoccupied state (CBM) at    -4.73899752 eV (relative to internal zero)
  | Occupation number:      0.97892475
  | K-point:     456 at    0.333333    0.500000    0.333333 (in units of recip. lattice)

  ESTIMATED overall HOMO-LUMO gap:      0.01802668 eV between HOMO at k-point 574 and LUMO at k-point 456
  | This appears to be an indirect band gap.
  | Smallest direct gap :      0.03616971 eV for k_point 672 at    0.333333    0.500000    0.333333 (in units of recip. lattice)
  However, this system has fractional occupation numbers. Since we use a finite k-point grid,
  this material is metallic within the approximate finite broadening function (occupation_type)
  applied to determine the occupation numbers.

  Total energy components:
  | Sum of eigenvalues            :        -163.82711342 Ha       -4457.96257486 eV
  | XC energy correction          :         -19.59531158 Ha        -533.21555793 eV
  | XC potential correction       :          25.89081162 Ha         704.52483011 eV
  | Free-atom electrostatic energy:        -132.20394050 Ha       -3597.45225729 eV
  | Hartree energy correction     :           0.50423696 Ha          13.72098592 eV
  | Entropy correction            :          -0.00003939 Ha          -0.00107173 eV
  | ---------------------------
  | Total energy                  :        -289.23131692 Ha       -7870.38457404 eV
  | Total energy, T -> 0          :        -289.23135630 Ha       -7870.38564578 eV  <-- do not rely on this value for anything but (periodic) metals
  | Electronic free energy        :        -289.23139569 Ha       -7870.38671751 eV

  Derived energy quantities:
  | Kinetic energy                :         289.32816714 Ha        7873.02000270 eV
  | Electrostatic energy          :        -558.96417247 Ha      -15210.18901882 eV
  | Energy correction for multipole
  | error in Hartree potential    :           0.00016887 Ha           0.00459525 eV
  | Sum of eigenvalues per atom                           :       -4457.96257486 eV
[...]
  | Hartree multipole update                   :        0.000 s           0.000 s
  | Hartree multipole summation                :        0.131 s           0.131 s
  | Integration                                :        0.058 s           0.059 s
  | Solution of K.-S. eqns.                    :        0.098 s           0.098 s
  | Total energy evaluation                    :        0.000 s           0.000 s

  Partial memory accounting:
  | Current value for overall tracked memory usage on task 0  :           2.614 MB
  | Peak value for overall tracked memory usage on task 0     :           3.403 MB after allocating wave
  | Largest tracked array allocation on task 0 so far         :           2.500 MB  when allocating +KS_eigenvector_complex
  Note:  These values currently only include a subset of arrays which are explicitly tracked.
  The "true" memory usage will be greater.
------------------------------------------------------------

------------------------------------------------------------
          Begin self-consistency iteration #   11

  Date     :  20190514, Time     :  123619.371
------------------------------------------------------------
  Evaluating new KS density using the density matrix
  Evaluating density matrix
  Time summed over all CPUs for getting density from density matrix: real work        0.094 s, elapsed        0.094 s
  Integration grid: deviation in total charge (<rho> - N_e) =  -3.517187E-13
  Pulay mixing of updated and previous charge densities.

  Evaluating partitioned Hartree potential by multipole expansion.
  | Analytical far-field extrapolation by fixed multipoles:
  | Hartree multipole sum: apparent total charge =  -0.194429E-03
  Summing up the Hartree potential.
  Time summed over all CPUs for potential: real work        0.131 s, elapsed        0.131 s
  | RMS charge density error from multipole expansion :   0.135346E-02
  | Average real-space part of the electrostatic potential :     -0.34008408 eV

  Integrating Hamiltonian matrix: batch-based integration.
  Time summed over all CPUs for integration: real work        0.057 s, elapsed        0.057 s

  Updating Kohn-Sham eigenvalues, eigenvectors, occupation numbers, and Fermi level.
  Solving generalized eigenproblem

  Obtaining occupation numbers and chemical potential using ELSI.
  | Chemical potential (Fermi level):    -4.73994638eV
  What follows are estimated values for band gap, HOMO, LUMO, etc.
  | They are estimated on a discrete k-point grid and not necessarily exact.
  | For converged numbers, create a DOS and/or band structure plot on a denser k-grid.

  Highest occupied state (VBM) at     -4.75703751 eV (relative to internal zero)
  | Occupation number:      1.37119547
  | K-point:     662 at    0.500000    0.416667    0.500000 (in units of recip. lattice)

  Lowest unoccupied state (CBM) at    -4.73901314 eV (relative to internal zero)
  | Occupation number:      0.97894157
  | K-point:     259 at    0.166667    0.666667    0.500000 (in units of recip. lattice)

  ESTIMATED overall HOMO-LUMO gap:      0.01802437 eV between HOMO at k-point 662 and LUMO at k-point 259
  | This appears to be an indirect band gap.
  | Smallest direct gap :      0.03616984 eV for k_point 662 at    0.166667    0.666667    0.500000 (in units of recip. lattice)
  However, this system has fractional occupation numbers. Since we use a finite k-point grid,
  this material is metallic within the approximate finite broadening function (occupation_type)
  applied to determine the occupation numbers.

  Total energy components:
  | Sum of eigenvalues            :        -163.82713401 Ha       -4457.96313505 eV
  | XC energy correction          :         -19.59533368 Ha        -533.21615923 eV
  | XC potential correction       :          25.89084033 Ha         704.52561125 eV
  | Free-atom electrostatic energy:        -132.20394050 Ha       -3597.45225729 eV
  | Hartree energy correction     :           0.50425093 Ha          13.72136593 eV
  | Entropy correction            :          -0.00003938 Ha          -0.00107171 eV
  | ---------------------------
  | Total energy                  :        -289.23131693 Ha       -7870.38457438 eV
  | Total energy, T -> 0          :        -289.23135631 Ha       -7870.38564610 eV  <-- do not rely on this value for anything but (periodic) metals
  | Electronic free energy        :        -289.23139570 Ha       -7870.38671781 eV

  Derived energy quantities:
  | Kinetic energy                :         289.32813637 Ha        7873.01916549 eV
  | Electrostatic energy          :        -558.96411962 Ha      -15210.18758065 eV
  | Energy correction for multipole
  | error in Hartree potential    :           0.00016886 Ha           0.00459488 eV
  | Sum of eigenvalues per atom                           :       -4457.96313505 eV
  | Total energy (T->0) per atom                          :       -7870.38564610 eV  <-- do not rely on this value for anything but (periodic) metals
  | Electronic free energy per atom                       :       -7870.38671781 eV

  Self-consistency convergence accuracy:
  | Change of charge density      :  0.4661E-05
  | Change of sum of eigenvalues  : -0.1598E-02 eV
  | Change of total energy        :  0.1504E-06 eV

  End self-consistency iteration #    11       :  max(cpu_time)    wall_clock(cpu1)
  | Time for this iteration                    :        0.404 s           0.404 s
  | Charge density update                      :        0.103 s           0.103 s
  | Density mixing & preconditioning           :        0.011 s           0.011 s
  | Hartree multipole update                   :        0.000 s           0.000 s
  | Hartree multipole summation                :        0.132 s           0.133 s
  | Integration                                :        0.058 s           0.057 s
  | Solution of K.-S. eqns.                    :        0.100 s           0.100 s
  | Total energy evaluation                    :        0.000 s           0.000 s

  Partial memory accounting:
  | Current value for overall tracked memory usage on task 0  :           2.614 MB
  | Peak value for overall tracked memory usage on task 0     :           3.403 MB after allocating wave
  | Largest tracked array allocation on task 0 so far         :           2.500 MB  when allocating +KS_eigenvector_complex
  Note:  These values currently only include a subset of arrays which are explicitly tracked.
  The "true" memory usage will be greater.
------------------------------------------------------------

------------------------------------------------------------
          Begin self-consistency iteration #   12

  Date     :  20190514, Time     :  123619.775
------------------------------------------------------------
  Evaluating new KS density using the density matrix
  Evaluating density matrix
  Time summed over all CPUs for getting density from density matrix: real work        0.091 s, elapsed        0.091 s
  Integration grid: deviation in total charge (<rho> - N_e) =  -2.824407E-13
  Pulay mixing of updated and previous charge densities.

  Evaluating partitioned Hartree potential by multipole expansion.
  | Analytical far-field extrapolation by fixed multipoles:
  | Hartree multipole sum: apparent total charge =  -0.194586E-03
  Summing up the Hartree potential.
  Time summed over all CPUs for potential: real work        0.132 s, elapsed        0.133 s
  | RMS charge density error from multipole expansion :   0.135348E-02
  | Average real-space part of the electrostatic potential :     -0.34008920 eV

  Integrating Hamiltonian matrix: batch-based integration.
  Time summed over all CPUs for integration: real work        0.057 s, elapsed        0.057 s

  Updating Kohn-Sham eigenvalues, eigenvectors, occupation numbers, and Fermi level.
  Solving generalized eigenproblem

  Obtaining occupation numbers and chemical potential using ELSI.
  | Chemical potential (Fermi level):    -4.73995223eV
  What follows are estimated values for band gap, HOMO, LUMO, etc.
  | They are estimated on a discrete k-point grid and not necessarily exact.
  | For converged numbers, create a DOS and/or band structure plot on a denser k-grid.

  Highest occupied state (VBM) at     -4.75704350 eV (relative to internal zero)
  | Occupation number:      1.37119819
  | K-point:     566 at    0.416667    0.500000    0.583333 (in units of recip. lattice)

  Lowest unoccupied state (CBM) at    -4.73901890 eV (relative to internal zero)
  | Occupation number:      0.97893929
  | K-point:     456 at    0.333333    0.500000    0.333333 (in units of recip. lattice)

  ESTIMATED overall HOMO-LUMO gap:      0.01802460 eV between HOMO at k-point 566 and LUMO at k-point 456
  | This appears to be an indirect band gap.
  | Smallest direct gap :      0.03616982 eV for k_point 566 at    0.333333    0.500000    0.333333 (in units of recip. lattice)
  However, this system has fractional occupation numbers. Since we use a finite k-point grid,
  this material is metallic within the approximate finite broadening function (occupation_type)
  applied to determine the occupation numbers.

  Total energy components:
  | Sum of eigenvalues            :        -163.82714449 Ha       -4457.96342034 eV
  | XC energy correction          :         -19.59533286 Ha        -533.21613688 eV
  | XC potential correction       :          25.89083925 Ha         704.52558181 eV
  | Free-atom electrostatic energy:        -132.20394050 Ha       -3597.45225729 eV
  | Hartree energy correction     :           0.50426168 Ha          13.72165835 eV
  | Entropy correction            :          -0.00003938 Ha          -0.00107172 eV
  | ---------------------------
  | Total energy                  :        -289.23131693 Ha       -7870.38457435 eV
  | Total energy, T -> 0          :        -289.23135631 Ha       -7870.38564607 eV  <-- do not rely on this value for anything but (periodic) metals
  | Electronic free energy        :        -289.23139570 Ha       -7870.38671778 eV

  Derived energy quantities:
  | Kinetic energy                :         289.32813042 Ha        7873.01900358 eV
  | Electrostatic energy          :        -558.96411449 Ha      -15210.18744105 eV
  | Energy correction for multipole
  | error in Hartree potential    :           0.00016886 Ha           0.00459496 eV
  | Sum of eigenvalues per atom                           :       -4457.96342034 eV
  | Total energy (T->0) per atom                          :       -7870.38564607 eV  <-- do not rely on this value for anything but (periodic) metals
  | Electronic free energy per atom                       :       -7870.38671778 eV

  Self-consistency convergence accuracy:
  | Change of charge density      :  0.7942E-06
  | Change of sum of eigenvalues  : -0.2853E-03 eV
  | Change of total energy        :  0.3055E-07 eV

  Preliminary charge convergence reached. Turning off preconditioner.

  Writing Kohn-Sham eigenvalues.
  K-point:       1 at    0.000000    0.000000    0.000000 (in units of recip. lattice)

  State    Occupation    Eigenvalue [Ha]    Eigenvalue [eV]
      1       2.00000         -65.541381        -1783.47173
      2       2.00000          -5.129562         -139.58249
      3       2.00000          -3.544446          -96.44929
      4       2.00000          -3.544446          -96.44929
      5       2.00000          -3.544446          -96.44929
      6       2.00000          -0.441536          -12.01480
      7       0.00000          -0.105679           -2.87566
      8       0.00000          -0.105679           -2.87566
      9       0.00000          -0.105679           -2.87566
     10       0.00000           0.042722            1.16251

  What follows are estimated values for band gap, HOMO, LUMO, etc.
  | They are estimated on a discrete k-point grid and not necessarily exact.
  | For converged numbers, create a DOS and/or band structure plot on a denser k-grid.

  Highest occupied state (VBM) at     -4.75704350 eV (relative to internal zero)
  | Occupation number:      1.37119819
  | K-point:     566 at    0.416667    0.500000    0.583333 (in units of recip. lattice)

  Lowest unoccupied state (CBM) at    -4.73901890 eV (relative to internal zero)
  | Occupation number:      0.97893929
  | K-point:     456 at    0.333333    0.500000    0.333333 (in units of recip. lattice)

  ESTIMATED overall HOMO-LUMO gap:      0.01802460 eV between HOMO at k-point 566 and LUMO at k-point 456
  | This appears to be an indirect band gap.
  | Smallest direct gap :      0.03616982 eV for k_point 566 at    0.333333    0.500000    0.333333 (in units of recip. lattice)
  However, this system has fractional occupation numbers. Since we use a finite k-point grid,
  this material is metallic within the approximate finite broadening function (occupation_type)
  applied to determine the occupation numbers.

  Self-consistency cycle converged.

  End self-consistency iteration #    12       :  max(cpu_time)    wall_clock(cpu1)
  | Time for this iteration                    :        0.403 s           0.403 s
  | Charge density update                      :        0.100 s           0.100 s
  | Density mixing                             :        0.011 s           0.011 s
  | Hartree multipole update                   :        0.001 s           0.001 s
  | Hartree multipole summation                :        0.135 s           0.135 s
  | Integration                                :        0.057 s           0.057 s
  | Solution of K.-S. eqns.                    :        0.099 s           0.099 s
  | Total energy evaluation                    :        0.000 s           0.000 s

  Partial memory accounting:
  | Current value for overall tracked memory usage on task 0  :           2.614 MB
  | Peak value for overall tracked memory usage on task 0     :           3.403 MB after allocating wave
  | Largest tracked array allocation on task 0 so far         :           2.500 MB  when allocating +KS_eigenvector_complex
  Note:  These values currently only include a subset of arrays which are explicitly tracked.
  The "true" memory usage will be greater.
------------------------------------------------------------

  Energy and forces in a compact form:
  | Total energy uncorrected      :         -0.787038457435263E+04 eV
  | Total energy corrected        :         -0.787038564606793E+04 eV  <-- do not rely on this value for anything but (periodic) metals
  | Electronic free energy        :         -0.787038671778323E+04 eV

  ------------------------------------ 
  Start decomposition of the XC Energy 
  ------------------------------------ 
  X and C from original XC functional choice 
  Hartree-Fock Energy :          0.000000000 Ha              0.000000000 eV
  X Energy            :        -18.544081607 Ha           -504.610134809 eV
  C Energy            :         -1.051251254 Ha            -28.606002071 eV
  Total XC Energy     :        -19.595332861 Ha           -533.216136880 eV
  ------------------------------------ 
  LDA X and C from self-consistent density 
  X Energy LDA        :        -18.544081607 Ha           -504.610134809 eV
  C Energy LDA        :         -1.051251254 Ha            -28.606002071 eV
  ------------------------------------ 
  End decomposition of the XC Energy 
  ------------------------------------ 

------------------------------------------------------------

------------------------------------------------------------------------------
  Final output of selected total energy values:

  The following output summarizes some interesting total energy values
  at the end of a run (AFTER all relaxation, molecular dynamics, etc.).

  | Total energy of the DFT / Hartree-Fock s.c.f. calculation      :          -7870.384574353 eV
  | Final zero-broadening corrected energy (caution - metals only) :          -7870.385646068 eV
  | For reference only, the value of 1 Hartree used in FHI-aims is :             27.211384500 eV

  Before relying on these values, please be sure to understand exactly which
  total energy value is referred to by a given number. Different objects may
  all carry the same name 'total energy'. Definitions:

  Total energy of the DFT / Hartree-Fock s.c.f. calculation:
  | Note that this energy does not include ANY quantities calculated after the
  | s.c.f. cycle, in particular not ANY RPA, MP2, etc. many-body perturbation terms.

  Final zero-broadening corrected energy:
  | For metallic systems only, a broadening of the occupation numbers at the Fermi
  | level can be extrapolated back to zero broadening by an electron-gas inspired
  | formula. For all systems that are not real metals, this value can be
  | meaningless and should be avoided.

------------------------------------------------------------------------------
  Methods described in the following list of references were used in this FHI-aims run.
  If you publish the results, please make sure to cite these reference if they apply.
  FHI-aims is an academic code, and for our developers (often, Ph.D. students
  and postdocs), scientific credit in the community is essential.
  Thank you for helping us!

  For any use of FHI-aims, please cite:

    Volker Blum, Ralf Gehrke, Felix Hanke, Paula Havu, Ville Havu,
    Xinguo Ren, Karsten Reuter, and Matthias Scheffler
    'Ab initio molecular simulations with numeric atom-centered orbitals'
    Computer Physics Communications 180, 2175-2196 (2009)
    http://dx.doi.org/10.1016/j.cpc.2009.06.022


  For the real-space grid partitioning and parallelization used in this calculation, please cite:

    Ville Havu, Volker Blum, Paula Havu, and Matthias Scheffler,
    'Efficient O(N) integration for all-electron electronic structure calculation'
    'using numerically tabulated basis functions'
    Journal of Computational Physics 228, 8367-8379 (2009).
    http://dx.doi.org/10.1016/j.jcp.2009.08.008

  Of course, there are many other important community references, e.g., those cited in the
  above references. Our list is limited to references that describe implementations in the
  FHI-aims code. The reason is purely practical (length of this list) - please credit others as well.

------------------------------------------------------------
          Leaving FHI-aims.
          Date     :  20190514, Time     :  123620.183

          Computational steps:
          | Number of self-consistency cycles          :           12
          | Number of SCF (re)initializations          :            1

          Detailed time accounting                     :  max(cpu_time)    wall_clock(cpu1)
          | Total time                                 :        5.273 s           5.273 s
          | Preparation time                           :        0.105 s           0.105 s
          | Boundary condition initalization           :        0.035 s           0.035 s
          | Grid partitioning                          :        0.008 s           0.009 s
          | Preloading free-atom quantities on grid    :        0.001 s           0.001 s
          | Free-atom superposition energy             :        0.007 s           0.006 s
          | Total time for integrations                :        0.788 s           0.788 s
          | Total time for solution of K.-S. equations :        1.401 s           1.401 s
          | Total time for density update              :        1.205 s           1.206 s
          | Total time for mixing & preconditioning    :        0.135 s           0.136 s
          | Total time for Hartree multipole update    :        0.005 s           0.004 s
          | Total time for Hartree multipole sum       :        1.552 s           1.554 s
          | Total time for total energy evaluation     :        0.002 s           0.002 s
          | Total time for scaled ZORA corrections     :        0.000 s           0.000 s

 This is a stub MPI_ALLREDUCE call.
 You should not be here. Check your
 setting on the use_mpi variable, or
 link against true MPI-libraries.
