------------------------------------------------------------
          Invoking FHI-aims ...
          Version 171221_1
          Compiled on 2019/05/06 at 14:26:40 on host ffph0xx.

          When using FHI-aims, please cite the following reference:

          Volker Blum, Ralf Gehrke, Felix Hanke, Paula Havu,
          Ville Havu, Xinguo Ren, Karsten Reuter, and Matthias Scheffler,
          'Ab Initio Molecular Simulations with Numeric Atom-Centered Orbitals',
          Computer Physics Communications 180, 2175-2196 (2009)

          For any questions about FHI-aims, please visit the aimsclub website
          with its forums and wiki. Contributions to both the forums and the
          wiki are warmly encouraged - they are for you, and everyone is welcome there.

------------------------------------------------------------



  Date     :  20190509, Time     :  114720.868
  Time zero on CPU 1             :   0.673000000000000E-03  s.
  Internal wall clock time zero  :           326634440.868  s.

  FHI-aims created a unique identifier for this run for later identification
  aims_uuid : 991D790A-90E6-4D13-A7B0-7724C2342C0D


  Performing system and environment tests:
  *** Environment variable OMP_NUM_THREADS is not set
  *** For performance reasons you might want to set it to 1
  | Stacksize not measured: no C compiler

  Obtaining array dimensions for all initial allocations:
  
  -----------------------------------------------------------------------
  Parsing control.in (first pass over file, find array dimensions only).
  The contents of control.in will be repeated verbatim below
  unless switched off by setting 'verbatim_writeout .false.' .
  in the first line of control.in .
  -----------------------------------------------------------------------
  
  # Sample input file for the relaxation
  # of the H3O+ molecule
  #######################################
    xc  pw-lda
    charge 1.0
    spin none
  
  #######Iteration limit####################
    sc_iter_limit 100
  
  #######Relaxation######################
    ######################relax_geometry trm 1E-3
  
  #######Species#########################
  ################################################################################
  #
  #  FHI-aims code project
  #  VB, Fritz-Haber Institut, 2009
  #
  #  Suggested "light" defaults for H atom (to be pasted into control.in file)
  #  Be sure to double-check any results obtained with these settings for post-processing,
  #  e.g., with the "tight" defaults and larger basis sets.
  #
  ################################################################################
    species        H
  #     global species definitions
      nucleus             1
      mass                1.00794
  #
      l_hartree           4
  #
      cut_pot             3.5  1.5  1.0
      basis_dep_cutoff    1e-4
  #
      radial_base         24 5.0
      radial_multiplier   1
      angular_grids       specified
        division   0.2421   50
        division   0.3822  110
        division   0.4799  194
        division   0.5341  302
  #      division   0.5626  434
  #      division   0.5922  590
  #      division   0.6542  770
  #      division   0.6868 1202
  #      outer_grid  770
        outer_grid  302
  ################################################################################
  #
  #  Definition of "minimal" basis
  #
  ################################################################################
  #     valence basis states
      valence      1  s   1.
  #     ion occupancy
      ion_occ      1  s   0.5
  ################################################################################
  #
  #  Suggested additional basis functions. For production calculations,
  #  uncomment them one after another (the most important basis functions are
  #  listed first).
  #
  #  Basis constructed for dimers: 0.5 A, 0.7 A, 1.0 A, 1.5 A, 2.5 A
  #
  ################################################################################
  #  "First tier" - improvements: -1014.90 meV to -62.69 meV
       hydro 2 s 2.1
       hydro 2 p 3.5
  #  "Second tier" - improvements: -12.89 meV to -1.83 meV
  #     hydro 1 s 0.85
  #     hydro 2 p 3.7
  #     hydro 2 s 1.2
  #     hydro 3 d 7
  #  "Third tier" - improvements: -0.25 meV to -0.12 meV
  #     hydro 4 f 11.2
  #     hydro 3 p 4.8
  #     hydro 4 d 9
  #     hydro 3 s 3.2
  ################################################################################
  #
  #  FHI-aims code project
  #  VB, Fritz-Haber Institut, 2009
  #
  #  Suggested "light" defaults for O atom (to be pasted into control.in file)
  #  Be sure to double-check any results obtained with these settings for post-processing,
  #  e.g., with the "tight" defaults and larger basis sets.
  #
  ################################################################################
    species        O
  #     global species definitions
      nucleus             8
      mass                15.9994
  #
      l_hartree           4
  #
      cut_pot             3.5  1.5  1.0
      basis_dep_cutoff    1e-4
  #
      radial_base         36 5.0
      radial_multiplier   1
       angular_grids specified
        division   0.2659   50
        division   0.4451  110
        division   0.6052  194
        division   0.7543  302
  #      division   0.8014  434
  #      division   0.8507  590
  #      division   0.8762  770
  #      division   0.9023  974
  #      division   1.2339 1202
  #      outer_grid 974
        outer_grid 302
  ################################################################################
  #
  #  Definition of "minimal" basis
  #
  ################################################################################
  #     valence basis states
      valence      2  s   2.
      valence      2  p   4.
  #     ion occupancy
      ion_occ      2  s   1.
      ion_occ      2  p   3.
  ################################################################################
  #
  #  Suggested additional basis functions. For production calculations,
  #  uncomment them one after another (the most important basis functions are
  #  listed first).
  #
  #  Constructed for dimers: 1.0 A, 1.208 A, 1.5 A, 2.0 A, 3.0 A
  #
  ################################################################################
  #  "First tier" - improvements: -699.05 meV to -159.38 meV
       hydro 2 p 1.8
       hydro 3 d 7.6
       hydro 3 s 6.4
  #  "Second tier" - improvements: -49.91 meV to -5.39 meV
  #     hydro 4 f 11.6
  #     hydro 3 p 6.2
  #     hydro 3 d 5.6
  #     hydro 5 g 17.6
  #     hydro 1 s 0.75
  #  "Third tier" - improvements: -2.83 meV to -0.50 meV
  #     ionic 2 p auto
  #     hydro 4 f 10.8
  #     hydro 4 d 4.7
  #     hydro 2 s 6.8
  #  "Fourth tier" - improvements: -0.40 meV to -0.12 meV
  #     hydro 3 p 5
  #     hydro 3 s 3.3
  #     hydro 5 g 15.6
  #     hydro 4 f 17.6
  #     hydro 4 d 14
  # Further basis functions - -0.08 meV and below
  #     hydro 3 s 2.1
  #     hydro 4 d 11.6
  #     hydro 3 p 16
  #     hydro 2 s 17.2
  /afs/ictp.it/public/shared/smr2475/fhi-aims/species_defaults/light/01_H_default
  compute_forces .true.
  final_forces_cleaned .true.
  output dipole
  
  -----------------------------------------------------------------------
  Completed first pass over input file control.in .
  -----------------------------------------------------------------------
  
  
  -----------------------------------------------------------------------
  Parsing geometry.in (first pass over file, find array dimensions only).
  The contents of geometry.in will be repeated verbatim below
  unless switched off by setting 'verbatim_writeout .false.' .
  in the first line of geometry.in .
  -----------------------------------------------------------------------
  
  #
  # temporary structure-file for finite-difference calculation of forces
  # displacement   0.0020 of \# atom     3 direction     1
  #
  atom    0.00000000    0.00001836    0.19077151   O
  atom    0.82425584   -0.47587261    0.47423563   H
  atom   -0.82425584   -0.47587261    0.47423563   H
  atom   -0.00000000    0.95372688    0.47446636   H
  
  -----------------------------------------------------------------------
  Completed first pass over input file geometry.in .
  -----------------------------------------------------------------------
  

  Basic array size parameters:
  | Number of species                 :        2
  | Number of atoms                   :        4
  | Max. basis fn. angular momentum   :        2
  | Max. atomic/ionic basis occupied n:        2
  | Max. number of basis fn. types    :        2
  | Max. radial fns per species/type  :        3
  | Max. logarithmic grid size        :     1301
  | Max. radial integration grid size :       36
  | Max. angular integration grid size:      302
  | Max. angular grid division number :        8
  | Radial grid for Hartree potential :     1301
  | Number of spin channels           :        1

------------------------------------------------------------
          Reading file control.in.
------------------------------------------------------------
  XC: Using Perdew-Wang parametrisation of Ceperley-Alder LDA.
  Charged system requested: Charge =   0.100000E+01.
  Spin treatment: No spin polarisation.
  Maximum number of s.-c. iterations  :   100

  Reading configuration options for species H                   .
  | Found nuclear charge :   1.0000
  | Found atomic mass :    1.0079400000000001      amu
  | Found l_max for Hartree potential  :   4
  | Found cutoff potl. onset [A], width [A], scale factor :    3.50000    1.50000    1.00000
  | Threshold for basis-dependent cutoff potential is   0.100000E-03
  | Found data for basic radial integration grid :    24 points, outermost radius =    5.000 A
  | Found multiplier for basic radial grid :   1
  | Found angular grid specification: user-specified.
  | Specified grid contains     5 separate shells.
  | Check grid settings after all constraints further below.
  | Found free-atom valence shell :  1 s   1.000
  | No ionic wave fns used. Skipping ion_occ.
  | Found hydrogenic basis function :  2 s   2.100
  | Found hydrogenic basis function :  2 p   3.500
  Species H                   : Missing cutoff potential type.
  Defaulting to exp(1/x)/(1-x)^2 type cutoff potential.
  Species H : No 'logarithmic' tag. Using default grid for free atom:
  | Default logarithmic grid data [bohr] : 0.1000E-03 0.1000E+03 0.1012E+01
  Species H : On-site basis accuracy parameter (for Gram-Schmidt orthonormalisation) not specified.
  Using default value basis_acc =  0.1000000E-03.
  Species H                   : Using default innermost maximum threshold i_radial=  2 for radial functions.
  Species H                   : Default cutoff onset for free atom density etc. : 0.35000000E+01 AA.
  Species H                   : Basic radial grid will be enhanced according to radial_multiplier =   1, to contain    24 grid points.

  Reading configuration options for species O                   .
  | Found nuclear charge :   8.0000
  | Found atomic mass :    15.999400000000000      amu
  | Found l_max for Hartree potential  :   4
  | Found cutoff potl. onset [A], width [A], scale factor :    3.50000    1.50000    1.00000
  | Threshold for basis-dependent cutoff potential is   0.100000E-03
  | Found data for basic radial integration grid :    36 points, outermost radius =    5.000 A
  | Found multiplier for basic radial grid :   1
  | Found angular grid specification: user-specified.
  | Specified grid contains     5 separate shells.
  | Check grid settings after all constraints further below.
  | Found free-atom valence shell :  2 s   2.000
  | Found free-atom valence shell :  2 p   4.000
  | No ionic wave fns used. Skipping ion_occ.
  | No ionic wave fns used. Skipping ion_occ.
  | Found hydrogenic basis function :  2 p   1.800
  | Found hydrogenic basis function :  3 d   7.600
  | Found hydrogenic basis function :  3 s   6.400
  Species O                   : Missing cutoff potential type.
  Defaulting to exp(1/x)/(1-x)^2 type cutoff potential.
  Species O : No 'logarithmic' tag. Using default grid for free atom:
  | Default logarithmic grid data [bohr] : 0.1000E-03 0.1000E+03 0.1012E+01
  Species O : On-site basis accuracy parameter (for Gram-Schmidt orthonormalisation) not specified.
  Using default value basis_acc =  0.1000000E-03.
  Species O                   : Using default innermost maximum threshold i_radial=  2 for radial functions.
  Species O                   : Default cutoff onset for free atom density etc. : 0.35000000E+01 AA.
  Species O                   : Basic radial grid will be enhanced according to radial_multiplier =   1, to contain    36 grid points.
  Forces will be computed.
  Cleaning forces before final output.
  Dipole moment will be written out.

  Finished reading input file 'control.in'. Consistency checks are next.

  MPI_IN_PLACE appears to work with this MPI implementation.
  | Keeping use_mpi_in_place .true. (see manual).
  Target number of points in a grid batch is not set. Defaulting to  100
  Method for grid partitioning is not set. Defaulting to 'maxmin' partitioning.
  Batch size limit is not set. Defaulting to    200
  By default, will store active basis functions for each batch.
  If in need of memory, prune_basis_once .false. can be used to disable this option.
  communication_type for Hartree potential was not specified.
  Defaulting to calc_hartree .
 * Attention: 
 * You may want to set distributed_spline_storage to .true. in order to save memory.
 * This doesn't harm performance and is perfectly ok unless:
 * - you get error messages in postprocessing (about missing atoms in get_rho_multipole_spl)
 * - you need full spline storage in hirshfeld_analysis
  Defaulting to Pulay charge density mixer.
  Pulay mixer: Number of relevant iterations not set.
  Defaulting to    8 iterations.
  Pulay mixer: Number of initial linear mixing iterations not set.
  Defaulting to    0 iterations.
  Work space size for distributed Hartree potential not set.
  Defaulting to   0.200000E+03 MB.
  Mixing parameter for charge density mixing has not been set.
  Using default: charge_mix_param =     0.0500.
  The mixing parameter will be adjusted in iteration number     2 of the first full s.c.f. cycle only.
  Algorithm-dependent basis array size parameters:
  | n_max_pulay                         :        8
 * Notice: The s.c.f. convergence criterion sc_accuracy_rho was not provided.
 * We used to stop in this case, and ask the user to provide reasonable
 * scf convergence criteria. However, this led some users to employ criteria
 * that led to extremely long run times, e.g., for simple relaxation.
 * We now preset a default value for sc_accuracy_rho if it is not set.
 * You may still wish to check if this setting is too tight or too loose for your needs.
 * Based on n_atoms, FHI-aims chose sc_accuracy_rho =  0.100000E-05 .
  Presetting      1001 iterations before the initial mixing cycle
  is restarted anyway using the sc_init_iter criterion / keyword.
  Presetting a factor      1.000 between actual scf density residual
  and density convergence criterion sc_accuracy_rho below which sc_init_iter
  takes no effect.
 * No s.c.f. convergence criteria (sc_accuracy_*) were provided in control.in.
 * The run will proceed with a reasonable default guess, but please check whether.
 * the s.c.f. cycles seem to take too much or too little time.
  Geometry relaxation not requested: no relaxation will be performed.
  Force calculation: scf convergence accuracy of forces not set.
  Defaulting to 'sc_accuracy_forces not_checked'.
  Handling of forces: Unphysical translation and rotation will be removed from forces.
  No accuracy limit for integral partition fn. given. Defaulting to  0.1000E-14.
  No threshold value for u(r) in integrations given. Defaulting to  0.1000E-05.
  No occupation type (smearing scheme) given. Defaulting to Gaussian broadening, width =  0.1000E-01 eV.
  The width will be adjusted in iteration number     2 of the first full s.c.f. cycle only.
  S.C.F. convergence parameters will be adjusted in iteration number     2 of the first full s.c.f. cycle only.
  No accuracy for occupation numbers given. Defaulting to  0.1000E-12.
  No threshold value for occupation numbers given. Defaulting to  0.0000E+00.
  No accuracy for fermi level given. Defaulting to  0.1000E-19.
  Maximum # of iterations to find E_F not set. Defaulting to  200.
  Preferred method for the eigenvalue solver ('KS_method') not specified in 'control.in'.
  Defaulting to serial version, 'lapack_fast'.
  Will not use alltoall communication since running on < 1024 CPUs.
  Threshold for basis singularities not set.
  Default threshold for basis singularities:  0.1000E-04
  partition_type (choice of integration weights) for integrals was not specified.
  | Using a version of the partition function of Stratmann and coworkers ('stratmann_smoother').
  | At each grid point, the set of atoms used to build the partition table is smoothly restricted to
  | only those atoms whose free-atom density would be non-zero at that grid point.
  Partitioning for Hartree potential was not defined. Using partition_type for integrals.
  | Adjusted default value of keyword multip_moments_threshold to:       0.10000000E-11
  | This value may affect high angular momentum components of the Hartree potential in periodic systems.
  No q(lm)/r^(l+1) cutoff set for long-range Hartree potential.
  | Using default value of  0.100000E-09 .
  | Verify using the multipole_threshold keyword.
  Defaulting to new monopole extrapolation.
  Density update method: automatic selection selected.
------------------------------------------------------------


------------------------------------------------------------
          Reading geometry description geometry.in.
------------------------------------------------------------
 * Warning: Initial charge and total charge of the system are inconsistent.
 * Selected charge in control.in:     1.0000* Sum of initial charges in geometry.in:     0.0000
 * Warning! You did not set the 'relativistic' flag in input file 'control.in'.
 * Since you are not attempting to treat any elements beyond Ca(Z=20), FHI-aims
 * will default to 'relativistic none'.
 * You must ensure that this is really what you want!!
 * For example, DO NOT compute total-energy differences between results from
 * different settings of the 'relativistic' flag.
  Input structure read successfully.
  The structure contains        4 atoms,  and a total of         10.000 electrons.

  Input geometry:
  | No unit cell requested.
  | Atomic structure:
  |       Atom                x [A]            y [A]            z [A]
  |    1: Species O             0.00000000        0.00001836        0.19077151
  |    2: Species H             0.82425584       -0.47587261        0.47423563
  |    3: Species H            -0.82425584       -0.47587261        0.47423563
  |    4: Species H            -0.00000000        0.95372688        0.47446636
  |

  | The smallest distance between any two atoms is         0.99308701 AA.
  |
  | The first atom of this pair is atom number                      1 .
  | The second atom of this pair is atom number                     2 .

  Number of empty states per atom not set in control.in - providing a guess from actual geometry.
  | Total number of empty states used during s.c.f. cycle:        8
  If you use a very high smearing, use empty_states (per atom!) in control.in to increase this value.

  Structure-dependent array size parameters: 
  | Maximum number of distinct radial functions  :        9
  | Maximum number of basis functions            :       29
  | Number of Kohn-Sham states (occupied + empty):       13
------------------------------------------------------------

------------------------------------------------------------
          Preparing all fixed parts of the calculation.
------------------------------------------------------------
  Determining machine precision:
     2.2250738585072014E-308
  Setting up grids for atomic and cluster calculations.

  Creating wave function, potential, and density for free atoms.

  Species: H

  List of occupied orbitals and eigenvalues:
    n    l              occ      energy [Ha]    energy [eV]
    1    0           1.0000        -0.232375        -6.3233


  Species: O

  List of occupied orbitals and eigenvalues:
    n    l              occ      energy [Ha]    energy [eV]
    1    0           2.0000       -18.757744      -510.4242
    2    0           2.0000        -0.870917       -23.6989
    2    1           4.0000        -0.337950        -9.1961

  Creating fixed part of basis set: Ionic, confined, hydrogenic.

  H                    hydrogenic:

  List of hydrogenic basis orbitals: 
    n    l      effective z      eigenvalue [eV]  inner max. [A]     outer max. [A]     outer radius [A]   
    2    0         2.100000       -14.9728           0.193243           1.317208           4.583499
    2    1         3.500000       -41.6669           0.602369           0.602369           3.723403


  O                    hydrogenic:

  List of hydrogenic basis orbitals: 
    n    l      effective z      eigenvalue [eV]  inner max. [A]     outer max. [A]     outer radius [A]   
    2    1         1.800000       -10.9749           1.164242           1.164242           4.578029
    3    2         7.600000       -87.3180           0.624125           0.624125           3.251020
    3    0         6.400000       -61.9207           0.061167           1.081902           4.001998


  Adding cutoff potential to free-atom effective potential.
  Creating atomic-like basis functions for current effective potential.

  Species H                   :

  List of atomic basis orbitals and eigenvalues:
    n    l      energy [Ha]    energy [eV]    outer radius [A]
    1    0        -0.232375        -6.3233       4.527807


  Species O                   :

  List of atomic basis orbitals and eigenvalues:
    n    l      energy [Ha]    energy [eV]    outer radius [A]
    1    0       -18.757744      -510.4242       1.433179
    2    0        -0.870917       -23.6989       4.413171
    2    1        -0.337950        -9.1961       4.522403

  Assembling full basis from fixed parts.
  | Species H :   atomic orbital   1 s accepted.
  | Species H :    hydro orbital   2 s accepted.
  | Species H :    hydro orbital   2 p accepted.
  | Species O :   atomic orbital   1 s accepted.
  | Species O :    hydro orbital   3 s accepted.
  | Species O :   atomic orbital   2 s accepted.
  | Species O :   atomic orbital   2 p accepted.
  | Species O :    hydro orbital   2 p accepted.
  | Species O :    hydro orbital   3 d accepted.

  Basis size parameters after reduction:
  | Total number of radial functions:        9
  | Total number of basis functions :       29

  Per-task memory consumption for arrays in subroutine allocate_ext:
  |           2.249476MB.
  Testing on-site integration grid accuracy.
  |  Species  Function  <phi|h_atom|phi> (log., in eV)  <phi|h_atom|phi> (rad., in eV)
           1        1                 -6.3245358373                 -6.3232436907
           1        2                 14.1326137532                 14.1384481100
           1        3                 25.3627025200                 25.3628451197
           2        4               -510.4241781769               -510.4240769412
           2        5                 14.9072942218                 14.9072945276
           2        6                -21.2004736467                -21.2005650544
           2        7                 -9.1962086499                 -9.1963509828
           2        8                  8.1896755011                  8.1702200086
           2        9                 45.7920584945                 45.7920228528

  Preparing densities etc. for the partition functions (integrals / Hartree potential).

  Preparations completed.
  max(cpu_time)          :      0.048 s.
  Wall clock time (cpu1) :      0.048 s.
------------------------------------------------------------

------------------------------------------------------------
          Begin self-consistency loop: Initialization.

          Date     :  20190509, Time     :  114720.918
------------------------------------------------------------

  Initializing index lists of integration centers etc. from given atomic structure:
  | Number of centers in hartree potential         :         4
  | Number of centers in hartree multipole         :         4
  | Number of centers in electron density summation:         4
  | Number of centers in basis integrals           :         4
  | Number of centers in integrals                 :         4
  | Number of centers in hamiltonian               :         4
  Partitioning the integration grid into batches with maxmin method.
  | Maximal weight for a single point:     1.000
  | Minimal weight for a single point:     0.000
  | Number of batches:      256
  | Maximal batch size:      83
  | Minimal batch size:      78
  | Average batch size:      80.719
  | Standard deviation of batch sizes:       1.484
  Initializing partition tables, free-atom densities, potentials, etc. across the integration grid (initialize_grid_storage).
  | initialize_grid_storage: Actual outermost partition radius vs. multipole_radius_free
  | (-- VB: in principle, multipole_radius_free should be larger, hence this output)
  | Species        1: Confinement radius =              4.999999999999999 AA, multipole_radius_free =              5.054417573612229 AA.
  | Species        1: outer_partition_radius set to              5.054417573612229 AA .
  | Species        2: Confinement radius =              4.999999999999999 AA, multipole_radius_free =              5.048384829883283 AA.
  | Species        2: outer_partition_radius set to              5.048384829883283 AA .
  | Original list of interatomic distances with           4 x          4 entries is created.
  | Net number of integration points:    20664
  | of which are non-zero points    :    18390
  Renormalizing the initial density to the exact electron count on the 3D integration grid.
  | Initial density: Formal number of electrons (from input files) :      11.0000000000
  | Integrated number of electrons on 3D grid     :      10.9999423286
  | Charge integration error                      :      -0.0000576714
  | Normalization factor for density and gradient :       1.0000052429
  Obtaining max. number of non-zero basis functions in each batch (get_n_compute_maxes).
  | Maximal number of non-zero basis functions:       29 in task     0
  Selecting the method for density update.
  Loop over occupied states selected for charge density update.
  Allocating        0.003 MB for KS_eigenvector
  Integrating Hamiltonian matrix: batch-based integration.
  Time summed over all CPUs for integration: real work        0.030 s, elapsed        0.030 s
  Integrating overlap matrix.
  Time summed over all CPUs for integration: real work        0.013 s, elapsed        0.014 s

  Updating Kohn-Sham eigenvalues, eigenvectors, occupation numbers, and Fermi level.
  Solving generalized eigenproblem
  Updating Kohn-Sham eigenvalues and eigenfunctions.
  Transforming overlap matrix and checking for singularities.
  Overlap matrix is nonsingular:
  | Lowest eigenvalue:  0.148334E-01
  Solving real generalised eigenvalue problem by standard LAPACK (fast)

  Obtaining occupation numbers and chemical potential using ELSI.
  | Chemical potential (Fermi level):    -6.77689649eV
  Writing Kohn-Sham eigenvalues.

  State    Occupation    Eigenvalue [Ha]    Eigenvalue [eV]
      1       2.00000         -18.911185         -514.59951
      2       2.00000          -1.150395          -31.30384
      3       2.00000          -0.670751          -18.25205
      4       2.00000          -0.670225          -18.23776
      5       2.00000          -0.507208          -13.80183
      6       0.00000          -0.090597           -2.46528
      7       0.00000           0.001994            0.05426
      8       0.00000           0.002534            0.06894
      9       0.00000           0.199839            5.43789
     10       0.00000           0.264772            7.20480
     11       0.00000           0.265122            7.21433
     12       0.00000           0.466650           12.69820
     13       0.00000           0.668764           18.19799

  Highest occupied state (VBM) at    -13.80183429 eV
  | Occupation number:      2.00000000

  Lowest unoccupied state (CBM) at    -2.46527501 eV
  | Occupation number:      0.00000000

  Overall HOMO-LUMO gap:     11.33655928 eV.
  Calculating total energy contributions from superposition of free atom densities.

  Total energy components:
  | Sum of eigenvalues            :         -43.81952708 Ha       -1192.39000009 eV
  | XC energy correction          :          -8.86303332 Ha        -241.17540738 eV
  | XC potential correction       :          11.67055185 Ha         317.57187382 eV
  | Free-atom electrostatic energy:         -35.30116867 Ha        -960.59367385 eV
  | Hartree energy correction     :          -0.00000000 Ha          -0.00000000 eV
  | Entropy correction            :          -0.00000000 Ha          -0.00000000 eV
  | ---------------------------
  | Total energy                  :         -76.31317721 Ha       -2076.58720750 eV
  | Total energy, T -> 0          :         -76.31317721 Ha       -2076.58720750 eV  <-- do not rely on this value for anything but (periodic) metals
  | Electronic free energy        :         -76.31317721 Ha       -2076.58720750 eV

  Derived energy quantities:
  | Kinetic energy                :          75.66313425 Ha        2058.89863867 eV
  | Electrostatic energy          :        -143.11327815 Ha       -3894.31043879 eV
  | Energy correction for multipole
  | error in Hartree potential    :           0.00000000 Ha           0.00000000 eV
  | Sum of eigenvalues per atom                           :        -298.09750002 eV
  | Total energy (T->0) per atom                          :        -519.14680187 eV  <-- do not rely on this value for anything but (periodic) metals
  | Electronic free energy per atom                       :        -519.14680187 eV
  Initialize hartree_potential_storage
  Max. number of atoms included in rho_multipole:            4

  End scf initialization - timings             :  max(cpu_time)    wall_clock(cpu1)
  | Time for scf. initialization               :        0.084 s           0.084 s
  | Boundary condition initialization          :        0.000 s           0.000 s
  | Integration                                :        0.043 s           0.044 s
  | Solution of K.-S. eqns.                    :        0.001 s           0.000 s
  | Grid partitioning                          :        0.015 s           0.015 s
  | Preloading free-atom quantities on grid    :        0.001 s           0.001 s
  | Free-atom superposition energy             :        0.012 s           0.012 s
  | Total energy evaluation                    :        0.000 s           0.000 s

  Partial memory accounting:
  | Current value for overall tracked memory usage on task 0  :           0.017 MB
  | Peak value for overall tracked memory usage on task 0     :           0.075 MB after allocating wave
  | Largest tracked array allocation on task 0 so far         :           0.019 MB  when allocating H_times_psi
  Note:  These values currently only include a subset of arrays which are explicitly tracked.
  The "true" memory usage will be greater.
------------------------------------------------------------

------------------------------------------------------------
          Begin self-consistency iteration #    1

  Date     :  20190509, Time     :  114721.002
------------------------------------------------------------
  Evaluating new KS density.
  Integration grid: deviation in total charge (<rho> - N_e) =   8.881784E-15
  Pulay mixing of updated and previous charge densities.

  Evaluating partitioned Hartree potential by multipole expansion.
  | Analytical far-field extrapolation by fixed multipoles:
  | Hartree multipole sum: apparent total charge =   0.499224E-01
  Summing up the Hartree potential.
  Time summed over all CPUs for potential: real work        0.018 s, elapsed        0.018 s
  | RMS charge density error from multipole expansion :   0.485374E-03

  Integrating Hamiltonian matrix: batch-based integration.
  Time summed over all CPUs for integration: real work        0.028 s, elapsed        0.028 s

  Updating Kohn-Sham eigenvalues, eigenvectors, occupation numbers, and Fermi level.
  Solving generalized eigenproblem
  Updating Kohn-Sham eigenvalues and eigenfunctions.
  Solving real generalised eigenvalue problem by standard LAPACK (fast)

  Obtaining occupation numbers and chemical potential using ELSI.
  | Chemical potential (Fermi level):    -6.99488438eV
  Writing Kohn-Sham eigenvalues.

  State    Occupation    Eigenvalue [Ha]    Eigenvalue [eV]
      1       2.00000         -18.901657         -514.34026
      2       2.00000          -1.154548          -31.41686
      3       2.00000          -0.676191          -18.40008
      4       2.00000          -0.675676          -18.38608
      5       2.00000          -0.509857          -13.87391
      6       0.00000          -0.100902           -2.74569
      7       0.00000          -0.007648           -0.20810
      8       0.00000          -0.007097           -0.19312
      9       0.00000           0.192713            5.24397
     10       0.00000           0.254901            6.93621
     11       0.00000           0.255257            6.94590
     12       0.00000           0.456006           12.40855
     13       0.00000           0.659890           17.95653

  Highest occupied state (VBM) at    -13.87391191 eV
  | Occupation number:      2.00000000

  Lowest unoccupied state (CBM) at    -2.74569308 eV
  | Occupation number:      0.00000000

  Overall HOMO-LUMO gap:     11.12821883 eV.

  Total energy components:
  | Sum of eigenvalues            :         -43.83585776 Ha       -1192.83438037 eV
  | XC energy correction          :          -8.86615954 Ha        -241.26047642 eV
  | XC potential correction       :          11.67489153 Ha         317.68996237 eV
  | Free-atom electrostatic energy:         -35.30116867 Ha        -960.59367385 eV
  | Hartree energy correction     :           0.03290716 Ha           0.89544931 eV
  | Entropy correction            :          -0.00000000 Ha          -0.00000000 eV
  | ---------------------------
  | Total energy                  :         -76.29538728 Ha       -2076.10311895 eV
  | Total energy, T -> 0          :         -76.29538728 Ha       -2076.10311895 eV  <-- do not rely on this value for anything but (periodic) metals
  | Electronic free energy        :         -76.29538728 Ha       -2076.10311895 eV

  Derived energy quantities:
  | Kinetic energy                :          75.75203840 Ha        2061.31784364 eV
  | Electrostatic energy          :        -143.18126614 Ha       -3896.16048618 eV
  | Energy correction for multipole
  | error in Hartree potential    :           0.00050659 Ha           0.01378499 eV
  | Sum of eigenvalues per atom                           :        -298.20859509 eV
  | Total energy (T->0) per atom                          :        -519.02577974 eV  <-- do not rely on this value for anything but (periodic) metals
  | Electronic free energy per atom                       :        -519.02577974 eV

  Self-consistency convergence accuracy:
  | Change of charge density      :  0.2571E+00
  | Change of sum of eigenvalues  : -0.4444E+00 eV
  | Change of total energy        :  0.4841E+00 eV

  End self-consistency iteration #     1       :  max(cpu_time)    wall_clock(cpu1)
  | Time for this iteration                    :        0.061 s           0.061 s
  | Charge density update                      :        0.013 s           0.013 s
  | Density mixing                             :        0.000 s           0.001 s
  | Hartree multipole update                   :        0.001 s           0.001 s
  | Hartree multipole summation                :        0.018 s           0.018 s
  | Integration                                :        0.028 s           0.028 s
  | Solution of K.-S. eqns.                    :        0.000 s           0.000 s
  | Total energy evaluation                    :        0.000 s           0.000 s

  Partial memory accounting:
  | Current value for overall tracked memory usage on task 0  :           0.017 MB
  | Peak value for overall tracked memory usage on task 0     :           0.082 MB after allocating wave
  | Largest tracked array allocation on task 0 so far         :           0.019 MB  when allocating H_times_psi
  Note:  These values currently only include a subset of arrays which are explicitly tracked.
  The "true" memory usage will be greater.
------------------------------------------------------------

------------------------------------------------------------
          Begin self-consistency iteration #    2

  Date     :  20190509, Time     :  114721.063
------------------------------------------------------------
  Evaluating new KS density.
  Integration grid: deviation in total charge (<rho> - N_e) =  -1.243450E-14
  Pulay mixing of updated and previous charge densities.

  Evaluating partitioned Hartree potential by multipole expansion.
  | Analytical far-field extrapolation by fixed multipoles:
  | Hartree multipole sum: apparent total charge =   0.436230E+00
  Summing up the Hartree potential.
  Time summed over all CPUs for potential: real work        0.017 s, elapsed        0.017 s
  | RMS charge density error from multipole expansion :   0.418191E-02

  Integrating Hamiltonian matrix: batch-based integration.
  Time summed over all CPUs for integration: real work        0.030 s, elapsed        0.030 s

  Updating Kohn-Sham eigenvalues, eigenvectors, occupation numbers, and Fermi level.
  Solving generalized eigenproblem
  Updating Kohn-Sham eigenvalues and eigenfunctions.
  Solving real generalised eigenvalue problem by standard LAPACK (fast)

  Obtaining occupation numbers and chemical potential using ELSI.
  | Chemical potential (Fermi level):    -8.71507912eV
  Highest occupied state (VBM) at    -14.66322638 eV
  | Occupation number:      2.00000000

  Lowest unoccupied state (CBM) at    -4.88324596 eV
  | Occupation number:      0.00000000

  Overall HOMO-LUMO gap:      9.77998041 eV.

  Checking to see if s.c.f. parameters should be adjusted.
  The system likely has a gap. Increased the default Pulay mixing parameter (charge_mix_param). Value:   0.200000 .
  Kept the default occupation width. Value:   0.010000 eV.

  Total energy components:
  | Sum of eigenvalues            :         -44.06108532 Ha       -1198.96313418 eV
  | XC energy correction          :          -8.88925423 Ha        -241.88891482 eV
  | XC potential correction       :          11.70694852 Ha         318.56227739 eV
  | Free-atom electrostatic energy:         -35.30116867 Ha        -960.59367385 eV
  | Hartree energy correction     :           0.33612536 Ha           9.14643638 eV
  | Entropy correction            :          -0.00000000 Ha          -0.00000000 eV
  | ---------------------------
  | Total energy                  :         -76.20843434 Ha       -2073.73700908 eV
  | Total energy, T -> 0          :         -76.20843434 Ha       -2073.73700908 eV  <-- do not rely on this value for anything but (periodic) metals
  | Electronic free energy        :         -76.20843434 Ha       -2073.73700908 eV

  Derived energy quantities:
  | Kinetic energy                :          76.28283996 Ha        2075.76168903 eV
  | Electrostatic energy          :        -143.60202008 Ha       -3907.60978329 eV
  | Energy correction for multipole
  | error in Hartree potential    :           0.00417698 Ha           0.11366139 eV
  | Sum of eigenvalues per atom                           :        -299.74078355 eV
  | Total energy (T->0) per atom                          :        -518.43425227 eV  <-- do not rely on this value for anything but (periodic) metals
  | Electronic free energy per atom                       :        -518.43425227 eV

  Self-consistency convergence accuracy:
  | Change of charge density      :  0.2322E+00
  | Change of sum of eigenvalues  : -0.6129E+01 eV
  | Change of total energy        :  0.2366E+01 eV

  End self-consistency iteration #     2       :  max(cpu_time)    wall_clock(cpu1)
  | Time for this iteration                    :        0.060 s           0.060 s
  | Charge density update                      :        0.011 s           0.011 s
  | Density mixing                             :        0.000 s           0.000 s
  | Hartree multipole update                   :        0.001 s           0.002 s
  | Hartree multipole summation                :        0.017 s           0.017 s
  | Integration                                :        0.030 s           0.030 s
  | Solution of K.-S. eqns.                    :        0.000 s           0.000 s
  | Total energy evaluation                    :        0.000 s           0.000 s

  Partial memory accounting:
  | Current value for overall tracked memory usage on task 0  :           0.018 MB
  | Peak value for overall tracked memory usage on task 0     :           0.083 MB after allocating wave
  | Largest tracked array allocation on task 0 so far         :           0.019 MB  when allocating H_times_psi
  Note:  These values currently only include a subset of arrays which are explicitly tracked.
  The "true" memory usage will be greater.
------------------------------------------------------------

------------------------------------------------------------
          Begin self-consistency iteration #    3

  Date     :  20190509, Time     :  114721.123
------------------------------------------------------------
  Evaluating new KS density.
  Integration grid: deviation in total charge (<rho> - N_e) =   1.953993E-14
  Pulay mixing of updated and previous charge densities.

  Evaluating partitioned Hartree potential by multipole expansion.
  | Analytical far-field extrapolation by fixed multipoles:
  | Hartree multipole sum: apparent total charge =   0.853650E+00
  Summing up the Hartree potential.
  Time summed over all CPUs for potential: real work        0.016 s, elapsed        0.016 s
  | RMS charge density error from multipole expansion :   0.781979E-02

  Integrating Hamiltonian matrix: batch-based integration.
  Time summed over all CPUs for integration: real work        0.029 s, elapsed        0.029 s

  Updating Kohn-Sham eigenvalues, eigenvectors, occupation numbers, and Fermi level.
  Solving generalized eigenproblem
  Updating Kohn-Sham eigenvalues and eigenfunctions.
  Solving real generalised eigenvalue problem by standard LAPACK (fast)

  Obtaining occupation numbers and chemical potential using ELSI.
  | Chemical potential (Fermi level):   -11.62638138eV
  Highest occupied state (VBM) at    -18.15147355 eV
  | Occupation number:      2.00000000

  Lowest unoccupied state (CBM) at    -7.60033093 eV
  | Occupation number:      0.00000000

  Overall HOMO-LUMO gap:     10.55114262 eV.

  Total energy components:
  | Sum of eigenvalues            :         -45.44790249 Ha       -1236.70034925 eV
  | XC energy correction          :          -8.79462625 Ha        -239.31395641 eV
  | XC potential correction       :          11.58338240 Ha         315.19987227 eV
  | Free-atom electrostatic energy:         -35.30116867 Ha        -960.59367385 eV
  | Hartree energy correction     :           1.78410695 Ha          48.54802017 eV
  | Entropy correction            :          -0.00000000 Ha          -0.00000000 eV
  | ---------------------------
  | Total energy                  :         -76.17620805 Ha       -2072.86008707 eV
  | Total energy, T -> 0          :         -76.17620805 Ha       -2072.86008707 eV  <-- do not rely on this value for anything but (periodic) metals
  | Electronic free energy        :         -76.17620805 Ha       -2072.86008707 eV

  Derived energy quantities:
  | Kinetic energy                :          75.81630415 Ha        2063.06660367 eV
  | Electrostatic energy          :        -143.19788596 Ha       -3896.61273433 eV
  | Energy correction for multipole
  | error in Hartree potential    :           0.00573772 Ha           0.15613118 eV
  | Sum of eigenvalues per atom                           :        -309.17508731 eV
  | Total energy (T->0) per atom                          :        -518.21502177 eV  <-- do not rely on this value for anything but (periodic) metals
  | Electronic free energy per atom                       :        -518.21502177 eV

  Self-consistency convergence accuracy:
  | Change of charge density      :  0.1081E+00
  | Change of sum of eigenvalues  : -0.3774E+02 eV
  | Change of total energy        :  0.8769E+00 eV

  End self-consistency iteration #     3       :  max(cpu_time)    wall_clock(cpu1)
  | Time for this iteration                    :        0.060 s           0.060 s
  | Charge density update                      :        0.012 s           0.013 s
  | Density mixing                             :        0.001 s           0.000 s
  | Hartree multipole update                   :        0.001 s           0.002 s
  | Hartree multipole summation                :        0.017 s           0.016 s
  | Integration                                :        0.028 s           0.029 s
  | Solution of K.-S. eqns.                    :        0.000 s           0.000 s
  | Total energy evaluation                    :        0.000 s           0.000 s

  Partial memory accounting:
  | Current value for overall tracked memory usage on task 0  :           0.018 MB
  | Peak value for overall tracked memory usage on task 0     :           0.083 MB after allocating wave
  | Largest tracked array allocation on task 0 so far         :           0.019 MB  when allocating H_times_psi
  Note:  These values currently only include a subset of arrays which are explicitly tracked.
  The "true" memory usage will be greater.
------------------------------------------------------------

------------------------------------------------------------
          Begin self-consistency iteration #    4

  Date     :  20190509, Time     :  114721.183
------------------------------------------------------------
  Evaluating new KS density.
  Integration grid: deviation in total charge (<rho> - N_e) =   1.598721E-14
  Pulay mixing of updated and previous charge densities.

  Evaluating partitioned Hartree potential by multipole expansion.
  | Analytical far-field extrapolation by fixed multipoles:
  | Hartree multipole sum: apparent total charge =   0.100709E+01
  Summing up the Hartree potential.
  Time summed over all CPUs for potential: real work        0.017 s, elapsed        0.017 s
  | RMS charge density error from multipole expansion :   0.924231E-02

  Integrating Hamiltonian matrix: batch-based integration.
  Time summed over all CPUs for integration: real work        0.028 s, elapsed        0.028 s

  Updating Kohn-Sham eigenvalues, eigenvectors, occupation numbers, and Fermi level.
  Solving generalized eigenproblem
  Updating Kohn-Sham eigenvalues and eigenfunctions.
  Solving real generalised eigenvalue problem by standard LAPACK (fast)

  Obtaining occupation numbers and chemical potential using ELSI.
  | Chemical potential (Fermi level):   -12.34292747eV
  Highest occupied state (VBM) at    -18.91980190 eV
  | Occupation number:      2.00000000

  Lowest unoccupied state (CBM) at    -8.36397183 eV
  | Occupation number:      0.00000000

  Overall HOMO-LUMO gap:     10.55583007 eV.

  Total energy components:
  | Sum of eigenvalues            :         -45.73499707 Ha       -1244.51259046 eV
  | XC energy correction          :          -8.79072316 Ha        -239.20774792 eV
  | XC potential correction       :          11.57869779 Ha         315.07239751 eV
  | Free-atom electrostatic energy:         -35.30116867 Ha        -960.59367385 eV
  | Hartree energy correction     :           2.07431294 Ha          56.44492706 eV
  | Entropy correction            :          -0.00000000 Ha          -0.00000000 eV
  | ---------------------------
  | Total energy                  :         -76.17387817 Ha       -2072.79668766 eV
  | Total energy, T -> 0          :         -76.17387817 Ha       -2072.79668766 eV  <-- do not rely on this value for anything but (periodic) metals
  | Electronic free energy        :         -76.17387817 Ha       -2072.79668766 eV

  Derived energy quantities:
  | Kinetic energy                :          75.79796214 Ha        2062.56749220 eV
  | Electrostatic energy          :        -143.18111715 Ha       -3896.15643193 eV
  | Energy correction for multipole
  | error in Hartree potential    :           0.00665156 Ha           0.18099824 eV
  | Sum of eigenvalues per atom                           :        -311.12814762 eV
  | Total energy (T->0) per atom                          :        -518.19917191 eV  <-- do not rely on this value for anything but (periodic) metals
  | Electronic free energy per atom                       :        -518.19917191 eV

  Self-consistency convergence accuracy:
  | Change of charge density      :  0.4481E-01
  | Change of sum of eigenvalues  : -0.7812E+01 eV
  | Change of total energy        :  0.6340E-01 eV

  End self-consistency iteration #     4       :  max(cpu_time)    wall_clock(cpu1)
  | Time for this iteration                    :        0.058 s           0.058 s
  | Charge density update                      :        0.011 s           0.011 s
  | Density mixing                             :        0.000 s           0.001 s
  | Hartree multipole update                   :        0.001 s           0.001 s
  | Hartree multipole summation                :        0.017 s           0.017 s
  | Integration                                :        0.028 s           0.028 s
  | Solution of K.-S. eqns.                    :        0.000 s           0.000 s
  | Total energy evaluation                    :        0.000 s           0.000 s

  Partial memory accounting:
  | Current value for overall tracked memory usage on task 0  :           0.019 MB
  | Peak value for overall tracked memory usage on task 0     :           0.083 MB after allocating wave
  | Largest tracked array allocation on task 0 so far         :           0.019 MB  when allocating H_times_psi
  Note:  These values currently only include a subset of arrays which are explicitly tracked.
  The "true" memory usage will be greater.
------------------------------------------------------------

------------------------------------------------------------
          Begin self-consistency iteration #    5

  Date     :  20190509, Time     :  114721.241
------------------------------------------------------------
  Evaluating new KS density.
  Integration grid: deviation in total charge (<rho> - N_e) =   7.105427E-15
  Pulay mixing of updated and previous charge densities.

  Evaluating partitioned Hartree potential by multipole expansion.
  | Analytical far-field extrapolation by fixed multipoles:
  | Hartree multipole sum: apparent total charge =   0.101053E+01
  Summing up the Hartree potential.
  Time summed over all CPUs for potential: real work        0.017 s, elapsed        0.017 s
  | RMS charge density error from multipole expansion :   0.934191E-02

  Integrating Hamiltonian matrix: batch-based integration.
  Time summed over all CPUs for integration: real work        0.029 s, elapsed        0.029 s

  Updating Kohn-Sham eigenvalues, eigenvectors, occupation numbers, and Fermi level.
  Solving generalized eigenproblem
  Updating Kohn-Sham eigenvalues and eigenfunctions.
  Solving real generalised eigenvalue problem by standard LAPACK (fast)

  Obtaining occupation numbers and chemical potential using ELSI.
  | Chemical potential (Fermi level):   -12.18248195eV
  Highest occupied state (VBM) at    -18.70255028 eV
  | Occupation number:      2.00000000

  Lowest unoccupied state (CBM) at    -8.24335351 eV
  | Occupation number:      0.00000000

  Overall HOMO-LUMO gap:     10.45919677 eV.

  Total energy components:
  | Sum of eigenvalues            :         -45.64085823 Ha       -1241.95094221 eV
  | XC energy correction          :          -8.80428450 Ha        -239.57677091 eV
  | XC potential correction       :          11.59656442 Ha         315.55857321 eV
  | Free-atom electrostatic energy:         -35.30116867 Ha        -960.59367385 eV
  | Hartree energy correction     :           1.97596883 Ha          53.76884771 eV
  | Entropy correction            :          -0.00000000 Ha          -0.00000000 eV
  | ---------------------------
  | Total energy                  :         -76.17377815 Ha       -2072.79396604 eV
  | Total energy, T -> 0          :         -76.17377815 Ha       -2072.79396604 eV  <-- do not rely on this value for anything but (periodic) metals
  | Electronic free energy        :         -76.17377815 Ha       -2072.79396604 eV

  Derived energy quantities:
  | Kinetic energy                :          75.84560619 Ha        2063.86395263 eV
  | Electrostatic energy          :        -143.21509983 Ha       -3897.08114776 eV
  | Energy correction for multipole
  | error in Hartree potential    :           0.00645246 Ha           0.17558030 eV
  | Sum of eigenvalues per atom                           :        -310.48773555 eV
  | Total energy (T->0) per atom                          :        -518.19849151 eV  <-- do not rely on this value for anything but (periodic) metals
  | Electronic free energy per atom                       :        -518.19849151 eV

  Self-consistency convergence accuracy:
  | Change of charge density      :  0.1073E-01
  | Change of sum of eigenvalues  :  0.2562E+01 eV
  | Change of total energy        :  0.2722E-02 eV

  End self-consistency iteration #     5       :  max(cpu_time)    wall_clock(cpu1)
  | Time for this iteration                    :        0.060 s           0.060 s
  | Charge density update                      :        0.011 s           0.012 s
  | Density mixing                             :        0.001 s           0.000 s
  | Hartree multipole update                   :        0.001 s           0.002 s
  | Hartree multipole summation                :        0.017 s           0.017 s
  | Integration                                :        0.029 s           0.029 s
  | Solution of K.-S. eqns.                    :        0.000 s           0.000 s
  | Total energy evaluation                    :        0.000 s           0.000 s

  Partial memory accounting:
  | Current value for overall tracked memory usage on task 0  :           0.019 MB
  | Peak value for overall tracked memory usage on task 0     :           0.083 MB after allocating wave
  | Largest tracked array allocation on task 0 so far         :           0.019 MB  when allocating H_times_psi
  Note:  These values currently only include a subset of arrays which are explicitly tracked.
  The "true" memory usage will be greater.
------------------------------------------------------------

------------------------------------------------------------
          Begin self-consistency iteration #    6

  Date     :  20190509, Time     :  114721.301
------------------------------------------------------------
  Evaluating new KS density.
  Integration grid: deviation in total charge (<rho> - N_e) =   1.598721E-14
  Pulay mixing of updated and previous charge densities.

  Evaluating partitioned Hartree potential by multipole expansion.
  | Analytical far-field extrapolation by fixed multipoles:
  | Hartree multipole sum: apparent total charge =   0.100145E+01
  Summing up the Hartree potential.
  Time summed over all CPUs for potential: real work        0.017 s, elapsed        0.017 s
  | RMS charge density error from multipole expansion :   0.924859E-02

  Integrating Hamiltonian matrix: batch-based integration.
  Time summed over all CPUs for integration: real work        0.028 s, elapsed        0.028 s

  Updating Kohn-Sham eigenvalues, eigenvectors, occupation numbers, and Fermi level.
  Solving generalized eigenproblem
  Updating Kohn-Sham eigenvalues and eigenfunctions.
  Solving real generalised eigenvalue problem by standard LAPACK (fast)

  Obtaining occupation numbers and chemical potential using ELSI.
  | Chemical potential (Fermi level):   -12.21188614eV
  Highest occupied state (VBM) at    -18.75261815 eV
  | Occupation number:      2.00000000

  Lowest unoccupied state (CBM) at    -8.24353182 eV
  | Occupation number:      0.00000000

  Overall HOMO-LUMO gap:     10.50908633 eV.

  Total energy components:
  | Sum of eigenvalues            :         -45.66628406 Ha       -1242.64281415 eV
  | XC energy correction          :          -8.79909223 Ha        -239.43548184 eV
  | XC potential correction       :          11.58968385 Ha         315.37134351 eV
  | Free-atom electrostatic energy:         -35.30116867 Ha        -960.59367385 eV
  | Hartree energy correction     :           2.00310628 Ha          54.50729522 eV
  | Entropy correction            :          -0.00000000 Ha          -0.00000000 eV
  | ---------------------------
  | Total energy                  :         -76.17375482 Ha       -2072.79333111 eV
  | Total energy, T -> 0          :         -76.17375482 Ha       -2072.79333111 eV  <-- do not rely on this value for anything but (periodic) metals
  | Electronic free energy        :         -76.17375482 Ha       -2072.79333111 eV

  Derived energy quantities:
  | Kinetic energy                :          75.81515332 Ha        2063.03528790 eV
  | Electrostatic energy          :        -143.18981591 Ha       -3896.39313717 eV
  | Energy correction for multipole
  | error in Hartree potential    :           0.00634626 Ha           0.17269044 eV
  | Sum of eigenvalues per atom                           :        -310.66070354 eV
  | Total energy (T->0) per atom                          :        -518.19833278 eV  <-- do not rely on this value for anything but (periodic) metals
  | Electronic free energy per atom                       :        -518.19833278 eV

  Self-consistency convergence accuracy:
  | Change of charge density      :  0.7277E-02
  | Change of sum of eigenvalues  : -0.6919E+00 eV
  | Change of total energy        :  0.6349E-03 eV

  End self-consistency iteration #     6       :  max(cpu_time)    wall_clock(cpu1)
  | Time for this iteration                    :        0.058 s           0.058 s
  | Charge density update                      :        0.011 s           0.011 s
  | Density mixing                             :        0.001 s           0.001 s
  | Hartree multipole update                   :        0.001 s           0.001 s
  | Hartree multipole summation                :        0.016 s           0.017 s
  | Integration                                :        0.028 s           0.028 s
  | Solution of K.-S. eqns.                    :        0.000 s           0.000 s
  | Total energy evaluation                    :        0.000 s           0.000 s

  Partial memory accounting:
  | Current value for overall tracked memory usage on task 0  :           0.019 MB
  | Peak value for overall tracked memory usage on task 0     :           0.084 MB after allocating wave
  | Largest tracked array allocation on task 0 so far         :           0.019 MB  when allocating H_times_psi
  Note:  These values currently only include a subset of arrays which are explicitly tracked.
  The "true" memory usage will be greater.
------------------------------------------------------------

------------------------------------------------------------
          Begin self-consistency iteration #    7

  Date     :  20190509, Time     :  114721.359
------------------------------------------------------------
  Evaluating new KS density.
  Integration grid: deviation in total charge (<rho> - N_e) =   1.598721E-14
  Pulay mixing of updated and previous charge densities.

  Evaluating partitioned Hartree potential by multipole expansion.
  | Analytical far-field extrapolation by fixed multipoles:
  | Hartree multipole sum: apparent total charge =   0.999110E+00
  Summing up the Hartree potential.
  Time summed over all CPUs for potential: real work        0.017 s, elapsed        0.017 s
  | RMS charge density error from multipole expansion :   0.924260E-02

  Integrating Hamiltonian matrix: batch-based integration.
  Time summed over all CPUs for integration: real work        0.028 s, elapsed        0.028 s

  Updating Kohn-Sham eigenvalues, eigenvectors, occupation numbers, and Fermi level.
  Solving generalized eigenproblem
  Updating Kohn-Sham eigenvalues and eigenfunctions.
  Solving real generalised eigenvalue problem by standard LAPACK (fast)

  Obtaining occupation numbers and chemical potential using ELSI.
  | Chemical potential (Fermi level):   -12.15955697eV
  Highest occupied state (VBM) at    -18.67323176 eV
  | Occupation number:      2.00000000

  Lowest unoccupied state (CBM) at    -8.19942835 eV
  | Occupation number:      0.00000000

  Overall HOMO-LUMO gap:     10.47380342 eV.

  Total energy components:
  | Sum of eigenvalues            :         -45.63579109 Ha       -1241.81305821 eV
  | XC energy correction          :          -8.80263911 Ha        -239.53199746 eV
  | XC potential correction       :          11.59434433 Ha         315.49816164 eV
  | Free-atom electrostatic energy:         -35.30116867 Ha        -960.59367385 eV
  | Hartree energy correction     :           1.97151438 Ha          53.64763588 eV
  | Entropy correction            :          -0.00000000 Ha          -0.00000000 eV
  | ---------------------------
  | Total energy                  :         -76.17374015 Ha       -2072.79293198 eV
  | Total energy, T -> 0          :         -76.17374015 Ha       -2072.79293198 eV  <-- do not rely on this value for anything but (periodic) metals
  | Electronic free energy        :         -76.17374015 Ha       -2072.79293198 eV

  Derived energy quantities:
  | Kinetic energy                :          75.82491568 Ha        2063.30093523 eV
  | Electrostatic energy          :        -143.19601672 Ha       -3896.56186976 eV
  | Energy correction for multipole
  | error in Hartree potential    :           0.00623703 Ha           0.16971833 eV
  | Sum of eigenvalues per atom                           :        -310.45326455 eV
  | Total energy (T->0) per atom                          :        -518.19823300 eV  <-- do not rely on this value for anything but (periodic) metals
  | Electronic free energy per atom                       :        -518.19823300 eV

  Self-consistency convergence accuracy:
  | Change of charge density      :  0.3751E-02
  | Change of sum of eigenvalues  :  0.8298E+00 eV
  | Change of total energy        :  0.3991E-03 eV

  End self-consistency iteration #     7       :  max(cpu_time)    wall_clock(cpu1)
  | Time for this iteration                    :        0.060 s           0.060 s
  | Charge density update                      :        0.012 s           0.012 s
  | Density mixing                             :        0.001 s           0.001 s
  | Hartree multipole update                   :        0.001 s           0.001 s
  | Hartree multipole summation                :        0.017 s           0.017 s
  | Integration                                :        0.028 s           0.028 s
  | Solution of K.-S. eqns.                    :        0.000 s           0.001 s
  | Total energy evaluation                    :        0.000 s           0.000 s

  Partial memory accounting:
  | Current value for overall tracked memory usage on task 0  :           0.019 MB
  | Peak value for overall tracked memory usage on task 0     :           0.084 MB after allocating wave
  | Largest tracked array allocation on task 0 so far         :           0.019 MB  when allocating H_times_psi
  Note:  These values currently only include a subset of arrays which are explicitly tracked.
  The "true" memory usage will be greater.
------------------------------------------------------------

------------------------------------------------------------
          Begin self-consistency iteration #    8

  Date     :  20190509, Time     :  114721.419
------------------------------------------------------------
  Evaluating new KS density.
  Integration grid: deviation in total charge (<rho> - N_e) =   2.486900E-14
  Pulay mixing of updated and previous charge densities.

  Evaluating partitioned Hartree potential by multipole expansion.
  | Analytical far-field extrapolation by fixed multipoles:
  | Hartree multipole sum: apparent total charge =   0.999327E+00
  Summing up the Hartree potential.
  Time summed over all CPUs for potential: real work        0.017 s, elapsed        0.017 s
  | RMS charge density error from multipole expansion :   0.924576E-02

  Integrating Hamiltonian matrix: batch-based integration.
  Time summed over all CPUs for integration: real work        0.028 s, elapsed        0.028 s

  Updating Kohn-Sham eigenvalues, eigenvectors, occupation numbers, and Fermi level.
  Solving generalized eigenproblem
  Updating Kohn-Sham eigenvalues and eigenfunctions.
  Solving real generalised eigenvalue problem by standard LAPACK (fast)

  Obtaining occupation numbers and chemical potential using ELSI.
  | Chemical potential (Fermi level):   -12.15552274eV
  Highest occupied state (VBM) at    -18.66752384 eV
  | Occupation number:      2.00000000

  Lowest unoccupied state (CBM) at    -8.19645798 eV
  | Occupation number:      0.00000000

  Overall HOMO-LUMO gap:     10.47106586 eV.

  Total energy components:
  | Sum of eigenvalues            :         -45.63367990 Ha       -1241.75560989 eV
  | XC energy correction          :          -8.80297575 Ha        -239.54115793 eV
  | XC potential correction       :          11.59478740 Ha         315.51021804 eV
  | Free-atom electrostatic energy:         -35.30116867 Ha        -960.59367385 eV
  | Hartree energy correction     :           1.96929695 Ha          53.58729663 eV
  | Entropy correction            :          -0.00000000 Ha          -0.00000000 eV
  | ---------------------------
  | Total energy                  :         -76.17373997 Ha       -2072.79292700 eV
  | Total energy, T -> 0          :         -76.17373997 Ha       -2072.79292700 eV  <-- do not rely on this value for anything but (periodic) metals
  | Electronic free energy        :         -76.17373997 Ha       -2072.79292700 eV

  Derived energy quantities:
  | Kinetic energy                :          75.82537671 Ha        2063.31348056 eV
  | Electrostatic energy          :        -143.19614092 Ha       -3896.56524963 eV
  | Energy correction for multipole
  | error in Hartree potential    :           0.00622270 Ha           0.16932823 eV
  | Sum of eigenvalues per atom                           :        -310.43890247 eV
  | Total energy (T->0) per atom                          :        -518.19823175 eV  <-- do not rely on this value for anything but (periodic) metals
  | Electronic free energy per atom                       :        -518.19823175 eV

  Self-consistency convergence accuracy:
  | Change of charge density      :  0.5247E-03
  | Change of sum of eigenvalues  :  0.5745E-01 eV
  | Change of total energy        :  0.4984E-05 eV

  End self-consistency iteration #     8       :  max(cpu_time)    wall_clock(cpu1)
  | Time for this iteration                    :        0.058 s           0.058 s
  | Charge density update                      :        0.011 s           0.011 s
  | Density mixing                             :        0.001 s           0.001 s
  | Hartree multipole update                   :        0.001 s           0.001 s
  | Hartree multipole summation                :        0.016 s           0.017 s
  | Integration                                :        0.028 s           0.028 s
  | Solution of K.-S. eqns.                    :        0.000 s           0.000 s
  | Total energy evaluation                    :        0.000 s           0.000 s

  Partial memory accounting:
  | Current value for overall tracked memory usage on task 0  :           0.020 MB
  | Peak value for overall tracked memory usage on task 0     :           0.084 MB after allocating wave
  | Largest tracked array allocation on task 0 so far         :           0.019 MB  when allocating H_times_psi
  Note:  These values currently only include a subset of arrays which are explicitly tracked.
  The "true" memory usage will be greater.
------------------------------------------------------------

------------------------------------------------------------
          Begin self-consistency iteration #    9

  Date     :  20190509, Time     :  114721.477
------------------------------------------------------------
  Evaluating new KS density.
  Integration grid: deviation in total charge (<rho> - N_e) =  -3.552714E-15
  Pulay mixing of updated and previous charge densities.

  Evaluating partitioned Hartree potential by multipole expansion.
  | Analytical far-field extrapolation by fixed multipoles:
  | Hartree multipole sum: apparent total charge =   0.999550E+00
  Summing up the Hartree potential.
  Time summed over all CPUs for potential: real work        0.017 s, elapsed        0.017 s
  | RMS charge density error from multipole expansion :   0.924602E-02

  Integrating Hamiltonian matrix: batch-based integration.
  Time summed over all CPUs for integration: real work        0.030 s, elapsed        0.030 s

  Updating Kohn-Sham eigenvalues, eigenvectors, occupation numbers, and Fermi level.
  Solving generalized eigenproblem
  Updating Kohn-Sham eigenvalues and eigenfunctions.
  Solving real generalised eigenvalue problem by standard LAPACK (fast)

  Obtaining occupation numbers and chemical potential using ELSI.
  | Chemical potential (Fermi level):   -12.15463631eV
  Highest occupied state (VBM) at    -18.66647605 eV
  | Occupation number:      2.00000000

  Lowest unoccupied state (CBM) at    -8.19586083 eV
  | Occupation number:      0.00000000

  Overall HOMO-LUMO gap:     10.47061521 eV.

  Total energy components:
  | Sum of eigenvalues            :         -45.63361115 Ha       -1241.75373899 eV
  | XC energy correction          :          -8.80302408 Ha        -239.54247292 eV
  | XC potential correction       :          11.59485057 Ha         315.51193712 eV
  | Free-atom electrostatic energy:         -35.30116867 Ha        -960.59367385 eV
  | Hartree energy correction     :           1.96921367 Ha          53.58503028 eV
  | Entropy correction            :          -0.00000000 Ha          -0.00000000 eV
  | ---------------------------
  | Total energy                  :         -76.17373965 Ha       -2072.79291837 eV
  | Total energy, T -> 0          :         -76.17373965 Ha       -2072.79291837 eV  <-- do not rely on this value for anything but (periodic) metals
  | Electronic free energy        :         -76.17373965 Ha       -2072.79291837 eV

  Derived energy quantities:
  | Kinetic energy                :          75.82455909 Ha        2063.29123191 eV
  | Electrostatic energy          :        -143.19527466 Ha       -3896.54167735 eV
  | Energy correction for multipole
  | error in Hartree potential    :           0.00620618 Ha           0.16887876 eV
  | Sum of eigenvalues per atom                           :        -310.43843475 eV
  | Total energy (T->0) per atom                          :        -518.19822959 eV  <-- do not rely on this value for anything but (periodic) metals
  | Electronic free energy per atom                       :        -518.19822959 eV

  Self-consistency convergence accuracy:
  | Change of charge density      :  0.2094E-03
  | Change of sum of eigenvalues  :  0.1871E-02 eV
  | Change of total energy        :  0.8633E-05 eV

  End self-consistency iteration #     9       :  max(cpu_time)    wall_clock(cpu1)
  | Time for this iteration                    :        0.062 s           0.062 s
  | Charge density update                      :        0.011 s           0.011 s
  | Density mixing                             :        0.001 s           0.001 s
  | Hartree multipole update                   :        0.001 s           0.002 s
  | Hartree multipole summation                :        0.017 s           0.017 s
  | Integration                                :        0.031 s           0.030 s
  | Solution of K.-S. eqns.                    :        0.000 s           0.001 s
  | Total energy evaluation                    :        0.000 s           0.000 s

  Partial memory accounting:
  | Current value for overall tracked memory usage on task 0  :           0.020 MB
  | Peak value for overall tracked memory usage on task 0     :           0.085 MB after allocating wave
  | Largest tracked array allocation on task 0 so far         :           0.019 MB  when allocating H_times_psi
  Note:  These values currently only include a subset of arrays which are explicitly tracked.
  The "true" memory usage will be greater.
------------------------------------------------------------

------------------------------------------------------------
          Begin self-consistency iteration #   10

  Date     :  20190509, Time     :  114721.539
------------------------------------------------------------
  Evaluating new KS density.
  Integration grid: deviation in total charge (<rho> - N_e) =   1.776357E-14
  Pulay mixing of updated and previous charge densities.

  Evaluating partitioned Hartree potential by multipole expansion.
  | Analytical far-field extrapolation by fixed multipoles:
  | Hartree multipole sum: apparent total charge =   0.999557E+00
  Summing up the Hartree potential.
  Time summed over all CPUs for potential: real work        0.017 s, elapsed        0.017 s
  | RMS charge density error from multipole expansion :   0.924613E-02

  Integrating Hamiltonian matrix: batch-based integration.
  Time summed over all CPUs for integration: real work        0.027 s, elapsed        0.027 s

  Updating Kohn-Sham eigenvalues, eigenvectors, occupation numbers, and Fermi level.
  Solving generalized eigenproblem
  Updating Kohn-Sham eigenvalues and eigenfunctions.
  Solving real generalised eigenvalue problem by standard LAPACK (fast)

  Obtaining occupation numbers and chemical potential using ELSI.
  | Chemical potential (Fermi level):   -12.15471571eV
  Highest occupied state (VBM) at    -18.66668106 eV
  | Occupation number:      2.00000000

  Lowest unoccupied state (CBM) at    -8.19591897 eV
  | Occupation number:      0.00000000

  Overall HOMO-LUMO gap:     10.47076209 eV.

  Total energy components:
  | Sum of eigenvalues            :         -45.63370463 Ha       -1241.75628298 eV
  | XC energy correction          :          -8.80301466 Ha        -239.54221672 eV
  | XC potential correction       :          11.59483814 Ha         315.51159883 eV
  | Free-atom electrostatic energy:         -35.30116867 Ha        -960.59367385 eV
  | Hartree energy correction     :           1.96931018 Ha          53.58765653 eV
  | Entropy correction            :          -0.00000000 Ha          -0.00000000 eV
  | ---------------------------
  | Total energy                  :         -76.17373964 Ha       -2072.79291818 eV
  | Total energy, T -> 0          :         -76.17373964 Ha       -2072.79291818 eV  <-- do not rely on this value for anything but (periodic) metals
  | Electronic free energy        :         -76.17373964 Ha       -2072.79291818 eV

  Derived energy quantities:
  | Kinetic energy                :          75.82450149 Ha        2063.28966462 eV
  | Electrostatic energy          :        -143.19522647 Ha       -3896.54036608 eV
  | Energy correction for multipole
  | error in Hartree potential    :           0.00620590 Ha           0.16887113 eV
  | Sum of eigenvalues per atom                           :        -310.43907074 eV
  | Total energy (T->0) per atom                          :        -518.19822954 eV  <-- do not rely on this value for anything but (periodic) metals
  | Electronic free energy per atom                       :        -518.19822954 eV

  Self-consistency convergence accuracy:
  | Change of charge density      :  0.2325E-04
  | Change of sum of eigenvalues  : -0.2544E-02 eV
  | Change of total energy        :  0.1910E-06 eV

  End self-consistency iteration #    10       :  max(cpu_time)    wall_clock(cpu1)
  | Time for this iteration                    :        0.061 s           0.061 s
  | Charge density update                      :        0.013 s           0.013 s
  | Density mixing                             :        0.002 s           0.002 s
  | Hartree multipole update                   :        0.002 s           0.001 s
  | Hartree multipole summation                :        0.017 s           0.017 s
  | Integration                                :        0.028 s           0.027 s
  | Solution of K.-S. eqns.                    :        0.000 s           0.001 s
  | Total energy evaluation                    :        0.000 s           0.000 s

  Partial memory accounting:
  | Current value for overall tracked memory usage on task 0  :           0.020 MB
  | Peak value for overall tracked memory usage on task 0     :           0.085 MB after allocating wave
  | Largest tracked array allocation on task 0 so far         :           0.019 MB  when allocating H_times_psi
  Note:  These values currently only include a subset of arrays which are explicitly tracked.
  The "true" memory usage will be greater.
------------------------------------------------------------

------------------------------------------------------------
          Begin self-consistency iteration #   11

  Date     :  20190509, Time     :  114721.600
------------------------------------------------------------
  Evaluating new KS density.
  Integration grid: deviation in total charge (<rho> - N_e) =  -1.421085E-14
  Pulay mixing of updated and previous charge densities.

  Evaluating partitioned Hartree potential by multipole expansion.
  | Analytical far-field extrapolation by fixed multipoles:
  | Hartree multipole sum: apparent total charge =   0.999567E+00
  Summing up the Hartree potential.
  Time summed over all CPUs for potential: real work        0.016 s, elapsed        0.016 s
  | RMS charge density error from multipole expansion :   0.924616E-02

  Integrating Hamiltonian matrix: batch-based integration.
  Time summed over all CPUs for integration: real work        0.028 s, elapsed        0.028 s

  Updating Kohn-Sham eigenvalues, eigenvectors, occupation numbers, and Fermi level.
  Solving generalized eigenproblem
  Updating Kohn-Sham eigenvalues and eigenfunctions.
  Solving real generalised eigenvalue problem by standard LAPACK (fast)

  Obtaining occupation numbers and chemical potential using ELSI.
  | Chemical potential (Fermi level):   -12.15472746eV
  Highest occupied state (VBM) at    -18.66671732 eV
  | Occupation number:      2.00000000

  Lowest unoccupied state (CBM) at    -8.19593406 eV
  | Occupation number:      0.00000000

  Overall HOMO-LUMO gap:     10.47078327 eV.

  Total energy components:
  | Sum of eigenvalues            :         -45.63372903 Ha       -1241.75694672 eV
  | XC energy correction          :          -8.80301338 Ha        -239.54218176 eV
  | XC potential correction       :          11.59483644 Ha         315.51155262 eV
  | Free-atom electrostatic energy:         -35.30116867 Ha        -960.59367385 eV
  | Hartree energy correction     :           1.96933500 Ha          53.58833179 eV
  | Entropy correction            :          -0.00000000 Ha          -0.00000000 eV
  | ---------------------------
[...]
  | Largest tracked array allocation on task 0 so far         :           0.019 MB  when allocating H_times_psi
  Note:  These values currently only include a subset of arrays which are explicitly tracked.
  The "true" memory usage will be greater.
------------------------------------------------------------

------------------------------------------------------------
          Begin self-consistency iteration #   12

  Date     :  20190509, Time     :  114721.659
------------------------------------------------------------
  Evaluating new KS density.
  Integration grid: deviation in total charge (<rho> - N_e) =   1.776357E-14
  Pulay mixing of updated and previous charge densities.

  Evaluating partitioned Hartree potential by multipole expansion.
  | Analytical far-field extrapolation by fixed multipoles:
  | Hartree multipole sum: apparent total charge =   0.999567E+00
  Summing up the Hartree potential.
  Time summed over all CPUs for potential: real work        0.016 s, elapsed        0.016 s
  | RMS charge density error from multipole expansion :   0.924617E-02

  Integrating Hamiltonian matrix: batch-based integration.
  Time summed over all CPUs for integration: real work        0.028 s, elapsed        0.028 s

  Updating Kohn-Sham eigenvalues, eigenvectors, occupation numbers, and Fermi level.
  Solving generalized eigenproblem
  Updating Kohn-Sham eigenvalues and eigenfunctions.
  Solving real generalised eigenvalue problem by standard LAPACK (fast)

  Obtaining occupation numbers and chemical potential using ELSI.
  | Chemical potential (Fermi level):   -12.15472282eV
  Highest occupied state (VBM) at    -18.66671226 eV
  | Occupation number:      2.00000000

  Lowest unoccupied state (CBM) at    -8.19593156 eV
  | Occupation number:      0.00000000

  Overall HOMO-LUMO gap:     10.47078070 eV.

  Total energy components:
  | Sum of eigenvalues            :         -45.63372642 Ha       -1241.75687581 eV
  | XC energy correction          :          -8.80301384 Ha        -239.54219425 eV
  | XC potential correction       :          11.59483705 Ha         315.51156911 eV
  | Free-atom electrostatic energy:         -35.30116867 Ha        -960.59367385 eV
  | Hartree energy correction     :           1.96933224 Ha          53.58825687 eV
  | Entropy correction            :          -0.00000000 Ha          -0.00000000 eV
  | ---------------------------
  | Total energy                  :         -76.17373963 Ha       -2072.79291793 eV
  | Total energy, T -> 0          :         -76.17373963 Ha       -2072.79291793 eV  <-- do not rely on this value for anything but (periodic) metals
  | Electronic free energy        :         -76.17373963 Ha       -2072.79291793 eV

  Derived energy quantities:
  | Kinetic energy                :          75.82447024 Ha        2063.28881428 eV
  | Electrostatic energy          :        -143.19519604 Ha       -3896.53953796 eV
  | Energy correction for multipole
  | error in Hartree potential    :           0.00620545 Ha           0.16885893 eV
  | Sum of eigenvalues per atom                           :        -310.43921895 eV
  | Total energy (T->0) per atom                          :        -518.19822948 eV  <-- do not rely on this value for anything but (periodic) metals
  | Electronic free energy per atom                       :        -518.19822948 eV

  Self-consistency convergence accuracy:
  | Change of charge density      :  0.6793E-06
  | Change of sum of eigenvalues  :  0.7091E-04 eV
  | Change of total energy        : -0.2263E-07 eV

  Electronic self-consistency reached - switching on the force computation.

  End self-consistency iteration #    12       :  max(cpu_time)    wall_clock(cpu1)
  | Time for this iteration                    :        0.059 s           0.058 s
  | Charge density & force component update    :        0.011 s           0.011 s
  | Density mixing                             :        0.001 s           0.001 s
  | Hartree multipole update                   :        0.001 s           0.001 s
  | Hartree multipole summation                :        0.017 s           0.017 s
  | Integration                                :        0.028 s           0.028 s
  | Solution of K.-S. eqns.                    :        0.000 s           0.000 s
  | Total energy evaluation                    :        0.000 s           0.000 s

  Partial memory accounting:
  | Current value for overall tracked memory usage on task 0  :           0.020 MB
  | Peak value for overall tracked memory usage on task 0     :           0.085 MB after allocating wave
  | Largest tracked array allocation on task 0 so far         :           0.019 MB  when allocating H_times_psi
  Note:  These values currently only include a subset of arrays which are explicitly tracked.
  The "true" memory usage will be greater.
------------------------------------------------------------

------------------------------------------------------------
          Begin self-consistency iteration #   13

  Date     :  20190509, Time     :  114721.717
------------------------------------------------------------
  Evaluating new KS density and force components.
  Integration grid: deviation in total charge (<rho> - N_e) =  -1.776357E-15
  Pulay mixing of updated and previous charge densities.

  Evaluating partitioned Hartree potential by multipole expansion.
  | Analytical far-field extrapolation by fixed multipoles:
  | Hartree multipole sum: apparent total charge =   0.999567E+00
  Summing up the Hartree potential.
  Time summed over all CPUs for potential: real work        0.052 s, elapsed        0.052 s
  | RMS charge density error from multipole expansion :   0.924617E-02

  Integrating Hamiltonian matrix: batch-based integration.
  Time summed over all CPUs for integration: real work        0.027 s, elapsed        0.027 s

  Updating Kohn-Sham eigenvalues, eigenvectors, occupation numbers, and Fermi level.
  Solving generalized eigenproblem
  Updating Kohn-Sham eigenvalues and eigenfunctions.
  Solving real generalised eigenvalue problem by standard LAPACK (fast)

  Obtaining occupation numbers and chemical potential using ELSI.
  | Chemical potential (Fermi level):   -12.15472216eV
  Highest occupied state (VBM) at    -18.66671124 eV
  | Occupation number:      2.00000000

  Lowest unoccupied state (CBM) at    -8.19593107 eV
  | Occupation number:      0.00000000

  Overall HOMO-LUMO gap:     10.47078017 eV.

  Total energy components:
  | Sum of eigenvalues            :         -45.63372593 Ha       -1241.75686257 eV
  | XC energy correction          :          -8.80301390 Ha        -239.54219602 eV
  | XC potential correction       :          11.59483713 Ha         315.51157144 eV
  | Free-atom electrostatic energy:         -35.30116867 Ha        -960.59367385 eV
  | Hartree energy correction     :           1.96933174 Ha          53.58824307 eV
  | Entropy correction            :          -0.00000000 Ha          -0.00000000 eV
  | ---------------------------
  | Total energy                  :         -76.17373963 Ha       -2072.79291793 eV
  | Total energy, T -> 0          :         -76.17373963 Ha       -2072.79291793 eV  <-- do not rely on this value for anything but (periodic) metals
  | Electronic free energy        :         -76.17373963 Ha       -2072.79291793 eV

  Derived energy quantities:
  | Kinetic energy                :          75.82447060 Ha        2063.28882402 eV
  | Electrostatic energy          :        -143.19519633 Ha       -3896.53954594 eV
  | Energy correction for multipole
  | error in Hartree potential    :           0.00620545 Ha           0.16885897 eV
  | Sum of eigenvalues per atom                           :        -310.43921564 eV
  | Total energy (T->0) per atom                          :        -518.19822948 eV  <-- do not rely on this value for anything but (periodic) metals
  | Electronic free energy per atom                       :        -518.19822948 eV

  atomic forces [eV/Ang]:
  -----------------------
  atom #    1
   Hellmann-Feynman              :  0.765762E-12  0.780741E-01 -0.882297E+01
   Ionic forces                  :  0.000000E+00  0.000000E+00  0.000000E+00
   Multipole                     : -0.133794E-12 -0.186190E-04 -0.324188E+00
   Pulay                         : -0.112442E-12  0.855938E-03  0.916707E+01
   ----------------------------------------------------------------
   Total forces(   1)            :  0.519526E-12  0.789114E-01  0.199039E-01
  atom #    2
   Hellmann-Feynman              :  0.207307E+00 -0.118200E+00  0.135601E+00
   Ionic forces                  :  0.000000E+00  0.000000E+00  0.000000E+00
   Multipole                     :  0.497954E-01 -0.288712E-01  0.626894E-01
   Pulay                         : -0.257614E+00  0.148735E+00 -0.196478E+00
   ----------------------------------------------------------------
   Total forces(   2)            : -0.510719E-03  0.166303E-02  0.181239E-02
  atom #    3
   Hellmann-Feynman              : -0.207307E+00 -0.118200E+00  0.135601E+00
   Ionic forces                  :  0.000000E+00  0.000000E+00  0.000000E+00
   Multipole                     : -0.497954E-01 -0.288712E-01  0.626894E-01
   Pulay                         :  0.257614E+00  0.148735E+00 -0.196478E+00
   ----------------------------------------------------------------
   Total forces(   3)            :  0.510719E-03  0.166303E-02  0.181239E-02
  atom #    4
   Hellmann-Feynman              :  0.220749E-13  0.155751E+00  0.111481E+00
   Ionic forces                  :  0.000000E+00  0.000000E+00  0.000000E+00
   Multipole                     :  0.518632E-15  0.573773E-01  0.623099E-01
   Pulay                         : -0.703934E-14 -0.295182E+00 -0.195407E+00
   ----------------------------------------------------------------
   Total forces(   4)            :  0.155542E-13 -0.820542E-01 -0.216158E-01


  Self-consistency convergence accuracy:
  | Change of charge density      :  0.7332E-07
  | Change of sum of eigenvalues  :  0.1324E-04 eV
  | Change of total energy        : -0.2531E-08 eV
  | Change of forces              :  0.4583E+01 eV/A

  Writing Kohn-Sham eigenvalues.

  State    Occupation    Eigenvalue [Ha]    Eigenvalue [eV]
      1       2.00000         -19.024130         -517.67290
      2       2.00000          -1.348112          -36.68398
      3       2.00000          -0.879501          -23.93245
      4       2.00000          -0.879131          -23.92238
      5       2.00000          -0.685989          -18.66671
      6       0.00000          -0.301195           -8.19593
      7       0.00000          -0.207631           -5.64992
      8       0.00000          -0.206912           -5.63035
      9       0.00000           0.016642            0.45286
     10       0.00000           0.052399            1.42584
     11       0.00000           0.052792            1.43653
     12       0.00000           0.240310            6.53916
     13       0.00000           0.466967           12.70683

  Highest occupied state (VBM) at    -18.66671124 eV
  | Occupation number:      2.00000000

  Lowest unoccupied state (CBM) at    -8.19593107 eV
  | Occupation number:      0.00000000

  Overall HOMO-LUMO gap:     10.47078017 eV.

  Self-consistency cycle converged.

  End self-consistency iteration #    13       :  max(cpu_time)    wall_clock(cpu1)
  | Time for this iteration                    :        0.122 s           0.123 s
  | Charge density & force component update    :        0.040 s           0.041 s
  | Density mixing                             :        0.001 s           0.001 s
  | Hartree multipole update                   :        0.001 s           0.001 s
  | Hartree multipole summation                :        0.051 s           0.052 s
  | Integration                                :        0.028 s           0.027 s
  | Solution of K.-S. eqns.                    :        0.000 s           0.000 s
  | Total energy evaluation                    :        0.000 s           0.001 s

  Partial memory accounting:
  | Current value for overall tracked memory usage on task 0  :           0.020 MB
  | Peak value for overall tracked memory usage on task 0     :           0.116 MB after allocating h_times_wave
  | Largest tracked array allocation on task 0 so far         :           0.058 MB  when allocating gradient_basis_wave
  Note:  These values currently only include a subset of arrays which are explicitly tracked.
  The "true" memory usage will be greater.
------------------------------------------------------------
  ------------------------------------------------------------
   Computing monopole / dipole moments for complete molecule:
  | Total electronic charge [e]         :          0.100000000166826E+02
  | Total ionic charge [e]              :          0.110000000000000E+02
  | Total charge [e]                    :          0.999999983317419E+00
 * Warning: The system has a total charge of      0.99999998 .
 * The dipole moment depends on the choice of the origin.
  | Total dipole moment [eAng]          :          0.474005733236555E-14         0.124873313045025E-02         0.587675039730319E+00
  | Absolute dipole moment              :          0.587676366426678E+00 eAng              /                   0.282228996738712E+01 Debye  .
  Removing unitary transformations (pure translations, rotations) from forces on atoms.
  Atomic forces before filtering:
  | Net force on center of mass :   0.529176E-12  0.183190E-03  0.191294E-02 eV/A
  | Net torque on center of mass:   0.334367E-04 -0.134084E-12 -0.116586E-13 eV
  Atomic forces after filtering:
  | Net force on center of mass :  -0.339070E-19  0.000000E+00  0.278760E-17 eV/A
  | Net torque on center of mass:   0.442540E-17 -0.682354E-19  0.296024E-18 eV

  Energy and forces in a compact form:
  | Total energy uncorrected      :         -0.207279291793274E+04 eV
  | Total energy corrected        :         -0.207279291793274E+04 eV  <-- do not rely on this value for anything but (periodic) metals
  | Electronic free energy        :         -0.207279291793274E+04 eV
  Total atomic forces (unitary forces cleaned) [eV/Ang]:
  |   1          0.367140892581689E-12          0.788605802142435E-01          0.194257076883538E-01
  |   2         -0.510718595692540E-03          0.161889451343760E-02          0.134535043806634E-02
  |   3          0.510718595439522E-03          0.161889451342357E-02          0.134535043819264E-02
  |   4         -0.114123243197847E-12         -0.820983692411047E-01         -0.221164085646128E-01

  ------------------------------------ 
  Start decomposition of the XC Energy 
  ------------------------------------ 
  X and C from original XC functional choice 
  Hartree-Fock Energy :          0.000000000 Ha              0.000000000 eV
  X Energy            :         -8.139423076 Ha           -221.484970921 eV
  C Energy            :         -0.663590825 Ha            -18.057225094 eV
  Total XC Energy     :         -8.803013901 Ha           -239.542196015 eV
  ------------------------------------ 
  LDA X and C from self-consistent density 
  X Energy LDA        :         -8.139423076 Ha           -221.484970921 eV
  C Energy LDA        :         -0.663590825 Ha            -18.057225094 eV
  ------------------------------------ 
  End decomposition of the XC Energy 
  ------------------------------------ 

------------------------------------------------------------

------------------------------------------------------------------------------
  Final output of selected total energy values:

  The following output summarizes some interesting total energy values
  at the end of a run (AFTER all relaxation, molecular dynamics, etc.).

  | Total energy of the DFT / Hartree-Fock s.c.f. calculation      :          -2072.792917933 eV
  | Final zero-broadening corrected energy (caution - metals only) :          -2072.792917933 eV
  | For reference only, the value of 1 Hartree used in FHI-aims is :             27.211384500 eV

  Before relying on these values, please be sure to understand exactly which
  total energy value is referred to by a given number. Different objects may
  all carry the same name 'total energy'. Definitions:

  Total energy of the DFT / Hartree-Fock s.c.f. calculation:
  | Note that this energy does not include ANY quantities calculated after the
  | s.c.f. cycle, in particular not ANY RPA, MP2, etc. many-body perturbation terms.

  Final zero-broadening corrected energy:
  | For metallic systems only, a broadening of the occupation numbers at the Fermi
  | level can be extrapolated back to zero broadening by an electron-gas inspired
  | formula. For all systems that are not real metals, this value can be
  | meaningless and should be avoided.

------------------------------------------------------------------------------
  Methods described in the following list of references were used in this FHI-aims run.
  If you publish the results, please make sure to cite these reference if they apply.
  FHI-aims is an academic code, and for our developers (often, Ph.D. students
  and postdocs), scientific credit in the community is essential.
  Thank you for helping us!

  For any use of FHI-aims, please cite:

    Volker Blum, Ralf Gehrke, Felix Hanke, Paula Havu, Ville Havu,
    Xinguo Ren, Karsten Reuter, and Matthias Scheffler
    'Ab initio molecular simulations with numeric atom-centered orbitals'
    Computer Physics Communications 180, 2175-2196 (2009)
    http://dx.doi.org/10.1016/j.cpc.2009.06.022


  For the real-space grid partitioning and parallelization used in this calculation, please cite:

    Ville Havu, Volker Blum, Paula Havu, and Matthias Scheffler,
    'Efficient O(N) integration for all-electron electronic structure calculation'
    'using numerically tabulated basis functions'
    Journal of Computational Physics 228, 8367-8379 (2009).
    http://dx.doi.org/10.1016/j.jcp.2009.08.008

  Of course, there are many other important community references, e.g., those cited in the
  above references. Our list is limited to references that describe implementations in the
  FHI-aims code. The reason is purely practical (length of this list) - please credit others as well.

------------------------------------------------------------
          Leaving FHI-aims.
          Date     :  20190509, Time     :  114721.853

          Computational steps:
          | Number of self-consistency cycles          :           13
          | Number of SCF (re)initializations          :            1

          Detailed time accounting                     :  max(cpu_time)    wall_clock(cpu1)
          | Total time                                 :        0.985 s           0.985 s
          | Preparation time                           :        0.048 s           0.048 s
          | Boundary condition initalization           :        0.000 s           0.000 s
          | Grid partitioning                          :        0.015 s           0.015 s
          | Preloading free-atom quantities on grid    :        0.001 s           0.001 s
          | Free-atom superposition energy             :        0.012 s           0.012 s
          | Total time for integrations                :        0.413 s           0.412 s
          | Total time for solution of K.-S. equations :        0.003 s           0.003 s
          | Total time for density & force components  :        0.180 s           0.181 s
          | Total time for mixing                      :        0.010 s           0.011 s
          | Total time for Hartree multipole update    :        0.019 s           0.017 s
          | Total time for Hartree multipole sum       :        0.253 s           0.256 s
          | Total time for total energy evaluation     :        0.001 s           0.002 s

 This is a stub MPI_ALLREDUCE call.
 You should not be here. Check your
 setting on the use_mpi variable, or
 link against true MPI-libraries.
