------------------------------------------------------------
          Invoking FHI-aims ...
          Version 171221_1
          Compiled on 2019/05/06 at 14:26:40 on host ffph0xx.

          When using FHI-aims, please cite the following reference:

          Volker Blum, Ralf Gehrke, Felix Hanke, Paula Havu,
          Ville Havu, Xinguo Ren, Karsten Reuter, and Matthias Scheffler,
          'Ab Initio Molecular Simulations with Numeric Atom-Centered Orbitals',
          Computer Physics Communications 180, 2175-2196 (2009)

          For any questions about FHI-aims, please visit the aimsclub website
          with its forums and wiki. Contributions to both the forums and the
          wiki are warmly encouraged - they are for you, and everyone is welcome there.

------------------------------------------------------------



  Date     :  20190508, Time     :  152704.343
  Time zero on CPU 1             :   0.732000000000000E-03  s.
  Internal wall clock time zero  :           326561224.343  s.

  FHI-aims created a unique identifier for this run for later identification
  aims_uuid : B7B1D6E0-8562-46B6-A250-CB85BE943C1C


  Performing system and environment tests:
  *** Environment variable OMP_NUM_THREADS is not set
  *** For performance reasons you might want to set it to 1
  | Stacksize not measured: no C compiler

  Obtaining array dimensions for all initial allocations:
  
  -----------------------------------------------------------------------
  Parsing control.in (first pass over file, find array dimensions only).
  The contents of control.in will be repeated verbatim below
  unless switched off by setting 'verbatim_writeout .false.' .
  in the first line of control.in .
  -----------------------------------------------------------------------
  
  #--- Specification of method ---
  xc pbe
  charge 0.0
  spin collinear
  default_initial_moment 2.0
  #---
  
  #--- iteration limit ---
  sc_iter_limit 100
  
  # other possible thresholds
  # sc_accuracy_eev ... for sum of Kohn-Sham eigen values
  # sc_accuracy_etot .. total energy
  # sc_accuracy_rho ... electron density
  #---
  
  #--- tasks (what to calculate) ---
  output dipole
  #---
  
  
  ################################################################################
  ############# Species Defaults ####################
  ################################################################################
  
  
  ################################################################################
  #
  #  FHI-aims code project
  # Volker Blum, Fritz Haber Institute Berlin, 2009
  #
  #  Suggested "tight" defaults for O atom (to be pasted into control.in file)
  #
  ################################################################################
    species        O
  #     global species definitions
      nucleus             8
      mass                15.9994
  #
      l_hartree           6
  #
      cut_pot             4.0  2.0  1.0
      basis_dep_cutoff    1e-4
  #
      radial_base         36 7.0
      radial_multiplier   2
       angular_grids specified
        division   0.1817   50
        division   0.3417  110
        division   0.4949  194
        division   0.6251  302
        division   0.8014  434
  #      division   0.8507  590
  #      division   0.8762  770
  #      division   0.9023  974
  #      division   1.2339 1202
  #      outer_grid 974
        outer_grid  434
  ################################################################################
  #
  #  Definition of "minimal" basis
  #
  ################################################################################
  #     valence basis states
      valence      2  s   2.
      valence      2  p   4.
  #     ion occupancy
      ion_occ      2  s   1.
      ion_occ      2  p   3.
  ################################################################################
  #
  #  Suggested additional basis functions. For production calculations,
  #  uncomment them one after another (the most important basis functions are
  #  listed first).
  #
  #  Constructed for dimers: 1.0 A, 1.208 A, 1.5 A, 2.0 A, 3.0 A
  #
  ################################################################################
  #  "First tier" - improvements: -699.05 meV to -159.38 meV
       hydro 2 p 1.8
       hydro 3 d 7.6
       hydro 3 s 6.4
  #  "Second tier" - improvements: -49.91 meV to -5.39 meV
       hydro 4 f 11.6
       hydro 3 p 6.2
       hydro 3 d 5.6
       hydro 5 g 17.6
       hydro 1 s 0.75
  #  "Third tier" - improvements: -2.83 meV to -0.50 meV
  #     ionic 2 p auto
  #     hydro 4 f 10.8
  #     hydro 4 d 4.7
  #     hydro 2 s 6.8
  #  "Fourth tier" - improvements: -0.40 meV to -0.12 meV
  #     hydro 3 p 5
  #     hydro 3 s 3.3
  #     hydro 5 g 15.6
  #     hydro 4 f 17.6
  #     hydro 4 d 14
  # Further basis functions - -0.08 meV and below
  #     hydro 3 s 2.1
  #     hydro 4 d 11.6
  #     hydro 3 p 16
  #     hydro 2 s 17.2
  ################################################################################
  #
  # For methods that use the localized form of the "resolution of identity" for
  # the two-electron Coulomb operator (RI_method LVL), particularly Hartree-Fock and
  # hybrid density functional calculations, the highest accuracy can be obtained by
  # uncommenting the line beginning with "for_aux"  below, thus adding an extra g radial
  # function to the construction of the product basis set for the expansion.
  # See Ref. New J. Phys. 17, 093020 (2015) for more information, particularly Figs. 1 and 6.
  #
  ################################################################################
  #
  # for_aux hydro 5 g 6.0
  
  -----------------------------------------------------------------------
  Completed first pass over input file control.in .
  -----------------------------------------------------------------------
  
  
  -----------------------------------------------------------------------
  Parsing geometry.in (first pass over file, find array dimensions only).
  The contents of geometry.in will be repeated verbatim below
  unless switched off by setting 'verbatim_writeout .false.' .
  in the first line of geometry.in .
  -----------------------------------------------------------------------
  
  # HF with variable bonding distance
  atom 0.0 0.0 0.0 O
  atom 0.0 0.0 0.8 O
  
  -----------------------------------------------------------------------
  Completed first pass over input file geometry.in .
  -----------------------------------------------------------------------
  

  Basic array size parameters:
  | Number of species                 :        1
  | Number of atoms                   :        2
  | Max. basis fn. angular momentum   :        4
  | Max. atomic/ionic basis occupied n:        2
  | Max. number of basis fn. types    :        2
  | Max. radial fns per species/type  :        8
  | Max. logarithmic grid size        :     1301
  | Max. radial integration grid size :       73
  | Max. angular integration grid size:      434
  | Max. angular grid division number :        8
  | Radial grid for Hartree potential :     1301
  | Number of spin channels           :        2

------------------------------------------------------------
          Reading file control.in.
------------------------------------------------------------
  XC: Using PBE gradient-corrected functionals.
  Charge =   0.000000E+00: Neutral system requested explicitly.
  Spin treatment: Spin density functional theory - collinear spins.
  Initial spin moment per atom:   2.0000
  Maximum number of s.-c. iterations  :   100
  Dipole moment will be written out.

  Reading configuration options for species O                   .
  | Found nuclear charge :   8.0000
  | Found atomic mass :    15.999400000000000      amu
  | Found l_max for Hartree potential  :   6
  | Found cutoff potl. onset [A], width [A], scale factor :    4.00000    2.00000    1.00000
  | Threshold for basis-dependent cutoff potential is   0.100000E-03
  | Found data for basic radial integration grid :    36 points, outermost radius =    7.000 A
  | Found multiplier for basic radial grid :   2
  | Found angular grid specification: user-specified.
  | Specified grid contains     6 separate shells.
  | Check grid settings after all constraints further below.
  | Found free-atom valence shell :  2 s   2.000
  | Found free-atom valence shell :  2 p   4.000
  | No ionic wave fns used. Skipping ion_occ.
  | No ionic wave fns used. Skipping ion_occ.
  | Found hydrogenic basis function :  2 p   1.800
  | Found hydrogenic basis function :  3 d   7.600
  | Found hydrogenic basis function :  3 s   6.400
  | Found hydrogenic basis function :  4 f  11.600
  | Found hydrogenic basis function :  3 p   6.200
  | Found hydrogenic basis function :  3 d   5.600
  | Found hydrogenic basis function :  5 g  17.600
  | Found hydrogenic basis function :  1 s   0.750
  Species O                   : Missing cutoff potential type.
  Defaulting to exp(1/x)/(1-x)^2 type cutoff potential.
  Species O : No 'logarithmic' tag. Using default grid for free atom:
  | Default logarithmic grid data [bohr] : 0.1000E-03 0.1000E+03 0.1012E+01
  Species O : On-site basis accuracy parameter (for Gram-Schmidt orthonormalisation) not specified.
  Using default value basis_acc =  0.1000000E-03.
  Species O                   : Using default innermost maximum threshold i_radial=  2 for radial functions.
  Species O                   : Default cutoff onset for free atom density etc. : 0.40000000E+01 AA.
  Species O                   : Basic radial grid will be enhanced according to radial_multiplier =   2, to contain    73 grid points.

  Finished reading input file 'control.in'. Consistency checks are next.

  MPI_IN_PLACE appears to work with this MPI implementation.
  | Keeping use_mpi_in_place .true. (see manual).
  Target number of points in a grid batch is not set. Defaulting to  100
  Method for grid partitioning is not set. Defaulting to 'maxmin' partitioning.
  Batch size limit is not set. Defaulting to    200
  By default, will store active basis functions for each batch.
  If in need of memory, prune_basis_once .false. can be used to disable this option.
  communication_type for Hartree potential was not specified.
  Defaulting to calc_hartree .
 * Attention: 
 * You may want to set distributed_spline_storage to .true. in order to save memory.
 * This doesn't harm performance and is perfectly ok unless:
 * - you get error messages in postprocessing (about missing atoms in get_rho_multipole_spl)
 * - you need full spline storage in hirshfeld_analysis
  Defaulting to Pulay charge density mixer.
  Pulay mixer: Number of relevant iterations not set.
  Defaulting to    8 iterations.
  Pulay mixer: Number of initial linear mixing iterations not set.
  Defaulting to    0 iterations.
  Work space size for distributed Hartree potential not set.
  Defaulting to   0.200000E+03 MB.
  Mixing parameter for charge density mixing has not been set.
  Using default: charge_mix_param =     0.0500.
  The mixing parameter will be adjusted in iteration number     2 of the first full s.c.f. cycle only.
  Mixing parameter for spin density mixing has not been set.
  Using charge_mix_param as default:     0.0500.
  Algorithm-dependent basis array size parameters:
  | n_max_pulay                         :        8
 * Notice: The s.c.f. convergence criterion sc_accuracy_rho was not provided.
 * We used to stop in this case, and ask the user to provide reasonable
 * scf convergence criteria. However, this led some users to employ criteria
 * that led to extremely long run times, e.g., for simple relaxation.
 * We now preset a default value for sc_accuracy_rho if it is not set.
 * You may still wish to check if this setting is too tight or too loose for your needs.
 * Based on n_atoms, FHI-aims chose sc_accuracy_rho =  0.100000E-05 .
  Presetting      1001 iterations before the initial mixing cycle
  is restarted anyway using the sc_init_iter criterion / keyword.
  Presetting a factor      1.000 between actual scf density residual
  and density convergence criterion sc_accuracy_rho below which sc_init_iter
  takes no effect.
 * No s.c.f. convergence criteria (sc_accuracy_*) were provided in control.in.
 * The run will proceed with a reasonable default guess, but please check whether.
 * the s.c.f. cycles seem to take too much or too little time.
  Calculation of forces was not defined in control.in. No forces will be calculated.
  Geometry relaxation not requested: no relaxation will be performed.
  No accuracy limit for integral partition fn. given. Defaulting to  0.1000E-14.
  No threshold value for u(r) in integrations given. Defaulting to  0.1000E-05.
  No occupation type (smearing scheme) given. Defaulting to Gaussian broadening, width =  0.1000E-01 eV.
  The width will be adjusted in iteration number     2 of the first full s.c.f. cycle only.
  S.C.F. convergence parameters will be adjusted in iteration number     2 of the first full s.c.f. cycle only.
  No accuracy for occupation numbers given. Defaulting to  0.1000E-12.
  No threshold value for occupation numbers given. Defaulting to  0.0000E+00.
  No accuracy for fermi level given. Defaulting to  0.1000E-19.
  Maximum # of iterations to find E_F not set. Defaulting to  200.
  Preferred method for the eigenvalue solver ('KS_method') not specified in 'control.in'.
  Defaulting to serial version, 'lapack_fast'.
  Will not use alltoall communication since running on < 1024 CPUs.
  Threshold for basis singularities not set.
  Default threshold for basis singularities:  0.1000E-04
  partition_type (choice of integration weights) for integrals was not specified.
  | Using a version of the partition function of Stratmann and coworkers ('stratmann_smoother').
  | At each grid point, the set of atoms used to build the partition table is smoothly restricted to
  | only those atoms whose free-atom density would be non-zero at that grid point.
  Partitioning for Hartree potential was not defined. Using partition_type for integrals.
  | Adjusted default value of keyword multip_moments_threshold to:       0.10000000E-11
  | This value may affect high angular momentum components of the Hartree potential in periodic systems.
  No q(lm)/r^(l+1) cutoff set for long-range Hartree potential.
  | Using default value of  0.100000E-09 .
  | Verify using the multipole_threshold keyword.
  Defaulting to new monopole extrapolation.
  Density update method: automatic selection selected.
------------------------------------------------------------


------------------------------------------------------------
          Reading geometry description geometry.in.
------------------------------------------------------------
 * Warning! You did not set the 'relativistic' flag in input file 'control.in'.
 * Since you are not attempting to treat any elements beyond Ca(Z=20), FHI-aims
 * will default to 'relativistic none'.
 * You must ensure that this is really what you want!!
 * For example, DO NOT compute total-energy differences between results from
 * different settings of the 'relativistic' flag.
  Input structure read successfully.
  The structure contains        2 atoms,  and a total of         16.000 electrons.

  Input geometry:
  | No unit cell requested.
  | Atomic structure:
  |       Atom                x [A]            y [A]            z [A]
  |    1: Species O             0.00000000        0.00000000        0.00000000
  |    2: Species O             0.00000000        0.00000000        0.80000000
  |

  | The smallest distance between any two atoms is         0.80000000 AA.
  |
  | The first atom of this pair is atom number                      1 .
  | The second atom of this pair is atom number                     2 .

  Initial moments and charges:
  |  Atom   Moment         Charge        Species
  |     1   0.200000E+01   0.000000E+00   O
  |     2   0.200000E+01   0.000000E+00   O

  Number of empty states per atom not set in control.in - providing a guess from actual geometry.
  | Total number of empty states used during s.c.f. cycle:        6
  If you use a very high smearing, use empty_states (per atom!) in control.in to increase this value.

  Structure-dependent array size parameters: 
  | Number of distinct atom types in initial rho :        1
  | Maximum number of distinct radial functions  :       11
  | Maximum number of basis functions            :       78
  | Number of Kohn-Sham states (occupied + empty):       14
------------------------------------------------------------

------------------------------------------------------------
          Preparing all fixed parts of the calculation.
------------------------------------------------------------
  Determining machine precision:
     2.2250738585072014E-308
  Setting up grids for atomic and cluster calculations.

  Creating wave function, potential, and density for free atoms.

  Species: O

  List of occupied orbitals and eigenvalues:
    n    l              occ      energy [Ha]    energy [eV]
    1    0           2.0000       -18.898576      -514.2564
    2    0           2.0000        -0.878795       -23.9132
    2    1           4.0000        -0.332075        -9.0362

  Spin-polarized or charged system:
  Charge density initialized according to selected moments and charges.

  Creating spin-polarized density from free atoms.

  Species: O
  Charge:   0.000000
  Moment:   2.000000

  List of occupied orbitals and eigenvalues:
    n    l      energy [Ha]    energy [eV]    occupation
  Spin-up
    1    0       -18.902870      -514.3733     1.00000000
    2    0        -0.924859       -25.1667     1.00000000
    2    1        -0.375913       -10.2291     3.00000000
  Spin-down
    1    0       -18.857549      -513.1400     1.00000000
    2    0        -0.805583       -21.9210     1.00000000
    2    1        -0.264264        -7.1910     1.00000000

  Creating fixed part of basis set: Ionic, confined, hydrogenic.

  O                    hydrogenic:

  List of hydrogenic basis orbitals: 
    n    l      effective z      eigenvalue [eV]  inner max. [A]     outer max. [A]     outer radius [A]   
    2    1         1.800000       -11.0118           1.178562           1.178562           5.432602
    3    2         7.600000       -87.3182           0.624125           0.624125           3.541477
    3    0         6.400000       -61.9209           0.061167           1.081902           4.306578
    4    3        11.600000      -114.4238           0.731631           0.731631           3.585037
    3    1         6.200000       -58.1113           0.255680           1.030270           4.306578
    3    2         5.600000       -47.4081           0.847233           0.847233           4.413171
    5    4        17.600000      -168.5799           0.749740           0.749740           3.372465
    1    0         0.750000        -7.6499           0.705284           0.705284           5.366593


  Adding cutoff potential to free-atom effective potential.
  Creating atomic-like basis functions for current effective potential.

  Species O                   :

  List of atomic basis orbitals and eigenvalues:
    n    l      energy [Ha]    energy [eV]    outer radius [A]
    1    0       -18.898576      -514.2564       1.415765
    2    0        -0.878795       -23.9132       5.048385
    2    1        -0.332075        -9.0362       5.301386

  Assembling full basis from fixed parts.
  | Species O :   atomic orbital   1 s accepted.
  | Species O :    hydro orbital   3 s accepted.
  | Species O :   atomic orbital   2 s accepted.
  | Species O :    hydro orbital   1 s accepted.
  | Species O :    hydro orbital   3 p accepted.
  | Species O :   atomic orbital   2 p accepted.
  | Species O :    hydro orbital   2 p accepted.
  | Species O :    hydro orbital   3 d accepted.
  | Species O :    hydro orbital   3 d accepted.
  | Species O :    hydro orbital   4 f accepted.
  | Species O :    hydro orbital   5 g accepted.

  Basis size parameters after reduction:
  | Total number of radial functions:       11
  | Total number of basis functions :       78

  Per-task memory consumption for arrays in subroutine allocate_ext:
  |           2.750028MB.
  Testing on-site integration grid accuracy.
  |  Species  Function  <phi|h_atom|phi> (log., in eV)  <phi|h_atom|phi> (rad., in eV)
           1        1               -514.2564144315               -514.2564099626
           1        2                 15.1726678541                 15.1726530877
           1        3                -21.5447785304                -21.5447874973
           1        4                 14.4944558459                 14.4944698284
           1        5                 20.8882174564                 20.8882178906
           1        6                 -2.4850315909                 -2.4850322289
           1        7                 13.8600193195                 13.8599826966
           1        8                 45.8243383616                 45.8243383675
           1        9                 52.1840606465                 52.1840622440
           1       10                 85.4074185510                 85.4074185819
           1       11                142.0983717302                142.0983717339

  Preparing densities etc. for the partition functions (integrals / Hartree potential).

  Preparations completed.
  max(cpu_time)          :      0.119 s.
  Wall clock time (cpu1) :      0.120 s.
------------------------------------------------------------

------------------------------------------------------------
          Begin self-consistency loop: Initialization.

          Date     :  20190508, Time     :  152704.464
------------------------------------------------------------

  Initializing index lists of integration centers etc. from given atomic structure:
  | Number of centers in hartree potential         :         2
  | Number of centers in hartree multipole         :         2
  | Number of centers in electron density summation:         2
  | Number of centers in basis integrals           :         2
  | Number of centers in integrals                 :         2
  | Number of centers in hamiltonian               :         2
  Partitioning the integration grid into batches with maxmin method.
  | Maximal weight for a single point:     1.000
  | Minimal weight for a single point:     0.000
  | Number of batches:      488
  | Maximal batch size:     161
  | Minimal batch size:      76
  | Average batch size:      82.533
  | Standard deviation of batch sizes:      16.972
  Initializing partition tables, free-atom densities, potentials, etc. across the integration grid (initialize_grid_storage).
  | initialize_grid_storage: Actual outermost partition radius vs. multipole_radius_free
  | (-- VB: in principle, multipole_radius_free should be larger, hence this output)
  | Species        1: Confinement radius =              6.000000000000000 AA, multipole_radius_free =              6.064445521808699 AA.
  | Species        1: outer_partition_radius set to              6.064445521808699 AA .
  | Original list of interatomic distances with           2 x          2 entries is created.
  | Net number of integration points:    40276
  | of which are non-zero points    :    37104
  Renormalizing the initial density to the exact electron count on the 3D integration grid.
  | Initial density: Formal number of electrons (from input files) :      16.0000000000
  | Integrated number of electrons on 3D grid     :      15.9999996308
  | Charge integration error                      :      -0.0000003692
  | Normalization factor for density and gradient :       1.0000000231
  Obtaining max. number of non-zero basis functions in each batch (get_n_compute_maxes).
  | Maximal number of non-zero basis functions:       78 in task     0
  Selecting the method for density update.
  Loop over occupied states selected for charge density update.
  Allocating        0.017 MB for KS_eigenvector
  Integrating Hamiltonian matrix: batch-based integration.
  Time summed over all CPUs for integration: real work        0.229 s, elapsed        0.229 s
  Integrating overlap matrix.
  Time summed over all CPUs for integration: real work        0.065 s, elapsed        0.065 s

  Updating Kohn-Sham eigenvalues, eigenvectors, occupation numbers, and Fermi level.
  Solving generalized eigenproblem
  Updating Kohn-Sham eigenvalues and eigenfunctions.
  Transforming overlap matrix and checking for singularities.
  Overlap matrix is nonsingular:
  | Lowest eigenvalue:  0.797795E-04
  Solving real generalised eigenvalue problem by standard LAPACK (fast)
  Updating Kohn-Sham eigenvalues and eigenfunctions.
  Solving real generalised eigenvalue problem by standard LAPACK (fast)

  Obtaining occupation numbers and chemical potential using ELSI.
  | Chemical potential (Fermi level):    -2.49265658eV
  Writing Kohn-Sham eigenvalues.

  Spin-up eigenvalues:

  State    Occupation    Eigenvalue [Ha]    Eigenvalue [eV]
      1       1.00000         -19.193520         -522.28225
      2       1.00000         -19.182094         -521.97134
      3       1.00000          -1.906609          -51.88147
      4       1.00000          -0.909460          -24.74767
      5       1.00000          -0.909460          -24.74767
      6       1.00000          -0.780988          -21.25177
      7       1.00000          -0.747679          -20.34539
      8       1.00000          -0.170241           -4.63249
      9       1.00000          -0.170241           -4.63249
     10       0.00000           0.057286            1.55883
     11       0.00000           0.092111            2.50648
     12       0.00000           0.092111            2.50648
     13       0.00000           0.101879            2.77227
     14       0.00000           0.191686            5.21605

  Spin-down eigenvalues:

  State    Occupation    Eigenvalue [Ha]    Eigenvalue [eV]
      1       1.00000         -19.145725         -520.98168
      2       1.00000         -19.134613         -520.67932
      3       1.00000          -1.741241          -47.38157
      4       1.00000          -0.770244          -20.95941
      5       1.00000          -0.770244          -20.95941
      6       1.00000          -0.656631          -17.86783
      7       1.00000          -0.619769          -16.86476
      8       0.00000          -0.050467           -1.37327
      9       0.00000          -0.050467           -1.37327
     10       0.00000           0.080549            2.19184
     11       0.00000           0.112304            3.05595
     12       0.00000           0.112304            3.05595
     13       0.00000           0.120215            3.27121
     14       0.00000           0.211602            5.75797

  Current spin moment of the entire structure :
  | N = N_up - N_down :    2.00
  | S                 :    1.00
  | J                 :    3.00

  Highest occupied state (VBM) at     -4.63248871 eV
  | Occupation number:      1.00000000
  | Spin channel:        1

  Lowest unoccupied state (CBM) at    -1.37326856 eV
  | Occupation number:      0.00000000
  | Spin channel:        2

  Overall HOMO-LUMO gap:      3.25922015 eV.
  Calculating total energy contributions from superposition of free atom densities.

  Total energy components:
  | Sum of eigenvalues            :         -86.80875888 Ha       -2362.18651588 eV
  | XC energy correction          :         -17.31328535 Ha        -471.11846465 eV
  | XC potential correction       :          22.29433311 Ha         606.65967055 eV
  | Free-atom electrostatic energy:         -67.73524200 Ha       -1843.16971424 eV
  | Hartree energy correction     :          -0.00000000 Ha          -0.00000000 eV
  | Entropy correction            :          -0.00000000 Ha          -0.00000000 eV
  | ---------------------------
  | Total energy                  :        -149.56295312 Ha       -4069.81502422 eV
  | Total energy, T -> 0          :        -149.56295312 Ha       -4069.81502422 eV  <-- do not rely on this value for anything but (periodic) metals
  | Electronic free energy        :        -149.56295312 Ha       -4069.81502422 eV

  Derived energy quantities:
  | Kinetic energy                :         151.65851383 Ha        4126.83813239 eV
  | Electrostatic energy          :        -283.90818159 Ha       -7725.53469196 eV
  | Energy correction for multipole
  | error in Hartree potential    :           0.00000000 Ha           0.00000000 eV
  | Sum of eigenvalues per atom                           :       -1181.09325794 eV
  | Total energy (T->0) per atom                          :       -2034.90751211 eV  <-- do not rely on this value for anything but (periodic) metals
  | Electronic free energy per atom                       :       -2034.90751211 eV
  Initialize hartree_potential_storage
  Max. number of atoms included in rho_multipole:            2

  End scf initialization - timings             :  max(cpu_time)    wall_clock(cpu1)
  | Time for scf. initialization               :        0.398 s           0.398 s
  | Boundary condition initialization          :        0.000 s           0.000 s
  | Integration                                :        0.294 s           0.294 s
  | Solution of K.-S. eqns.                    :        0.005 s           0.005 s
  | Grid partitioning                          :        0.035 s           0.035 s
  | Preloading free-atom quantities on grid    :        0.003 s           0.003 s
  | Free-atom superposition energy             :        0.037 s           0.037 s
  | Total energy evaluation                    :        0.000 s           0.000 s

  Partial memory accounting:
  | Current value for overall tracked memory usage on task 0  :           0.140 MB
  | Peak value for overall tracked memory usage on task 0     :           0.645 MB after allocating wave
  | Largest tracked array allocation on task 0 so far         :           0.201 MB  when allocating H_times_psi
  Note:  These values currently only include a subset of arrays which are explicitly tracked.
  The "true" memory usage will be greater.
------------------------------------------------------------

------------------------------------------------------------
          Begin self-consistency iteration #    1

  Date     :  20190508, Time     :  152704.862
------------------------------------------------------------
  Evaluating new KS density.
  Integration grid: deviation in total charge (<rho> - N_e) =   2.486900E-14
  | <rho_up-rho_dn> = N_up-N_dn =      2.0000; <|rho_up-rho_dn|> =      2.0135
  Pulay mixing of updated and previous charge densities.

  Evaluating partitioned Hartree potential by multipole expansion.
  | Analytical far-field extrapolation by fixed multipoles:
  | Hartree multipole sum: apparent total charge =  -0.372449E-06
  Summing up the Hartree potential.
  Time summed over all CPUs for potential: real work        0.027 s, elapsed        0.027 s
  | RMS charge density error from multipole expansion :   0.474612E-03

  Integrating Hamiltonian matrix: batch-based integration.
  Time summed over all CPUs for integration: real work        0.242 s, elapsed        0.242 s

  Updating Kohn-Sham eigenvalues, eigenvectors, occupation numbers, and Fermi level.
  Solving generalized eigenproblem
  Updating Kohn-Sham eigenvalues and eigenfunctions.
  Solving real generalised eigenvalue problem by standard LAPACK (fast)
  Updating Kohn-Sham eigenvalues and eigenfunctions.
  Solving real generalised eigenvalue problem by standard LAPACK (fast)

  Obtaining occupation numbers and chemical potential using ELSI.
  | Chemical potential (Fermi level):    -2.42093311eV
  Writing Kohn-Sham eigenvalues.

  Spin-up eigenvalues:

  State    Occupation    Eigenvalue [Ha]    Eigenvalue [eV]
      1       1.00000         -19.140061         -520.82756
      2       1.00000         -19.128639         -520.51674
      3       1.00000          -1.865090          -50.75167
      4       1.00000          -0.880344          -23.95539
      5       1.00000          -0.880344          -23.95539
      6       1.00000          -0.757196          -20.60435
      7       1.00000          -0.721018          -19.61989
      8       1.00000          -0.146231           -3.97915
      9       1.00000          -0.146231           -3.97915
     10       0.00000           0.060210            1.63839
     11       0.00000           0.094413            2.56911
     12       0.00000           0.094413            2.56911
     13       0.00000           0.104185            2.83502
     14       0.00000           0.194264            5.28621

  Spin-down eigenvalues:

  State    Occupation    Eigenvalue [Ha]    Eigenvalue [eV]
      1       1.00000         -19.093330         -519.55594
      2       1.00000         -19.082200         -519.25307
      3       1.00000          -1.707646          -46.46741
      4       1.00000          -0.745167          -20.27703
      5       1.00000          -0.745167          -20.27703
      6       1.00000          -0.636441          -17.31844
      7       1.00000          -0.597937          -16.27070
      8       0.00000          -0.030334           -0.82543
      9       0.00000          -0.030334           -0.82543
     10       0.00000           0.083295            2.26656
     11       0.00000           0.114418            3.11346
     12       0.00000           0.114418            3.11346
     13       0.00000           0.122531            3.33423
     14       0.00000           0.213431            5.80774

  Current spin moment of the entire structure :
  | N = N_up - N_down :    2.00
  | S                 :    1.00
  | J                 :    3.00

  Highest occupied state (VBM) at     -3.97915074 eV
  | Occupation number:      1.00000000
  | Spin channel:        1

  Lowest unoccupied state (CBM) at    -0.82543238 eV
  | Occupation number:      0.00000000
  | Spin channel:        2

  Overall HOMO-LUMO gap:      3.15371836 eV.

  Total energy components:
  | Sum of eigenvalues            :         -86.27304145 Ha       -2347.60890279 eV
  | XC energy correction          :         -17.33797535 Ha        -471.79031375 eV
  | XC potential correction       :          22.32607336 Ha         607.52336659 eV
  | Free-atom electrostatic energy:         -67.73524200 Ha       -1843.16971424 eV
  | Hartree energy correction     :          -0.51981634 Ha         -14.14492240 eV
  | Entropy correction            :          -0.00000000 Ha          -0.00000000 eV
  | ---------------------------
  | Total energy                  :        -149.54000178 Ha       -4069.19048659 eV
  | Total energy, T -> 0          :        -149.54000178 Ha       -4069.19048659 eV  <-- do not rely on this value for anything but (periodic) metals
  | Electronic free energy        :        -149.54000178 Ha       -4069.19048659 eV

  Derived energy quantities:
  | Kinetic energy                :         152.04197354 Ha        4137.27260205 eV
  | Electrostatic energy          :        -284.24399997 Ha       -7734.67277489 eV
  | Energy correction for multipole
  | error in Hartree potential    :          -0.00083214 Ha          -0.02264363 eV
  | Sum of eigenvalues per atom                           :       -1173.80445140 eV
  | Total energy (T->0) per atom                          :       -2034.59524330 eV  <-- do not rely on this value for anything but (periodic) metals
  | Electronic free energy per atom                       :       -2034.59524330 eV

  Self-consistency convergence accuracy:
  | Change of charge/spin density :  0.4292E+00  0.4979E+00
  | Change of sum of eigenvalues  :  0.1458E+02 eV
  | Change of total energy        :  0.6245E+00 eV

  End self-consistency iteration #     1       :  max(cpu_time)    wall_clock(cpu1)
  | Time for this iteration                    :        0.427 s           0.427 s
  | Charge density update                      :        0.150 s           0.150 s
  | Density mixing                             :        0.003 s           0.003 s
  | Hartree multipole update                   :        0.002 s           0.002 s
  | Hartree multipole summation                :        0.027 s           0.027 s
  | Integration                                :        0.242 s           0.242 s
  | Solution of K.-S. eqns.                    :        0.003 s           0.003 s
  | Total energy evaluation                    :        0.000 s           0.000 s

  Partial memory accounting:
  | Current value for overall tracked memory usage on task 0  :           0.140 MB
  | Peak value for overall tracked memory usage on task 0     :           0.693 MB after allocating wave
  | Largest tracked array allocation on task 0 so far         :           0.301 MB  when allocating gradient_basis_wave
  Note:  These values currently only include a subset of arrays which are explicitly tracked.
  The "true" memory usage will be greater.
------------------------------------------------------------

------------------------------------------------------------
          Begin self-consistency iteration #    2

  Date     :  20190508, Time     :  152705.290
------------------------------------------------------------
  Evaluating new KS density.
  Integration grid: deviation in total charge (<rho> - N_e) =   7.815970E-14
  | <rho_up-rho_dn> = N_up-N_dn =      2.0000; <|rho_up-rho_dn|> =      2.0137
  Pulay mixing of updated and previous charge densities.

  Evaluating partitioned Hartree potential by multipole expansion.
  | Analytical far-field extrapolation by fixed multipoles:
  | Hartree multipole sum: apparent total charge =  -0.395527E-06
  Summing up the Hartree potential.
  Time summed over all CPUs for potential: real work        0.029 s, elapsed        0.029 s
  | RMS charge density error from multipole expansion :   0.393810E-02

  Integrating Hamiltonian matrix: batch-based integration.
  Time summed over all CPUs for integration: real work        0.281 s, elapsed        0.281 s

  Updating Kohn-Sham eigenvalues, eigenvectors, occupation numbers, and Fermi level.
  Solving generalized eigenproblem
  Updating Kohn-Sham eigenvalues and eigenfunctions.
  Solving real generalised eigenvalue problem by standard LAPACK (fast)
  Updating Kohn-Sham eigenvalues and eigenfunctions.
  Solving real generalised eigenvalue problem by standard LAPACK (fast)

  Obtaining occupation numbers and chemical potential using ELSI.
  | Chemical potential (Fermi level):    -0.01495414eV
  Current spin moment of the entire structure :
  | N = N_up - N_down :    2.00
  | S                 :    1.00
  | J                 :    3.00

  Highest occupied state (VBM) at     -1.16956825 eV
  | Occupation number:      1.00000000
  | Spin channel:        1

  Lowest unoccupied state (CBM) at     1.29608071 eV
  | Occupation number:      0.00000000
  | Spin channel:        2

  Overall HOMO-LUMO gap:      2.46564896 eV.

  Checking to see if s.c.f. parameters should be adjusted.
  The system likely has a gap. Increased the default Pulay mixing parameter (charge_mix_param). Value:   0.200000 .
  Kept the default occupation width. Value:   0.010000 eV.

  Total energy components:
  | Sum of eigenvalues            :         -83.81970511 Ha       -2280.85022433 eV
  | XC energy correction          :         -17.55211957 Ha        -477.61747448 eV
  | XC potential correction       :          22.60169819 Ha         615.02349967 eV
  | Free-atom electrostatic energy:         -67.73524200 Ha       -1843.16971424 eV
  | Hartree energy correction     :          -3.00722805 Ha         -81.83083882 eV
  | Entropy correction            :          -0.00000000 Ha          -0.00000000 eV
  | ---------------------------
  | Total energy                  :        -149.51259655 Ha       -4068.44475220 eV
  | Total energy, T -> 0          :        -149.51259655 Ha       -4068.44475220 eV  <-- do not rely on this value for anything but (periodic) metals
  | Electronic free energy        :        -149.51259655 Ha       -4068.44475220 eV

  Derived energy quantities:
  | Kinetic energy                :         154.10779063 Ha        4193.48634522 eV
  | Electrostatic energy          :        -286.06826760 Ha       -7784.31362294 eV
  | Energy correction for multipole
  | error in Hartree potential    :          -0.00667467 Ha          -0.18162712 eV
  | Sum of eigenvalues per atom                           :       -1140.42511217 eV
  | Total energy (T->0) per atom                          :       -2034.22237610 eV  <-- do not rely on this value for anything but (periodic) metals
  | Electronic free energy per atom                       :       -2034.22237610 eV

  Self-consistency convergence accuracy:
  | Change of charge/spin density :  0.3811E+00  0.4791E+00
  | Change of sum of eigenvalues  :  0.6676E+02 eV
  | Change of total energy        :  0.7457E+00 eV

  End self-consistency iteration #     2       :  max(cpu_time)    wall_clock(cpu1)
  | Time for this iteration                    :        0.477 s           0.477 s
  | Charge density update                      :        0.156 s           0.155 s
  | Density mixing                             :        0.005 s           0.006 s
  | Hartree multipole update                   :        0.003 s           0.002 s
  | Hartree multipole summation                :        0.029 s           0.029 s
  | Integration                                :        0.281 s           0.281 s
  | Solution of K.-S. eqns.                    :        0.003 s           0.003 s
  | Total energy evaluation                    :        0.000 s           0.001 s

  Partial memory accounting:
  | Current value for overall tracked memory usage on task 0  :           0.142 MB
  | Peak value for overall tracked memory usage on task 0     :           0.694 MB after allocating wave
  | Largest tracked array allocation on task 0 so far         :           0.301 MB  when allocating gradient_basis_wave
  Note:  These values currently only include a subset of arrays which are explicitly tracked.
  The "true" memory usage will be greater.
------------------------------------------------------------

------------------------------------------------------------
          Begin self-consistency iteration #    3

  Date     :  20190508, Time     :  152705.767
------------------------------------------------------------
  Evaluating new KS density.
  Integration grid: deviation in total charge (<rho> - N_e) =  -8.881784E-14
  | <rho_up-rho_dn> = N_up-N_dn =      2.0000; <|rho_up-rho_dn|> =      2.0148
  Pulay mixing of updated and previous charge densities.

  Evaluating partitioned Hartree potential by multipole expansion.
  | Analytical far-field extrapolation by fixed multipoles:
  | Hartree multipole sum: apparent total charge =  -0.630117E-06
  Summing up the Hartree potential.
  Time summed over all CPUs for potential: real work        0.029 s, elapsed        0.029 s
  | RMS charge density error from multipole expansion :   0.771659E-02

  Integrating Hamiltonian matrix: batch-based integration.
  Time summed over all CPUs for integration: real work        0.250 s, elapsed        0.250 s

  Updating Kohn-Sham eigenvalues, eigenvectors, occupation numbers, and Fermi level.
  Solving generalized eigenproblem
  Updating Kohn-Sham eigenvalues and eigenfunctions.
  Solving real generalised eigenvalue problem by standard LAPACK (fast)
  Updating Kohn-Sham eigenvalues and eigenfunctions.
  Solving real generalised eigenvalue problem by standard LAPACK (fast)

  Obtaining occupation numbers and chemical potential using ELSI.
  | Chemical potential (Fermi level):     1.29204077eV
  Current spin moment of the entire structure :
  | N = N_up - N_down :    2.00
  | S                 :    1.00
  | J                 :    3.00

  Highest occupied state (VBM) at      0.73753134 eV
  | Occupation number:      1.00000000
  | Spin channel:        1
 * WARNING: The VBM is higher than the internal energy zero!

  Lowest unoccupied state (CBM) at     2.32542468 eV
  | Occupation number:      0.00000000
  | Spin channel:        1

  Overall HOMO-LUMO gap:      1.58789334 eV.

  Total energy components:
  | Sum of eigenvalues            :         -81.83692070 Ha       -2226.89591556 eV
  | XC energy correction          :         -17.75688366 Ha        -483.18938883 eV
  | XC potential correction       :          22.86492769 Ha         622.18633888 eV
  | Free-atom electrostatic energy:         -67.73524200 Ha       -1843.16971424 eV
  | Hartree energy correction     :          -5.11642225 Ha        -139.22493316 eV
  | Entropy correction            :          -0.00000000 Ha          -0.00000000 eV
  | ---------------------------
  | Total energy                  :        -149.58054093 Ha       -4070.29361290 eV
  | Total energy, T -> 0          :        -149.58054093 Ha       -4070.29361290 eV  <-- do not rely on this value for anything but (periodic) metals
  | Electronic free energy        :        -149.58054093 Ha       -4070.29361290 eV

  Derived energy quantities:
  | Kinetic energy                :         155.77459551 Ha        4238.84241368 eV
  | Electrostatic energy          :        -287.59825277 Ha       -7825.94663776 eV
  | Energy correction for multipole
  | error in Hartree potential    :          -0.01303526 Ha          -0.35470737 eV
  | Sum of eigenvalues per atom                           :       -1113.44795778 eV
  | Total energy (T->0) per atom                          :       -2035.14680645 eV  <-- do not rely on this value for anything but (periodic) metals
  | Electronic free energy per atom                       :       -2035.14680645 eV

  Self-consistency convergence accuracy:
  | Change of charge/spin density :  0.1193E+00  0.2966E+00
  | Change of sum of eigenvalues  :  0.5395E+02 eV
  | Change of total energy        : -0.1849E+01 eV

  End self-consistency iteration #     3       :  max(cpu_time)    wall_clock(cpu1)
  | Time for this iteration                    :        0.449 s           0.449 s
  | Charge density update                      :        0.159 s           0.159 s
  | Density mixing                             :        0.005 s           0.005 s
  | Hartree multipole update                   :        0.003 s           0.003 s
  | Hartree multipole summation                :        0.029 s           0.029 s
  | Integration                                :        0.250 s           0.250 s
  | Solution of K.-S. eqns.                    :        0.003 s           0.002 s
  | Total energy evaluation                    :        0.000 s           0.000 s

  Partial memory accounting:
  | Current value for overall tracked memory usage on task 0  :           0.142 MB
  | Peak value for overall tracked memory usage on task 0     :           0.695 MB after allocating wave
  | Largest tracked array allocation on task 0 so far         :           0.301 MB  when allocating gradient_basis_wave
  Note:  These values currently only include a subset of arrays which are explicitly tracked.
  The "true" memory usage will be greater.
------------------------------------------------------------

------------------------------------------------------------
          Begin self-consistency iteration #    4

  Date     :  20190508, Time     :  152706.216
------------------------------------------------------------
  Evaluating new KS density.
  Integration grid: deviation in total charge (<rho> - N_e) =  -2.309264E-14
  | <rho_up-rho_dn> = N_up-N_dn =      2.0000; <|rho_up-rho_dn|> =      2.0237
  Pulay mixing of updated and previous charge densities.

  Evaluating partitioned Hartree potential by multipole expansion.
  | Analytical far-field extrapolation by fixed multipoles:
  | Hartree multipole sum: apparent total charge =  -0.566718E-06
  Summing up the Hartree potential.
  Time summed over all CPUs for potential: real work        0.028 s, elapsed        0.028 s
  | RMS charge density error from multipole expansion :   0.779459E-02

  Integrating Hamiltonian matrix: batch-based integration.
  Time summed over all CPUs for integration: real work        0.236 s, elapsed        0.236 s

  Updating Kohn-Sham eigenvalues, eigenvectors, occupation numbers, and Fermi level.
  Solving generalized eigenproblem
  Updating Kohn-Sham eigenvalues and eigenfunctions.
  Solving real generalised eigenvalue problem by standard LAPACK (fast)
  Updating Kohn-Sham eigenvalues and eigenfunctions.
  Solving real generalised eigenvalue problem by standard LAPACK (fast)

  Obtaining occupation numbers and chemical potential using ELSI.
  | Chemical potential (Fermi level):     2.34635972eV
  Current spin moment of the entire structure :
  | N = N_up - N_down :    2.00
  | S                 :    1.00
  | J                 :    3.00

  Highest occupied state (VBM) at      0.95018760 eV
  | Occupation number:      1.00000000
  | Spin channel:        1
 * WARNING: The VBM is higher than the internal energy zero!

  Lowest unoccupied state (CBM) at     2.40598129 eV
  | Occupation number:      0.00000000
  | Spin channel:        1

  Overall HOMO-LUMO gap:      1.45579369 eV.

  Total energy components:
  | Sum of eigenvalues            :         -81.62979944 Ha       -2221.25985931 eV
  | XC energy correction          :         -17.78043686 Ha        -483.83030405 eV
  | XC potential correction       :          22.89595867 Ha         623.03073485 eV
  | Free-atom electrostatic energy:         -67.73524200 Ha       -1843.16971424 eV
  | Hartree energy correction     :          -5.34032266 Ha        -145.31757324 eV
  | Entropy correction            :          -0.00000000 Ha          -0.00000000 eV
  | ---------------------------
  | Total energy                  :        -149.58984230 Ha       -4070.54671599 eV
  | Total energy, T -> 0          :        -149.58984230 Ha       -4070.54671599 eV  <-- do not rely on this value for anything but (periodic) metals
  | Electronic free energy        :        -149.58984230 Ha       -4070.54671599 eV

  Derived energy quantities:
  | Kinetic energy                :         155.90636712 Ha        4242.42810175 eV
  | Electrostatic energy          :        -287.71577255 Ha       -7829.14451369 eV
  | Energy correction for multipole
  | error in Hartree potential    :          -0.01317589 Ha          -0.35853411 eV
  | Sum of eigenvalues per atom                           :       -1110.62992965 eV
  | Total energy (T->0) per atom                          :       -2035.27335799 eV  <-- do not rely on this value for anything but (periodic) metals
  | Electronic free energy per atom                       :       -2035.27335799 eV

  Self-consistency convergence accuracy:
  | Change of charge/spin density :  0.3098E+00  0.1257E+00
  | Change of sum of eigenvalues  :  0.5636E+01 eV
  | Change of total energy        : -0.2531E+00 eV

  End self-consistency iteration #     4       :  max(cpu_time)    wall_clock(cpu1)
  | Time for this iteration                    :        0.420 s           0.419 s
  | Charge density update                      :        0.143 s           0.143 s
  | Density mixing                             :        0.006 s           0.006 s
  | Hartree multipole update                   :        0.003 s           0.003 s
  | Hartree multipole summation                :        0.028 s           0.028 s
  | Integration                                :        0.237 s           0.237 s
  | Solution of K.-S. eqns.                    :        0.003 s           0.002 s
  | Total energy evaluation                    :        0.000 s           0.000 s

  Partial memory accounting:
  | Current value for overall tracked memory usage on task 0  :           0.142 MB
  | Peak value for overall tracked memory usage on task 0     :           0.695 MB after allocating wave
  | Largest tracked array allocation on task 0 so far         :           0.301 MB  when allocating gradient_basis_wave
  Note:  These values currently only include a subset of arrays which are explicitly tracked.
  The "true" memory usage will be greater.
------------------------------------------------------------

------------------------------------------------------------
          Begin self-consistency iteration #    5

  Date     :  20190508, Time     :  152706.635
------------------------------------------------------------
  Evaluating new KS density.
  Integration grid: deviation in total charge (<rho> - N_e) =   4.263256E-14
  | <rho_up-rho_dn> = N_up-N_dn =      2.0000; <|rho_up-rho_dn|> =      2.0239
  Pulay mixing of updated and previous charge densities.

  Evaluating partitioned Hartree potential by multipole expansion.
  | Analytical far-field extrapolation by fixed multipoles:
  | Hartree multipole sum: apparent total charge =  -0.126991E-05
  Summing up the Hartree potential.
  Time summed over all CPUs for potential: real work        0.026 s, elapsed        0.026 s
  | RMS charge density error from multipole expansion :   0.674013E-02

  Integrating Hamiltonian matrix: batch-based integration.
  Time summed over all CPUs for integration: real work        0.232 s, elapsed        0.232 s

  Updating Kohn-Sham eigenvalues, eigenvectors, occupation numbers, and Fermi level.
  Solving generalized eigenproblem
  Updating Kohn-Sham eigenvalues and eigenfunctions.
  Solving real generalised eigenvalue problem by standard LAPACK (fast)
  Updating Kohn-Sham eigenvalues and eigenfunctions.
  Solving real generalised eigenvalue problem by standard LAPACK (fast)

  Obtaining occupation numbers and chemical potential using ELSI.
  | Chemical potential (Fermi level):    -0.27816284eV
  Current spin moment of the entire structure :
  | N = N_up - N_down :    2.00
  | S                 :    1.00
  | J                 :    3.00

  Highest occupied state (VBM) at     -1.89268998 eV
  | Occupation number:      1.00000000
  | Spin channel:        1

  Lowest unoccupied state (CBM) at     0.13653247 eV
  | Occupation number:      0.00000000
  | Spin channel:        2

  Overall HOMO-LUMO gap:      2.02922245 eV.

  Total energy components:
  | Sum of eigenvalues            :         -84.27991483 Ha       -2293.37316797 eV
  | XC energy correction          :         -17.48537408 Ha        -475.80123712 eV
  | XC potential correction       :          22.50806874 Ha         612.47571271 eV
  | Free-atom electrostatic energy:         -67.73524200 Ha       -1843.16971424 eV
  | Hartree energy correction     :          -2.53366079 Ha         -68.94441791 eV
  | Entropy correction            :          -0.00000000 Ha          -0.00000000 eV
  | ---------------------------
  | Total energy                  :        -149.52612296 Ha       -4068.81282453 eV
  | Total energy, T -> 0          :        -149.52612296 Ha       -4068.81282453 eV  <-- do not rely on this value for anything but (periodic) metals
  | Electronic free energy        :        -149.52612296 Ha       -4068.81282453 eV

  Derived energy quantities:
  | Kinetic energy                :         154.08271422 Ha        4192.80398139 eV
  | Electrostatic energy          :        -286.12346310 Ha       -7785.81556880 eV
  | Energy correction for multipole
  | error in Hartree potential    :          -0.01126933 Ha          -0.30665395 eV
  | Sum of eigenvalues per atom                           :       -1146.68658399 eV
  | Total energy (T->0) per atom                          :       -2034.40641226 eV  <-- do not rely on this value for anything but (periodic) metals
  | Electronic free energy per atom                       :       -2034.40641226 eV

  Self-consistency convergence accuracy:
  | Change of charge/spin density :  0.3335E+00  0.1373E+00
  | Change of sum of eigenvalues  : -0.7211E+02 eV
  | Change of total energy        :  0.1734E+01 eV

  End self-consistency iteration #     5       :  max(cpu_time)    wall_clock(cpu1)
  | Time for this iteration                    :        0.414 s           0.415 s
  | Charge density update                      :        0.145 s           0.145 s
  | Density mixing                             :        0.006 s           0.006 s
  | Hartree multipole update                   :        0.002 s           0.003 s
  | Hartree multipole summation                :        0.026 s           0.026 s
  | Integration                                :        0.232 s           0.232 s
  | Solution of K.-S. eqns.                    :        0.003 s           0.003 s
  | Total energy evaluation                    :        0.000 s           0.000 s

  Partial memory accounting:
  | Current value for overall tracked memory usage on task 0  :           0.142 MB
  | Peak value for overall tracked memory usage on task 0     :           0.695 MB after allocating wave
  | Largest tracked array allocation on task 0 so far         :           0.301 MB  when allocating gradient_basis_wave
  Note:  These values currently only include a subset of arrays which are explicitly tracked.
  The "true" memory usage will be greater.
------------------------------------------------------------

------------------------------------------------------------
          Begin self-consistency iteration #    6

  Date     :  20190508, Time     :  152707.050
------------------------------------------------------------
  Evaluating new KS density.
  Integration grid: deviation in total charge (<rho> - N_e) =  -9.414691E-14
  | <rho_up-rho_dn> = N_up-N_dn =      2.0000; <|rho_up-rho_dn|> =      2.0204
  Pulay mixing of updated and previous charge densities.

  Evaluating partitioned Hartree potential by multipole expansion.
  | Analytical far-field extrapolation by fixed multipoles:
  | Hartree multipole sum: apparent total charge =  -0.123696E-05
  Summing up the Hartree potential.
  Time summed over all CPUs for potential: real work        0.028 s, elapsed        0.028 s
  | RMS charge density error from multipole expansion :   0.662902E-02

  Integrating Hamiltonian matrix: batch-based integration.
  Time summed over all CPUs for integration: real work        0.261 s, elapsed        0.261 s

  Updating Kohn-Sham eigenvalues, eigenvectors, occupation numbers, and Fermi level.
  Solving generalized eigenproblem
  Updating Kohn-Sham eigenvalues and eigenfunctions.
  Solving real generalised eigenvalue problem by standard LAPACK (fast)
  Updating Kohn-Sham eigenvalues and eigenfunctions.
  Solving real generalised eigenvalue problem by standard LAPACK (fast)

  Obtaining occupation numbers and chemical potential using ELSI.
  | Chemical potential (Fermi level):    -0.27443710eV
  Current spin moment of the entire structure :
  | N = N_up - N_down :    2.00
  | S                 :    1.00
  | J                 :    3.00

  Highest occupied state (VBM) at     -2.03612065 eV
  | Occupation number:      1.00000000
  | Spin channel:        1

  Lowest unoccupied state (CBM) at     0.01962264 eV
  | Occupation number:      0.00000000
  | Spin channel:        2

  Overall HOMO-LUMO gap:      2.05574330 eV.

  Total energy components:
  | Sum of eigenvalues            :         -84.45583903 Ha       -2298.16030905 eV
  | XC energy correction          :         -17.46473855 Ha        -475.23971596 eV
  | XC potential correction       :          22.48117009 Ha         611.74376326 eV
  | Free-atom electrostatic energy:         -67.73524200 Ha       -1843.16971424 eV
  | Hartree energy correction     :          -2.35110854 Ha         -63.97691861 eV
  | Entropy correction            :          -0.00000000 Ha          -0.00000000 eV
  | ---------------------------
  | Total energy                  :        -149.52575804 Ha       -4068.80289460 eV
  | Total energy, T -> 0          :        -149.52575804 Ha       -4068.80289460 eV  <-- do not rely on this value for anything but (periodic) metals
  | Electronic free energy        :        -149.52575804 Ha       -4068.80289460 eV

  Derived energy quantities:
  | Kinetic energy                :         153.85225958 Ha        4186.53299152 eV
  | Electrostatic energy          :        -285.91327906 Ha       -7780.09617016 eV
  | Energy correction for multipole
  | error in Hartree potential    :          -0.01115849 Ha          -0.30363802 eV
  | Sum of eigenvalues per atom                           :       -1149.08015453 eV
  | Total energy (T->0) per atom                          :       -2034.40144730 eV  <-- do not rely on this value for anything but (periodic) metals
  | Electronic free energy per atom                       :       -2034.40144730 eV

  Self-consistency convergence accuracy:
  | Change of charge/spin density :  0.4673E-01  0.1871E-01
  | Change of sum of eigenvalues  : -0.4787E+01 eV
  | Change of total energy        :  0.9930E-02 eV

  End self-consistency iteration #     6       :  max(cpu_time)    wall_clock(cpu1)
  | Time for this iteration                    :        0.449 s           0.449 s
  | Charge density update                      :        0.144 s           0.144 s
  | Density mixing                             :        0.010 s           0.010 s
  | Hartree multipole update                   :        0.002 s           0.002 s
  | Hartree multipole summation                :        0.028 s           0.028 s
  | Integration                                :        0.262 s           0.261 s
  | Solution of K.-S. eqns.                    :        0.003 s           0.003 s
  | Total energy evaluation                    :        0.000 s           0.001 s

  Partial memory accounting:
  | Current value for overall tracked memory usage on task 0  :           0.143 MB
  | Peak value for overall tracked memory usage on task 0     :           0.696 MB after allocating wave
  | Largest tracked array allocation on task 0 so far         :           0.301 MB  when allocating gradient_basis_wave
  Note:  These values currently only include a subset of arrays which are explicitly tracked.
  The "true" memory usage will be greater.
------------------------------------------------------------

------------------------------------------------------------
          Begin self-consistency iteration #    7

  Date     :  20190508, Time     :  152707.499
------------------------------------------------------------
  Evaluating new KS density.
  Integration grid: deviation in total charge (<rho> - N_e) =   7.815970E-14
  | <rho_up-rho_dn> = N_up-N_dn =      2.0000; <|rho_up-rho_dn|> =      2.0204
  Pulay mixing of updated and previous charge densities.

  Evaluating partitioned Hartree potential by multipole expansion.
  | Analytical far-field extrapolation by fixed multipoles:
  | Hartree multipole sum: apparent total charge =  -0.111077E-05
  Summing up the Hartree potential.
  Time summed over all CPUs for potential: real work        0.029 s, elapsed        0.029 s
  | RMS charge density error from multipole expansion :   0.665696E-02

  Integrating Hamiltonian matrix: batch-based integration.
  Time summed over all CPUs for integration: real work        0.257 s, elapsed        0.257 s

  Updating Kohn-Sham eigenvalues, eigenvectors, occupation numbers, and Fermi level.
  Solving generalized eigenproblem
  Updating Kohn-Sham eigenvalues and eigenfunctions.
  Solving real generalised eigenvalue problem by standard LAPACK (fast)
  Updating Kohn-Sham eigenvalues and eigenfunctions.
  Solving real generalised eigenvalue problem by standard LAPACK (fast)

  Obtaining occupation numbers and chemical potential using ELSI.
  | Chemical potential (Fermi level):    -0.19424749eV
  Current spin moment of the entire structure :
  | N = N_up - N_down :    2.00
  | S                 :    1.00
  | J                 :    3.00

  Highest occupied state (VBM) at     -1.84050870 eV
  | Occupation number:      1.00000000
  | Spin channel:        1

  Lowest unoccupied state (CBM) at     0.23046250 eV
  | Occupation number:      0.00000000
  | Spin channel:        2

  Overall HOMO-LUMO gap:      2.07097120 eV.

  Total energy components:
  | Sum of eigenvalues            :         -84.34347877 Ha       -2295.10283082 eV
  | XC energy correction          :         -17.47500944 Ha        -475.51920092 eV
  | XC potential correction       :          22.49486162 Ha         612.11632869 eV
  | Free-atom electrostatic energy:         -67.73524200 Ha       -1843.16971424 eV
  | Hartree energy correction     :          -2.46663670 Ha         -67.12059975 eV
  | Entropy correction            :          -0.00000000 Ha          -0.00000000 eV
  | ---------------------------
  | Total energy                  :        -149.52550529 Ha       -4068.79601704 eV
  | Total energy, T -> 0          :        -149.52550529 Ha       -4068.79601704 eV  <-- do not rely on this value for anything but (periodic) metals
  | Electronic free energy        :        -149.52550529 Ha       -4068.79601704 eV

  Derived energy quantities:
  | Kinetic energy                :         153.80599254 Ha        4185.27400143 eV
  | Electrostatic energy          :        -285.85648840 Ha       -7778.55081755 eV
  | Energy correction for multipole
  | error in Hartree potential    :          -0.01131792 Ha          -0.30797621 eV
  | Sum of eigenvalues per atom                           :       -1147.55141541 eV
  | Total energy (T->0) per atom                          :       -2034.39800852 eV  <-- do not rely on this value for anything but (periodic) metals
  | Electronic free energy per atom                       :       -2034.39800852 eV

  Self-consistency convergence accuracy:
  | Change of charge/spin density :  0.2264E-01  0.1541E-01
  | Change of sum of eigenvalues  :  0.3057E+01 eV
  | Change of total energy        :  0.6878E-02 eV

  End self-consistency iteration #     7       :  max(cpu_time)    wall_clock(cpu1)
  | Time for this iteration                    :        0.470 s           0.470 s
  | Charge density update                      :        0.171 s           0.170 s
  | Density mixing                             :        0.008 s           0.009 s
  | Hartree multipole update                   :        0.002 s           0.002 s
  | Hartree multipole summation                :        0.029 s           0.029 s
  | Integration                                :        0.257 s           0.257 s
  | Solution of K.-S. eqns.                    :        0.003 s           0.003 s
  | Total energy evaluation                    :        0.000 s           0.000 s

  Partial memory accounting:
  | Current value for overall tracked memory usage on task 0  :           0.143 MB
  | Peak value for overall tracked memory usage on task 0     :           0.696 MB after allocating wave
  | Largest tracked array allocation on task 0 so far         :           0.301 MB  when allocating gradient_basis_wave
  Note:  These values currently only include a subset of arrays which are explicitly tracked.
  The "true" memory usage will be greater.
------------------------------------------------------------

------------------------------------------------------------
          Begin self-consistency iteration #    8

  Date     :  20190508, Time     :  152707.969
------------------------------------------------------------
  Evaluating new KS density.
  Integration grid: deviation in total charge (<rho> - N_e) =   6.394885E-14
  | <rho_up-rho_dn> = N_up-N_dn =      2.0000; <|rho_up-rho_dn|> =      2.0208
  Pulay mixing of updated and previous charge densities.

  Evaluating partitioned Hartree potential by multipole expansion.
  | Analytical far-field extrapolation by fixed multipoles:
  | Hartree multipole sum: apparent total charge =  -0.924683E-06
  Summing up the Hartree potential.
  Time summed over all CPUs for potential: real work        0.031 s, elapsed        0.031 s
  | RMS charge density error from multipole expansion :   0.669414E-02

  Integrating Hamiltonian matrix: batch-based integration.
  Time summed over all CPUs for integration: real work        0.237 s, elapsed        0.237 s

  Updating Kohn-Sham eigenvalues, eigenvectors, occupation numbers, and Fermi level.
  Solving generalized eigenproblem
  Updating Kohn-Sham eigenvalues and eigenfunctions.
  Solving real generalised eigenvalue problem by standard LAPACK (fast)
  Updating Kohn-Sham eigenvalues and eigenfunctions.
  Solving real generalised eigenvalue problem by standard LAPACK (fast)

  Obtaining occupation numbers and chemical potential using ELSI.
  | Chemical potential (Fermi level):    -0.10269418eV
  Current spin moment of the entire structure :
  | N = N_up - N_down :    2.00
  | S                 :    1.00
  | J                 :    3.00

  Highest occupied state (VBM) at     -1.64934769 eV
  | Occupation number:      1.00000000
  | Spin channel:        1

  Lowest unoccupied state (CBM) at     0.44190808 eV
  | Occupation number:      0.00000000
  | Spin channel:        2

  Overall HOMO-LUMO gap:      2.09125577 eV.

  Total energy components:
  | Sum of eigenvalues            :         -84.23543750 Ha       -2292.16287830 eV
  | XC energy correction          :         -17.48425827 Ha        -475.77087441 eV
  | XC potential correction       :          22.50733490 Ha         612.45574397 eV
  | Free-atom electrostatic energy:         -67.73524200 Ha       -1843.16971424 eV
  | Hartree energy correction     :          -2.57783088 Ha         -70.14634738 eV
  | Entropy correction            :          -0.00000000 Ha          -0.00000000 eV
  | ---------------------------
  | Total energy                  :        -149.52543375 Ha       -4068.79407037 eV
  | Total energy, T -> 0          :        -149.52543375 Ha       -4068.79407037 eV  <-- do not rely on this value for anything but (periodic) metals
  | Electronic free energy        :        -149.52543375 Ha       -4068.79407037 eV

  Derived energy quantities:
  | Kinetic energy                :         153.74736507 Ha        4183.67866676 eV
  | Electrostatic energy          :        -285.78854055 Ha       -7776.70186271 eV
  | Energy correction for multipole
  | error in Hartree potential    :          -0.01146378 Ha          -0.31194545 eV
  | Sum of eigenvalues per atom                           :       -1146.08143915 eV
  | Total energy (T->0) per atom                          :       -2034.39703518 eV  <-- do not rely on this value for anything but (periodic) metals
  | Electronic free energy per atom                       :       -2034.39703518 eV

  Self-consistency convergence accuracy:
  | Change of charge/spin density :  0.1346E-01  0.8354E-02
  | Change of sum of eigenvalues  :  0.2940E+01 eV
  | Change of total energy        :  0.1947E-02 eV

  End self-consistency iteration #     8       :  max(cpu_time)    wall_clock(cpu1)
  | Time for this iteration                    :        0.436 s           0.436 s
  | Charge density update                      :        0.152 s           0.152 s
  | Density mixing                             :        0.009 s           0.010 s
  | Hartree multipole update                   :        0.003 s           0.003 s
  | Hartree multipole summation                :        0.031 s           0.031 s
  | Integration                                :        0.237 s           0.237 s
  | Solution of K.-S. eqns.                    :        0.003 s           0.003 s
  | Total energy evaluation                    :        0.000 s           0.000 s

  Partial memory accounting:
  | Current value for overall tracked memory usage on task 0  :           0.143 MB
  | Peak value for overall tracked memory usage on task 0     :           0.696 MB after allocating wave
  | Largest tracked array allocation on task 0 so far         :           0.301 MB  when allocating gradient_basis_wave
  Note:  These values currently only include a subset of arrays which are explicitly tracked.
  The "true" memory usage will be greater.
------------------------------------------------------------

------------------------------------------------------------
          Begin self-consistency iteration #    9

  Date     :  20190508, Time     :  152708.405
------------------------------------------------------------
  Evaluating new KS density.
  Integration grid: deviation in total charge (<rho> - N_e) =   5.684342E-14
  | <rho_up-rho_dn> = N_up-N_dn =      2.0000; <|rho_up-rho_dn|> =      2.0212
  Pulay mixing of updated and previous charge densities.

  Evaluating partitioned Hartree potential by multipole expansion.
  | Analytical far-field extrapolation by fixed multipoles:
  | Hartree multipole sum: apparent total charge =  -0.896827E-06
  Summing up the Hartree potential.
  Time summed over all CPUs for potential: real work        0.029 s, elapsed        0.029 s
  | RMS charge density error from multipole expansion :   0.670381E-02

  Integrating Hamiltonian matrix: batch-based integration.
  Time summed over all CPUs for integration: real work        0.262 s, elapsed        0.262 s

  Updating Kohn-Sham eigenvalues, eigenvectors, occupation numbers, and Fermi level.
  Solving generalized eigenproblem
  Updating Kohn-Sham eigenvalues and eigenfunctions.
  Solving real generalised eigenvalue problem by standard LAPACK (fast)
  Updating Kohn-Sham eigenvalues and eigenfunctions.
  Solving real generalised eigenvalue problem by standard LAPACK (fast)

  Obtaining occupation numbers and chemical potential using ELSI.
  | Chemical potential (Fermi level):    -0.09062564eV
  Current spin moment of the entire structure :
  | N = N_up - N_down :    2.00
  | S                 :    1.00
  | J                 :    3.00

  Highest occupied state (VBM) at     -1.62858806 eV
  | Occupation number:      1.00000000
  | Spin channel:        1

  Lowest unoccupied state (CBM) at     0.46486097 eV
  | Occupation number:      0.00000000
  | Spin channel:        2

  Overall HOMO-LUMO gap:      2.09344903 eV.

  Total energy components:
  | Sum of eigenvalues            :         -84.22448887 Ha       -2291.86495095 eV
  | XC energy correction          :         -17.48512338 Ha        -475.79441541 eV
  | XC potential correction       :          22.50851258 Ha         612.48779031 eV
  | Free-atom electrostatic energy:         -67.73524200 Ha       -1843.16971424 eV
  | Hartree energy correction     :          -2.58909299 Ha         -70.45280472 eV
  | Entropy correction            :          -0.00000000 Ha          -0.00000000 eV
  | ---------------------------
  | Total energy                  :        -149.52543466 Ha       -4068.79409502 eV
  | Total energy, T -> 0          :        -149.52543466 Ha       -4068.79409502 eV  <-- do not rely on this value for anything but (periodic) metals
  | Electronic free energy        :        -149.52543466 Ha       -4068.79409502 eV

  Derived energy quantities:
  | Kinetic energy                :         153.73846450 Ha        4183.43646984 eV
  | Electrostatic energy          :        -285.77877577 Ha       -7776.43614944 eV
  | Energy correction for multipole
  | error in Hartree potential    :          -0.01148646 Ha          -0.31256239 eV
  | Sum of eigenvalues per atom                           :       -1145.93247547 eV
  | Total energy (T->0) per atom                          :       -2034.39704751 eV  <-- do not rely on this value for anything but (periodic) metals
  | Electronic free energy per atom                       :       -2034.39704751 eV

  Self-consistency convergence accuracy:
  | Change of charge/spin density :  0.4684E-02  0.1816E-02
  | Change of sum of eigenvalues  :  0.2979E+00 eV
  | Change of total energy        : -0.2465E-04 eV

  End self-consistency iteration #     9       :  max(cpu_time)    wall_clock(cpu1)
  | Time for this iteration                    :        0.457 s           0.458 s
  | Charge density update                      :        0.149 s           0.150 s
  | Density mixing                             :        0.011 s           0.010 s
  | Hartree multipole update                   :        0.002 s           0.002 s
  | Hartree multipole summation                :        0.030 s           0.030 s
  | Integration                                :        0.262 s           0.262 s
  | Solution of K.-S. eqns.                    :        0.003 s           0.003 s
  | Total energy evaluation                    :        0.000 s           0.000 s

  Partial memory accounting:
  | Current value for overall tracked memory usage on task 0  :           0.144 MB
  | Peak value for overall tracked memory usage on task 0     :           0.696 MB after allocating wave
  | Largest tracked array allocation on task 0 so far         :           0.301 MB  when allocating gradient_basis_wave
  Note:  These values currently only include a subset of arrays which are explicitly tracked.
  The "true" memory usage will be greater.
------------------------------------------------------------

------------------------------------------------------------
          Begin self-consistency iteration #   10

  Date     :  20190508, Time     :  152708.863
------------------------------------------------------------
  Evaluating new KS density.
  Integration grid: deviation in total charge (<rho> - N_e) =  -4.973799E-14
  | <rho_up-rho_dn> = N_up-N_dn =      2.0000; <|rho_up-rho_dn|> =      2.0213
  Pulay mixing of updated and previous charge densities.

  Evaluating partitioned Hartree potential by multipole expansion.
  | Analytical far-field extrapolation by fixed multipoles:
  | Hartree multipole sum: apparent total charge =  -0.874382E-06
  Summing up the Hartree potential.
  Time summed over all CPUs for potential: real work        0.030 s, elapsed        0.030 s
  | RMS charge density error from multipole expansion :   0.670067E-02

  Integrating Hamiltonian matrix: batch-based integration.
  Time summed over all CPUs for integration: real work        0.265 s, elapsed        0.265 s

  Updating Kohn-Sham eigenvalues, eigenvectors, occupation numbers, and Fermi level.
  Solving generalized eigenproblem
  Updating Kohn-Sham eigenvalues and eigenfunctions.
  Solving real generalised eigenvalue problem by standard LAPACK (fast)
  Updating Kohn-Sham eigenvalues and eigenfunctions.
  Solving real generalised eigenvalue problem by standard LAPACK (fast)

  Obtaining occupation numbers and chemical potential using ELSI.
  | Chemical potential (Fermi level):    -0.08595771eV
  Current spin moment of the entire structure :
  | N = N_up - N_down :    2.00
  | S                 :    1.00
  | J                 :    3.00

  Highest occupied state (VBM) at     -1.64408500 eV
  | Occupation number:      1.00000000
  | Spin channel:        1

  Lowest unoccupied state (CBM) at     0.45274952 eV
  | Occupation number:      0.00000000
  | Spin channel:        2

  Overall HOMO-LUMO gap:      2.09683452 eV.

  Total energy components:
  | Sum of eigenvalues            :         -84.24451229 Ha       -2292.40981588 eV
  | XC energy correction          :         -17.48274496 Ha        -475.72969519 eV
  | XC potential correction       :          22.50542521 Ha         612.40377860 eV
  | Free-atom electrostatic energy:         -67.73524200 Ha       -1843.16971424 eV
  | Hartree energy correction     :          -2.56835461 Ha         -69.88848487 eV
  | Entropy correction            :          -0.00000000 Ha          -0.00000000 eV
  | ---------------------------
  | Total energy                  :        -149.52542865 Ha       -4068.79393159 eV
  | Total energy, T -> 0          :        -149.52542865 Ha       -4068.79393159 eV  <-- do not rely on this value for anything but (periodic) metals
  | Electronic free energy        :        -149.52542865 Ha       -4068.79393159 eV

  Derived energy quantities:
  | Kinetic energy                :         153.71114044 Ha        4182.69294439 eV
  | Electrostatic energy          :        -285.75382413 Ha       -7775.75718079 eV
  | Energy correction for multipole
  | error in Hartree potential    :          -0.01147923 Ha          -0.31236575 eV
[...]
  | Change of charge/spin density :  0.5177E-05  0.7113E-05
  | Change of sum of eigenvalues  : -0.4820E-03 eV
  | Change of total energy        :  0.2926E-07 eV

  End self-consistency iteration #    13       :  max(cpu_time)    wall_clock(cpu1)
  | Time for this iteration                    :        0.461 s           0.461 s
  | Charge density update                      :        0.159 s           0.159 s
  | Density mixing                             :        0.011 s           0.010 s
  | Hartree multipole update                   :        0.002 s           0.003 s
  | Hartree multipole summation                :        0.030 s           0.030 s
  | Integration                                :        0.257 s           0.256 s
  | Solution of K.-S. eqns.                    :        0.003 s           0.003 s
  | Total energy evaluation                    :        0.000 s           0.000 s

  Partial memory accounting:
  | Current value for overall tracked memory usage on task 0  :           0.144 MB
  | Peak value for overall tracked memory usage on task 0     :           0.696 MB after allocating wave
  | Largest tracked array allocation on task 0 so far         :           0.301 MB  when allocating gradient_basis_wave
  Note:  These values currently only include a subset of arrays which are explicitly tracked.
  The "true" memory usage will be greater.
------------------------------------------------------------

------------------------------------------------------------
          Begin self-consistency iteration #   14

  Date     :  20190508, Time     :  152710.707
------------------------------------------------------------
  Evaluating new KS density.
  Integration grid: deviation in total charge (<rho> - N_e) =   7.815970E-14
  | <rho_up-rho_dn> = N_up-N_dn =      2.0000; <|rho_up-rho_dn|> =      2.0213
  Pulay mixing of updated and previous charge densities.

  Evaluating partitioned Hartree potential by multipole expansion.
  | Analytical far-field extrapolation by fixed multipoles:
  | Hartree multipole sum: apparent total charge =  -0.878833E-06
  Summing up the Hartree potential.
  Time summed over all CPUs for potential: real work        0.026 s, elapsed        0.026 s
  | RMS charge density error from multipole expansion :   0.669971E-02

  Integrating Hamiltonian matrix: batch-based integration.
  Time summed over all CPUs for integration: real work        0.248 s, elapsed        0.248 s

  Updating Kohn-Sham eigenvalues, eigenvectors, occupation numbers, and Fermi level.
  Solving generalized eigenproblem
  Updating Kohn-Sham eigenvalues and eigenfunctions.
  Solving real generalised eigenvalue problem by standard LAPACK (fast)
  Updating Kohn-Sham eigenvalues and eigenfunctions.
  Solving real generalised eigenvalue problem by standard LAPACK (fast)

  Obtaining occupation numbers and chemical potential using ELSI.
  | Chemical potential (Fermi level):    -0.08834596eV
  Current spin moment of the entire structure :
  | N = N_up - N_down :    2.00
  | S                 :    1.00
  | J                 :    3.00

  Highest occupied state (VBM) at     -1.64891917 eV
  | Occupation number:      1.00000000
  | Spin channel:        1

  Lowest unoccupied state (CBM) at     0.44768271 eV
  | Occupation number:      0.00000000
  | Spin channel:        2

  Overall HOMO-LUMO gap:      2.09660187 eV.

  Total energy components:
  | Sum of eigenvalues            :         -84.24789194 Ha       -2292.50178094 eV
  | XC energy correction          :         -17.48242669 Ha        -475.72103467 eV
  | XC potential correction       :          22.50500114 Ha         612.39223908 eV
  | Free-atom electrostatic energy:         -67.73524200 Ha       -1843.16971424 eV
  | Hartree energy correction     :          -2.56486899 Ha         -69.79363641 eV
  | Entropy correction            :          -0.00000000 Ha          -0.00000000 eV
  | ---------------------------
  | Total energy                  :        -149.52542849 Ha       -4068.79392719 eV
  | Total energy, T -> 0          :        -149.52542849 Ha       -4068.79392719 eV  <-- do not rely on this value for anything but (periodic) metals
  | Electronic free energy        :        -149.52542849 Ha       -4068.79392719 eV

  Derived energy quantities:
  | Kinetic energy                :         153.71081526 Ha        4182.68409592 eV
  | Electrostatic energy          :        -285.75381706 Ha       -7775.75698844 eV
  | Energy correction for multipole
  | error in Hartree potential    :          -0.01147677 Ha          -0.31229886 eV
  | Sum of eigenvalues per atom                           :       -1146.25089047 eV
  | Total energy (T->0) per atom                          :       -2034.39696359 eV  <-- do not rely on this value for anything but (periodic) metals
  | Electronic free energy per atom                       :       -2034.39696359 eV

  Self-consistency convergence accuracy:
  | Change of charge/spin density :  0.3127E-05  0.2103E-05
  | Change of sum of eigenvalues  :  0.1098E-02 eV
  | Change of total energy        : -0.1331E-07 eV

  End self-consistency iteration #    14       :  max(cpu_time)    wall_clock(cpu1)
  | Time for this iteration                    :        0.434 s           0.435 s
  | Charge density update                      :        0.144 s           0.145 s
  | Density mixing                             :        0.009 s           0.009 s
  | Hartree multipole update                   :        0.002 s           0.002 s
  | Hartree multipole summation                :        0.027 s           0.027 s
  | Integration                                :        0.248 s           0.249 s
  | Solution of K.-S. eqns.                    :        0.003 s           0.002 s
  | Total energy evaluation                    :        0.000 s           0.000 s

  Partial memory accounting:
  | Current value for overall tracked memory usage on task 0  :           0.144 MB
  | Peak value for overall tracked memory usage on task 0     :           0.696 MB after allocating wave
  | Largest tracked array allocation on task 0 so far         :           0.301 MB  when allocating gradient_basis_wave
  Note:  These values currently only include a subset of arrays which are explicitly tracked.
  The "true" memory usage will be greater.
------------------------------------------------------------

------------------------------------------------------------
          Begin self-consistency iteration #   15

  Date     :  20190508, Time     :  152711.142
------------------------------------------------------------
  Evaluating new KS density.
  Integration grid: deviation in total charge (<rho> - N_e) =   3.552714E-15
  | <rho_up-rho_dn> = N_up-N_dn =      2.0000; <|rho_up-rho_dn|> =      2.0213
  Pulay mixing of updated and previous charge densities.

  Evaluating partitioned Hartree potential by multipole expansion.
  | Analytical far-field extrapolation by fixed multipoles:
  | Hartree multipole sum: apparent total charge =  -0.878826E-06
  Summing up the Hartree potential.
  Time summed over all CPUs for potential: real work        0.030 s, elapsed        0.030 s
  | RMS charge density error from multipole expansion :   0.669971E-02

  Integrating Hamiltonian matrix: batch-based integration.
  Time summed over all CPUs for integration: real work        0.259 s, elapsed        0.259 s

  Updating Kohn-Sham eigenvalues, eigenvectors, occupation numbers, and Fermi level.
  Solving generalized eigenproblem
  Updating Kohn-Sham eigenvalues and eigenfunctions.
  Solving real generalised eigenvalue problem by standard LAPACK (fast)
  Updating Kohn-Sham eigenvalues and eigenfunctions.
  Solving real generalised eigenvalue problem by standard LAPACK (fast)

  Obtaining occupation numbers and chemical potential using ELSI.
  | Chemical potential (Fermi level):    -0.08834372eV
  Current spin moment of the entire structure :
  | N = N_up - N_down :    2.00
  | S                 :    1.00
  | J                 :    3.00

  Highest occupied state (VBM) at     -1.64891776 eV
  | Occupation number:      1.00000000
  | Spin channel:        1

  Lowest unoccupied state (CBM) at     0.44768459 eV
  | Occupation number:      0.00000000
  | Spin channel:        2

  Overall HOMO-LUMO gap:      2.09660235 eV.

  Total energy components:
  | Sum of eigenvalues            :         -84.24789077 Ha       -2292.50174917 eV
  | XC energy correction          :         -17.48242681 Ha        -475.72103794 eV
  | XC potential correction       :          22.50500130 Ha         612.39224343 eV
  | Free-atom electrostatic energy:         -67.73524200 Ha       -1843.16971424 eV
  | Hartree energy correction     :          -2.56487020 Ha         -69.79366927 eV
  | Entropy correction            :          -0.00000000 Ha          -0.00000000 eV
  | ---------------------------
  | Total energy                  :        -149.52542849 Ha       -4068.79392719 eV
  | Total energy, T -> 0          :        -149.52542849 Ha       -4068.79392719 eV  <-- do not rely on this value for anything but (periodic) metals
  | Electronic free energy        :        -149.52542849 Ha       -4068.79392719 eV

  Derived energy quantities:
  | Kinetic energy                :         153.71081682 Ha        4182.68413835 eV
  | Electrostatic energy          :        -285.75381850 Ha       -7775.75702760 eV
  | Energy correction for multipole
  | error in Hartree potential    :          -0.01147677 Ha          -0.31229881 eV
  | Sum of eigenvalues per atom                           :       -1146.25087459 eV
  | Total energy (T->0) per atom                          :       -2034.39696359 eV  <-- do not rely on this value for anything but (periodic) metals
  | Electronic free energy per atom                       :       -2034.39696359 eV

  Self-consistency convergence accuracy:
  | Change of charge/spin density :  0.1869E-06  0.1670E-06
  | Change of sum of eigenvalues  :  0.3177E-04 eV
  | Change of total energy        : -0.1933E-09 eV

  Writing Kohn-Sham eigenvalues.

  Spin-up eigenvalues:

  State    Occupation    Eigenvalue [Ha]    Eigenvalue [eV]
      1       1.00000         -18.904226         -514.41017
      2       1.00000         -18.892969         -514.10384
      3       1.00000          -1.656985          -45.08885
      4       1.00000          -0.759796          -20.67509
      5       1.00000          -0.759796          -20.67509
      6       1.00000          -0.651129          -17.71813
      7       1.00000          -0.586751          -15.96630
      8       1.00000          -0.060597           -1.64892
      9       1.00000          -0.060597           -1.64892
     10       0.00000           0.065269            1.77606
     11       0.00000           0.094233            2.56420
     12       0.00000           0.094233            2.56420
     13       0.00000           0.108466            2.95150
     14       0.00000           0.205588            5.59433

  Spin-down eigenvalues:

  State    Occupation    Eigenvalue [Ha]    Eigenvalue [eV]
      1       1.00000         -18.882268         -513.81265
      2       1.00000         -18.870988         -513.50570
      3       1.00000          -1.630560          -44.36979
      4       1.00000          -0.700310          -19.05640
      5       1.00000          -0.700310          -19.05640
      6       1.00000          -0.588538          -16.01494
      7       1.00000          -0.542073          -14.75055
      8       0.00000           0.016452            0.44768
      9       0.00000           0.016452            0.44768
     10       0.00000           0.092321            2.51218
     11       0.00000           0.119814            3.26029
     12       0.00000           0.119814            3.26029
     13       0.00000           0.137148            3.73199
     14       0.00000           0.220876            6.01033

  Current spin moment of the entire structure :
  | N = N_up - N_down :    2.00
  | S                 :    1.00
  | J                 :    3.00

  Highest occupied state (VBM) at     -1.64891776 eV
  | Occupation number:      1.00000000
  | Spin channel:        1

  Lowest unoccupied state (CBM) at     0.44768459 eV
  | Occupation number:      0.00000000
  | Spin channel:        2

  Overall HOMO-LUMO gap:      2.09660235 eV.

  Self-consistency cycle converged.

  End self-consistency iteration #    15       :  max(cpu_time)    wall_clock(cpu1)
  | Time for this iteration                    :        0.448 s           0.447 s
  | Charge density update                      :        0.143 s           0.142 s
  | Density mixing                             :        0.010 s           0.011 s
  | Hartree multipole update                   :        0.003 s           0.002 s
  | Hartree multipole summation                :        0.030 s           0.030 s
  | Integration                                :        0.259 s           0.259 s
  | Solution of K.-S. eqns.                    :        0.003 s           0.003 s
  | Total energy evaluation                    :        0.000 s           0.000 s

  Partial memory accounting:
  | Current value for overall tracked memory usage on task 0  :           0.144 MB
  | Peak value for overall tracked memory usage on task 0     :           0.696 MB after allocating wave
  | Largest tracked array allocation on task 0 so far         :           0.301 MB  when allocating gradient_basis_wave
  Note:  These values currently only include a subset of arrays which are explicitly tracked.
  The "true" memory usage will be greater.
------------------------------------------------------------
  ------------------------------------------------------------
   Computing monopole / dipole moments for complete molecule:
  | Total electronic charge [e]         :          0.160000000000004E+02
  | Total ionic charge [e]              :          0.160000000000000E+02
  | Total charge [e]                    :         -0.408562073062058E-12
  | Total dipole moment [eAng]          :         -0.272380051593553E-14         0.101076922305367E-13        -0.714405742741064E-13
  | Absolute dipole moment              :          0.722034637956655E-13 eAng              /                   0.346753967188045E-12 Debye  .

  Energy and forces in a compact form:
  | Total energy uncorrected      :         -0.406879392718719E+04 eV
  | Total energy corrected        :         -0.406879392718719E+04 eV  <-- do not rely on this value for anything but (periodic) metals
  | Electronic free energy        :         -0.406879392718719E+04 eV

  ------------------------------------ 
  Start decomposition of the XC Energy 
  ------------------------------------ 
  X and C from original XC functional choice 
  Hartree-Fock Energy :          0.000000000 Ha              0.000000000 eV
  X Energy            :        -16.926047665 Ha           -460.581191082 eV
  C Energy            :         -0.556379145 Ha            -15.139846854 eV
  Total XC Energy     :        -17.482426811 Ha           -475.721037936 eV
  ------------------------------------ 
  LDA X and C from self-consistent density 
  X Energy LDA        :        -15.447938618 Ha           -420.359797455 eV
  C Energy LDA        :         -1.126302897 Ha            -30.648261185 eV
  ------------------------------------ 
  End decomposition of the XC Energy 
  ------------------------------------ 

------------------------------------------------------------

------------------------------------------------------------------------------
  Final output of selected total energy values:

  The following output summarizes some interesting total energy values
  at the end of a run (AFTER all relaxation, molecular dynamics, etc.).

  | Total energy of the DFT / Hartree-Fock s.c.f. calculation      :          -4068.793927187 eV
  | Final zero-broadening corrected energy (caution - metals only) :          -4068.793927187 eV
  | For reference only, the value of 1 Hartree used in FHI-aims is :             27.211384500 eV

  Before relying on these values, please be sure to understand exactly which
  total energy value is referred to by a given number. Different objects may
  all carry the same name 'total energy'. Definitions:

  Total energy of the DFT / Hartree-Fock s.c.f. calculation:
  | Note that this energy does not include ANY quantities calculated after the
  | s.c.f. cycle, in particular not ANY RPA, MP2, etc. many-body perturbation terms.

  Final zero-broadening corrected energy:
  | For metallic systems only, a broadening of the occupation numbers at the Fermi
  | level can be extrapolated back to zero broadening by an electron-gas inspired
  | formula. For all systems that are not real metals, this value can be
  | meaningless and should be avoided.

------------------------------------------------------------------------------
  Methods described in the following list of references were used in this FHI-aims run.
  If you publish the results, please make sure to cite these reference if they apply.
  FHI-aims is an academic code, and for our developers (often, Ph.D. students
  and postdocs), scientific credit in the community is essential.
  Thank you for helping us!

  For any use of FHI-aims, please cite:

    Volker Blum, Ralf Gehrke, Felix Hanke, Paula Havu, Ville Havu,
    Xinguo Ren, Karsten Reuter, and Matthias Scheffler
    'Ab initio molecular simulations with numeric atom-centered orbitals'
    Computer Physics Communications 180, 2175-2196 (2009)
    http://dx.doi.org/10.1016/j.cpc.2009.06.022


  For the real-space grid partitioning and parallelization used in this calculation, please cite:

    Ville Havu, Volker Blum, Paula Havu, and Matthias Scheffler,
    'Efficient O(N) integration for all-electron electronic structure calculation'
    'using numerically tabulated basis functions'
    Journal of Computational Physics 228, 8367-8379 (2009).
    http://dx.doi.org/10.1016/j.jcp.2009.08.008

  Of course, there are many other important community references, e.g., those cited in the
  above references. Our list is limited to references that describe implementations in the
  FHI-aims code. The reason is purely practical (length of this list) - please credit others as well.

------------------------------------------------------------
          Leaving FHI-aims.
          Date     :  20190508, Time     :  152711.641

          Computational steps:
          | Number of self-consistency cycles          :           15
          | Number of SCF (re)initializations          :            1

          Detailed time accounting                     :  max(cpu_time)    wall_clock(cpu1)
          | Total time                                 :        7.296 s           7.298 s
          | Preparation time                           :        0.119 s           0.120 s
          | Boundary condition initalization           :        0.000 s           0.000 s
          | Grid partitioning                          :        0.035 s           0.035 s
          | Preloading free-atom quantities on grid    :        0.003 s           0.003 s
          | Free-atom superposition energy             :        0.037 s           0.037 s
          | Total time for integrations                :        4.096 s           4.094 s
          | Total time for solution of K.-S. equations :        0.047 s           0.047 s
          | Total time for density update              :        2.282 s           2.281 s
          | Total time for mixing                      :        0.125 s           0.127 s
          | Total time for Hartree multipole update    :        0.038 s           0.037 s
          | Total time for Hartree multipole sum       :        0.432 s           0.432 s
          | Total time for total energy evaluation     :        0.001 s           0.002 s

 This is a stub MPI_ALLREDUCE call.
 You should not be here. Check your
 setting on the use_mpi variable, or
 link against true MPI-libraries.
