------------------------------------------------------------
          Invoking FHI-aims ...
          Version 171221_1
          Compiled on 2019/05/06 at 14:26:40 on host ffph0xx.

          When using FHI-aims, please cite the following reference:

          Volker Blum, Ralf Gehrke, Felix Hanke, Paula Havu,
          Ville Havu, Xinguo Ren, Karsten Reuter, and Matthias Scheffler,
          'Ab Initio Molecular Simulations with Numeric Atom-Centered Orbitals',
          Computer Physics Communications 180, 2175-2196 (2009)

          For any questions about FHI-aims, please visit the aimsclub website
          with its forums and wiki. Contributions to both the forums and the
          wiki are warmly encouraged - they are for you, and everyone is welcome there.

------------------------------------------------------------



  Date     :  20190514, Time     :  123609.350
  Time zero on CPU 1             :   0.724000000000000E-03  s.
  Internal wall clock time zero  :           327069369.350  s.

  FHI-aims created a unique identifier for this run for later identification
  aims_uuid : 33174930-7173-4E36-AA5E-7CA217E7AE2B


  Performing system and environment tests:
  *** Environment variable OMP_NUM_THREADS is not set
  *** For performance reasons you might want to set it to 1
  | Stacksize not measured: no C compiler

  Obtaining array dimensions for all initial allocations:
  
  -----------------------------------------------------------------------
  Parsing control.in (first pass over file, find array dimensions only).
  The contents of control.in will be repeated verbatim below
  unless switched off by setting 'verbatim_writeout .false.' .
  in the first line of control.in .
  -----------------------------------------------------------------------
  
  #--- method ---
  xc pw-lda
  spin none
  relativistic atomic_zora scalar
  #---
  
  #--- k-grid settings ---
  k_grid 12 12 12
  #---
  
  
  
  
  
  
  
  
  
  
  
  #-------------------------------------------------------------------------------
  #--- Species defaults for Si
  #-------------------------------------------------------------------------------
  
  ################################################################################
  #
  #  FHI-aims code project
  #  VB, Fritz-Haber Institut, 2009
  #
  #  Suggested "light" defaults for Si atom (to be pasted into control.in file)
  #  Be sure to double-check any results obtained with these settings for post-processing,
  #  e.g., with the "tight" defaults and larger basis sets.
  #
  ################################################################################
    species        Si
  #     global species definitions
      nucleus             14
      mass                28.0855
  #
      l_hartree           4
  #
      cut_pot             3.5          1.5  1.0
      basis_dep_cutoff    1e-4
  #
      radial_base         42 5.0
      radial_multiplier   1
      angular_grids       specified
        division   0.5866   50
        division   0.9616  110
        division   1.2249  194
        division   1.3795  302
  #      division   1.4810  434
  #      division   1.5529  590
  #      division   1.6284  770
  #      division   1.7077  974
  #      division   2.4068 1202
  #      outer_grid   974
        outer_grid 302
  ################################################################################
  #
  #  Definition of "minimal" basis
  #
  ################################################################################
  #     valence basis states
      valence      3  s   2.
      valence      3  p   2.
  #     ion occupancy
      ion_occ      3  s   1.
      ion_occ      3  p   1.
  ################################################################################
  #
  #  Suggested additional basis functions. For production calculations,
  #  uncomment them one after another (the most important basis functions are
  #  listed first).
  #
  #  Constructed for dimers: 1.75 A, 2.0 A, 2.25 A, 2.75 A, 3.75 A
  #
  ################################################################################
  #  "First tier" - improvements: -571.96 meV to -37.03 meV
       hydro 3 d 4.2
       hydro 2 p 1.4
  #     hydro 4 f 6.2
       ionic 3 s auto
  #  "Second tier" - improvements: -16.76 meV to -3.03 meV
  #     hydro 3 d 9
  #     hydro 5 g 9.4
  #     hydro 4 p 4
  #     hydro 1 s 0.65
  #  "Third tier" - improvements: -3.89 meV to -0.60 meV
  #     ionic 3 d auto
  #     hydro 3 s 2.6
  #     hydro 4 f 8.4
  #     hydro 3 d 3.4
  #     hydro 3 p 7.8
  #  "Fourth tier" - improvements: -0.33 meV to -0.11 meV
  #     hydro 2 p 1.6
  #     hydro 5 g 10.8
  #     hydro 5 f 11.2
  #     hydro 3 d 1
  #     hydro 4 s 4.5
  #  Further basis functions that fell out of the optimization - noise
  #  level... < -0.08 meV
  #     hydro 4 d 6.6
  #     hydro 5 g 16.4
  #     hydro 4 d 9
  
  -----------------------------------------------------------------------
  Completed first pass over input file control.in .
  -----------------------------------------------------------------------
  
  
  -----------------------------------------------------------------------
  Parsing geometry.in (first pass over file, find array dimensions only).
  The contents of geometry.in will be repeated verbatim below
  unless switched off by setting 'verbatim_writeout .false.' .
  in the first line of geometry.in .
  -----------------------------------------------------------------------
  
  lattice_vector  -2.400000   2.400000   2.400000
  lattice_vector   2.400000  -2.400000   2.400000
  lattice_vector   2.400000   2.400000  -2.400000
  atom_frac   0.000000   0.000000   0.000000 Si
  
  -----------------------------------------------------------------------
  Completed first pass over input file geometry.in .
  -----------------------------------------------------------------------
  

  Basic array size parameters:
  | Number of species                 :        1
  | Number of atoms                   :        1
  | Number of lattice vectors         :        3
  | Max. basis fn. angular momentum   :        2
  | Max. atomic/ionic basis occupied n:        3
  | Max. number of basis fn. types    :        3
  | Max. radial fns per species/type  :        5
  | Max. logarithmic grid size        :     1346
  | Max. radial integration grid size :       42
  | Max. angular integration grid size:      302
  | Max. angular grid division number :        8
  | Radial grid for Hartree potential :     1346
  | Number of spin channels           :        1

------------------------------------------------------------
          Reading file control.in.
------------------------------------------------------------
  XC: Using Perdew-Wang parametrisation of Ceperley-Alder LDA.
  Spin treatment: No spin polarisation.
  Scalar relativistic treatment of kinetic energy: on-site free-atom approximation to ZORA.
  Found k-point grid:        12        12        12

  Reading configuration options for species Si                  .
  | Found nuclear charge :  14.0000
  | Found atomic mass :    28.085500000000000      amu
  | Found l_max for Hartree potential  :   4
  | Found cutoff potl. onset [A], width [A], scale factor :    3.50000    1.50000    1.00000
  | Threshold for basis-dependent cutoff potential is   0.100000E-03
  | Found data for basic radial integration grid :    42 points, outermost radius =    5.000 A
  | Found multiplier for basic radial grid :   1
  | Found angular grid specification: user-specified.
  | Specified grid contains     5 separate shells.
  | Check grid settings after all constraints further below.
  | Found free-atom valence shell :  3 s   2.000
  | Found free-atom valence shell :  3 p   2.000
  | Found free-ion valence shell :  3 s   1.000
  | Found free-ion valence shell :  3 p   1.000
  | Found hydrogenic basis function :  3 d   4.200
  | Found hydrogenic basis function :  2 p   1.400
  | Found ionic basis function :  3 s , default cutoff radius.
  Species Si                  : Missing cutoff potential type.
  Defaulting to exp(1/x)/(1-x)^2 type cutoff potential.
  Species Si: No 'logarithmic' tag. Using default grid for free atom:
  | Default logarithmic grid data [bohr] : 0.1000E-03 0.1000E+03 0.1012E+01
  | Will include ionic basis functions of  2.0-fold positive Si                   ion.
  Species Si: On-site basis accuracy parameter (for Gram-Schmidt orthonormalisation) not specified.
  Using default value basis_acc =  0.1000000E-03.
  Species Si                  : Using default innermost maximum threshold i_radial=  2 for radial functions.
  Species Si                  : Default cutoff onset for free atom density etc. : 0.35000000E+01 AA.
  Species Si                  : Basic radial grid will be enhanced according to radial_multiplier =   1, to contain    42 grid points.

  Finished reading input file 'control.in'. Consistency checks are next.

  MPI_IN_PLACE appears to work with this MPI implementation.
  | Keeping use_mpi_in_place .true. (see manual).
  Target number of points in a grid batch is not set. Defaulting to  100
  Method for grid partitioning is not set. Defaulting to 'maxmin' partitioning.
  Batch size limit is not set. Defaulting to    200
  By default, will store active basis functions for each batch.
  If in need of memory, prune_basis_once .false. can be used to disable this option.
  communication_type for Hartree potential was not specified.
  Defaulting to calc_hartree .
 * Attention: 
 * You may want to set distributed_spline_storage to .true. in order to save memory.
 * This doesn't harm performance and is perfectly ok unless:
 * - you get error messages in postprocessing (about missing atoms in get_rho_multipole_spl)
 * - you need full spline storage in hirshfeld_analysis
  Defaulting to Pulay charge density mixer.
  Pulay mixer: Number of relevant iterations not set.
  Defaulting to    8 iterations.
  Pulay mixer: Number of initial linear mixing iterations not set.
  Defaulting to    0 iterations.
  Work space size for distributed Hartree potential not set.
  Defaulting to   0.200000E+03 MB.
  Mixing parameter for charge density mixing has not been set.
  Using default: charge_mix_param =     0.0500.
  The mixing parameter will be adjusted in iteration number     2 of the first full s.c.f. cycle only.
  Algorithm-dependent basis array size parameters:
  | n_max_pulay                         :        8
 * Notice: The s.c.f. convergence criterion sc_accuracy_rho was not provided.
 * We used to stop in this case, and ask the user to provide reasonable
 * scf convergence criteria. However, this led some users to employ criteria
 * that led to extremely long run times, e.g., for simple relaxation.
 * We now preset a default value for sc_accuracy_rho if it is not set.
 * You may still wish to check if this setting is too tight or too loose for your needs.
 * Based on n_atoms, FHI-aims chose sc_accuracy_rho =  0.100000E-05 .
  Maximum number of self-consistency iterations not provided.
  Presetting  1000 iterations.
  Presetting      1001 iterations before the initial mixing cycle
  is restarted anyway using the sc_init_iter criterion / keyword.
  Presetting a factor      1.000 between actual scf density residual
  and density convergence criterion sc_accuracy_rho below which sc_init_iter
  takes no effect.
 * No s.c.f. convergence criteria (sc_accuracy_*) were provided in control.in.
 * The run will proceed with a reasonable default guess, but please check whether.
 * the s.c.f. cycles seem to take too much or too little time.
  Calculation of forces was not defined in control.in. No forces will be calculated.
  Geometry relaxation not requested: no relaxation will be performed.
  No accuracy limit for integral partition fn. given. Defaulting to  0.1000E-14.
  No threshold value for u(r) in integrations given. Defaulting to  0.1000E-05.
  No occupation type (smearing scheme) given. Defaulting to Gaussian broadening, width =  0.1000E-01 eV.
  The width will be adjusted in iteration number     2 of the first full s.c.f. cycle only.
  S.C.F. convergence parameters will be adjusted in iteration number     2 of the first full s.c.f. cycle only.
  No accuracy for occupation numbers given. Defaulting to  0.1000E-12.
  No threshold value for occupation numbers given. Defaulting to  0.0000E+00.
  No accuracy for fermi level given. Defaulting to  0.1000E-19.
  Maximum # of iterations to find E_F not set. Defaulting to  200.
  Preferred method for the eigenvalue solver ('KS_method') not specified in 'control.in'.
  Defaulting to serial version, 'lapack_fast'.
  Will not use alltoall communication since running on < 1024 CPUs.
  Threshold for basis singularities not set.
  Default threshold for basis singularities:  0.1000E-04
  partition_type (choice of integration weights) for integrals was not specified.
  | Using a version of the partition function of Stratmann and coworkers ('stratmann_smoother').
  | At each grid point, the set of atoms used to build the partition table is smoothly restricted to
  | only those atoms whose free-atom density would be non-zero at that grid point.
  Partitioning for Hartree potential was not defined. Using partition_type for integrals.
  | Adjusted default value of keyword multip_moments_threshold to:       0.10000000E-11
  | This value may affect high angular momentum components of the Hartree potential in periodic systems.
  Angular momentum expansion for Kerker preconditioner not set explicitly.
  | Using default value of   0
  No explicit requirement for turning off preconditioner.
  | By default, it will be turned off when the charge convergence reaches
  | sc_accuracy_rho  =   0.100000E-05
  No special mixing parameter while Kerker preconditioner is on.
  Using default: charge_mix_param =     0.0500.
  No q(lm)/r^(l+1) cutoff set for long-range Hartree potential.
  | Using default value of  0.100000E-09 .
  | Verify using the multipole_threshold keyword.
  Defaulting to new monopole extrapolation.
  Density update method: automatic selection selected.
  Using density matrix based charge density update.
  Using density matrix based charge density update.
  Using packed matrix style: index .
  Defaulting to use time-reversal symmetry for k-point grid.
------------------------------------------------------------


------------------------------------------------------------
          Reading geometry description geometry.in.
------------------------------------------------------------
  Input structure read successfully.
  The structure contains        1 atoms,  and a total of         14.000 electrons.

  Input geometry:
  | Unit cell:
  |       -2.40000000        2.40000000        2.40000000
  |        2.40000000       -2.40000000        2.40000000
  |        2.40000000        2.40000000       -2.40000000
  | Atomic structure:
  |       Atom                x [A]            y [A]            z [A]
  |    1: Species Si            0.00000000        0.00000000        0.00000000

  Lattice parameters for 3D lattice (in Angstroms) :     4.156922    4.156922    4.156922
  Angle(s) between unit vectors (in degrees)      :   109.471221  109.471221  109.471221

  |

  | The smallest distance between any two atoms is         4.15692194 AA.
  |
  | The first atom of this pair is atom number                      1 .
  | The second atom of this pair is atom number                     1 .
  | Wigner-Seitz cell of the first atom image           0     0     1 .
  | (The Wigner-Seitz cell of the second atom is 0 0 0  by definition.)

  Quantities derived from the lattice vectors:
  | Reciprocal lattice vector 1:  0.000000  1.308997  1.308997
  | Reciprocal lattice vector 2:  1.308997  0.000000  1.308997
  | Reciprocal lattice vector 3:  1.308997  1.308997 -0.000000
  | Unit cell volume                               :   0.552960E+02  A^3

  Range separation radius for Ewald summation (hartree_convergence_parameter):      5.00000000 bohr.

  Fractional coordinates:
                         L1                L2                L3
       atom_frac         0.00000000        0.00000000        0.00000000  Si

  Number of empty states per atom not set in control.in - providing a guess from actual geometry.
  | Total number of empty states used during s.c.f. cycle:        3
  If you use a very high smearing, use empty_states (per atom!) in control.in to increase this value.

  Structure-dependent array size parameters: 
  | Maximum number of distinct radial functions  :        8
  | Maximum number of basis functions            :       18
  | Number of Kohn-Sham states (occupied + empty):       10
------------------------------------------------------------

------------------------------------------------------------
          Preparing all fixed parts of the calculation.
------------------------------------------------------------
  Determining machine precision:
     2.2250738585072014E-308
  Setting up grids for atomic and cluster calculations.

  Creating wave function, potential, and density for free atoms.

  Species: Si

  List of occupied orbitals and eigenvalues:
    n    l              occ      energy [Ha]    energy [eV]
    1    0           2.0000       -65.491668     -1782.1190
    2    0           2.0000        -5.087967      -138.4506
    3    0           2.0000        -0.391471       -10.6525
    2    1           6.0000        -3.502246       -95.3010
    3    1           2.0000        -0.143943        -3.9169

  Creating fixed part of basis set: Ionic, confined, hydrogenic.

  Si                   ion:

  List of free ionic orbitals and eigenvalues:
    n    l      energy [Ha]    energy [eV]
    1    0       -66.364436     -1805.8682
    2    0        -5.935799      -161.5213
    3    0        -1.078166       -29.3384
    2    1        -4.351123      -118.4001
    3    1        -0.781733       -21.2720


  List of ionic basis orbitals and eigenvalues:
    n    l      energy [Ha]    energy [eV]    outer radius [A]
    3    0        -1.078146       -29.3378       4.214062


  Si                   hydrogenic:

  List of hydrogenic basis orbitals: 
    n    l      effective z      eigenvalue [eV]  inner max. [A]     outer max. [A]     outer radius [A]   
    3    2         4.200000       -26.6624           1.139231           1.139231           4.534782
    2    1         1.400000        -6.4613           1.472672           1.472672           4.590560


  Adding cutoff potential to free-atom effective potential.
  Creating atomic-like basis functions for current effective potential.

  Species Si                  :

  List of atomic basis orbitals and eigenvalues:
    n    l      energy [Ha]    energy [eV]    outer radius [A]
    1    0       -65.491668     -1782.1190       0.789468
    2    0        -5.087967      -138.4506       2.815114
    3    0        -0.391471       -10.6525       4.534782
    2    1        -3.502246       -95.3010       3.259919
    3    1        -0.143943        -3.9169       4.590560

  Assembling full basis from fixed parts.
  | Species Si :   atomic orbital   1 s accepted.
  | Species Si :   atomic orbital   2 s accepted.
  | Species Si :    ionic orbital   3 s accepted.
  | Species Si :   atomic orbital   3 s accepted.
  | Species Si :   atomic orbital   2 p accepted.
  | Species Si :   atomic orbital   3 p accepted.
  | Species Si :    hydro orbital   2 p accepted.
  | Species Si :    hydro orbital   3 d accepted.

  Basis size parameters after reduction:
  | Total number of radial functions:        8
  | Total number of basis functions :       18

  Per-task memory consumption for arrays in subroutine allocate_ext:
  |           2.757468MB.
  Testing on-site integration grid accuracy.
  |  Species  Function  <phi|h_atom|phi> (log., in eV)  <phi|h_atom|phi> (rad., in eV)
           1        1              -1782.1189727076              -1782.1182429251
           1        2               -138.4506350693               -138.4506310079
           1        3                -10.3030408815                -10.3029120678
           1        4                  5.0238999146                  4.9457540310 ***
           1        5                -95.3009689499                -95.3009689315
           1        6                 -3.9266496564                 -3.9420918374
           1        7                  6.3453628447                  6.1632372158 ***
           1        8                  6.2883050744                  6.2861881409
 * Note: Onsite integrals marked "***" above are less accurate than
 * onsite_accuracy_threshold =    0.03000 eV. Usually, this is harmless.
 * When in doubt, tighten the "radial" and/or "radial_multiplier" flags to check.

  Preparing densities etc. for the partition functions (integrals / Hartree potential).

  Preparations completed.
  max(cpu_time)          :      0.098 s.
  Wall clock time (cpu1) :      0.098 s.
------------------------------------------------------------

------------------------------------------------------------
          Begin self-consistency loop: Initialization.

          Date     :  20190514, Time     :  123609.449
------------------------------------------------------------

  Initializing index lists of integration centers etc. from given atomic structure:
  Mapping all atomic coordinates to central unit cell.

  Initializing the k-points
          Using symmetry for reducing the k-points
  | k-points reduced from:     1728 to      868
  | Number of k-points                             :       868
  The eigenvectors in the calculations are COMPLEX.
  | K-points in task   0:       868
  | Number of basis functions in the Hamiltonian integrals :       430
  | Number of basis functions in a single unit cell        :        18
  | Number of centers in hartree potential         :       339
  | Number of centers in hartree multipole         :       113
  | Number of centers in electron density summation:        59
  | Number of centers in basis integrals           :        65
  | Number of centers in integrals                 :        33
  | Number of centers in hamiltonian               :        59
  | Consuming        813 KiB for k_phase.
  | Number of super-cells (origin) [n_cells]                     :        2197
  | Number of super-cells (after PM_index) [n_cells]             :          60
  | Number of super-cells in hamiltonian [n_cells_in_hamiltonian]:          60
  | Size of matrix packed + index [n_hamiltonian_matrix_size] :        8084
  Partitioning the integration grid into batches with maxmin method.
  | Maximal weight for a single point:     1.000
  | Minimal weight for a single point:     0.519
  | Number of batches:       64
  | Maximal batch size:      90
  | Minimal batch size:      85
  | Average batch size:      87.562
  | Standard deviation of batch sizes:       1.499
  Initializing partition tables, free-atom densities, potentials, etc. across the integration grid (initialize_grid_storage).
  | initialize_grid_storage: Actual outermost partition radius vs. multipole_radius_free
  | (-- VB: in principle, multipole_radius_free should be larger, hence this output)
  | Species        1: Confinement radius =              4.999999999999999 AA, multipole_radius_free =              5.000694715736543 AA.
  | Species        1: outer_partition_radius set to              5.000694715736543 AA .
  | Original list of interatomic distances with          65 x         65 entries is created.
  | Net number of integration points:     5604
  | of which are non-zero points    :     5342
  | Numerical average free-atom electrostatic potential    :     -4.75736958 eV
  Renormalizing the initial density to the exact electron count on the 3D integration grid.
  | Initial density: Formal number of electrons (from input files) :      14.0000000000
  | Integrated number of electrons on 3D grid     :      13.9999407567
  | Charge integration error                      :      -0.0000592433
  | Normalization factor for density and gradient :       1.0000042317
  Obtaining max. number of non-zero basis functions in each batch (get_n_compute_maxes).
  | Maximal number of non-zero basis functions:      198 in task     0
  Allocating        2.500 MB for KS_eigenvector_complex
  Integrating Hamiltonian matrix: batch-based integration.
  Time summed over all CPUs for integration: real work        0.065 s, elapsed        0.065 s
  Integrating overlap matrix.
  Time summed over all CPUs for integration: real work        0.043 s, elapsed        0.043 s
  Decreasing sparse matrix size:
   Tolerance:   9.9999998245167004E-014
   Hamiltonian matrix
  | Array has     5951 nonzero elements out of     8084 elements
  | Sparsity factor is 0.264
   Overlap matrix
  | Array has     5423 nonzero elements out of     8084 elements
  | Sparsity factor is 0.329
  New size of hamiltonian matrix:        6090

  Updating Kohn-Sham eigenvalues, eigenvectors, occupation numbers, and Fermi level.
  Solving generalized eigenproblem
  Transforming overlap matrix and checking for singularities.
  Overlap matrix is nonsingular at first k-point:
  | Lowest eigenvalue:  0.604029E-01

  Obtaining occupation numbers and chemical potential using ELSI.
  | Chemical potential (Fermi level):    -4.46704042eV
  Writing Kohn-Sham eigenvalues.
  K-point:       1 at    0.000000    0.000000    0.000000 (in units of recip. lattice)

  State    Occupation    Eigenvalue [Ha]    Eigenvalue [eV]
      1       2.00000         -65.491676        -1782.11917
      2       2.00000          -5.087974         -138.45082
      3       2.00000          -3.502254          -95.30118
      4       2.00000          -3.502254          -95.30118
      5       2.00000          -3.502254          -95.30118
      6       2.00000          -0.432275          -11.76281
      7       0.00000          -0.085270           -2.32031
      8       0.00000          -0.085270           -2.32031
      9       0.00000          -0.085270           -2.32031
     10       0.00000           0.062777            1.70826

  What follows are estimated values for band gap, HOMO, LUMO, etc.
  | They are estimated on a discrete k-point grid and not necessarily exact.
  | For converged numbers, create a DOS and/or band structure plot on a denser k-grid.

  Highest occupied state (VBM) at     -4.47727607 eV (relative to internal zero)
  | Occupation number:      1.85225434
  | K-point:     574 at    0.416667    0.583333    0.500000 (in units of recip. lattice)

  Lowest unoccupied state (CBM) at    -4.44188497 eV (relative to internal zero)
  | Occupation number:      0.00037438
  | K-point:     718 at    0.583333    0.750000    0.916667 (in units of recip. lattice)

  ESTIMATED overall HOMO-LUMO gap:      0.03539111 eV between HOMO at k-point 574 and LUMO at k-point 718
  | This appears to be an indirect band gap.
  | Smallest direct gap :      0.04149822 eV for k_point 662 at    0.583333    0.750000    0.916667 (in units of recip. lattice)
  However, this system has fractional occupation numbers. Since we use a finite k-point grid,
  this material is metallic within the approximate finite broadening function (occupation_type)
  applied to determine the occupation numbers.
  Calculating total energy contributions from superposition of free atom densities.

  Total energy components:
  | Sum of eigenvalues            :        -163.34603756 Ha       -4444.87183451 eV
  | XC energy correction          :         -19.64083443 Ha        -534.45429761 eV
  | XC potential correction       :          25.95064723 Ha         706.15303993 eV
  | Free-atom electrostatic energy:        -132.20284731 Ha       -3597.42251003 eV
  | Hartree energy correction     :          -0.00000000 Ha          -0.00000000 eV
  | Entropy correction            :          -0.00000031 Ha          -0.00000834 eV
  | ---------------------------
  | Total energy                  :        -289.23907206 Ha       -7870.59560222 eV
  | Total energy, T -> 0          :        -289.23907237 Ha       -7870.59561056 eV  <-- do not rely on this value for anything but (periodic) metals
  | Electronic free energy        :        -289.23907267 Ha       -7870.59561890 eV

  Derived energy quantities:
  | Kinetic energy                :         289.54751615 Ha        7878.98879288 eV
  | Electrostatic energy          :        -559.14575377 Ha      -15215.13009749 eV
  | Energy correction for multipole
  | error in Hartree potential    :           0.00000000 Ha           0.00000000 eV
  | Sum of eigenvalues per atom                           :       -4444.87183451 eV
  | Total energy (T->0) per atom                          :       -7870.59561056 eV  <-- do not rely on this value for anything but (periodic) metals
  | Electronic free energy per atom                       :       -7870.59561890 eV
  Initialize hartree_potential_storage
  Max. number of atoms included in rho_multipole:            1

  End scf initialization - timings             :  max(cpu_time)    wall_clock(cpu1)
  | Time for scf. initialization               :        0.399 s           0.400 s
  | Boundary condition initialization          :        0.034 s           0.034 s
  | Integration                                :        0.108 s           0.108 s
  | Solution of K.-S. eqns.                    :        0.221 s           0.221 s
  | Grid partitioning                          :        0.009 s           0.009 s
  | Preloading free-atom quantities on grid    :        0.001 s           0.000 s
  | Free-atom superposition energy             :        0.007 s           0.007 s
  | Total energy evaluation                    :        0.000 s           0.001 s

  Partial memory accounting:
  | Current value for overall tracked memory usage on task 0  :           2.622 MB
  | Peak value for overall tracked memory usage on task 0     :           3.403 MB after allocating wave
  | Largest tracked array allocation on task 0 so far         :           2.500 MB  when allocating +KS_eigenvector_complex
  Note:  These values currently only include a subset of arrays which are explicitly tracked.
  The "true" memory usage will be greater.
------------------------------------------------------------

------------------------------------------------------------
          Begin self-consistency iteration #    1

  Date     :  20190514, Time     :  123609.849
------------------------------------------------------------
  Evaluating new KS density using the density matrix
  Evaluating density matrix
  Time summed over all CPUs for getting density from density matrix: real work        0.100 s, elapsed        0.100 s
  Integration grid: deviation in total charge (<rho> - N_e) =  -5.631051E-13
  Pulay mixing of updated and previous charge densities.

  Evaluating partitioned Hartree potential by multipole expansion.
  | Analytical far-field extrapolation by fixed multipoles:
  | Hartree multipole sum: apparent total charge =  -0.236322E-03
  Summing up the Hartree potential.
  | Estimated reciprocal-space cutoff momentum G_max:         1.84432723 bohr^-1 .
  | Reciprocal lattice points for long-range Hartree potential:      42
  Time summed over all CPUs for potential: real work        0.105 s, elapsed        0.105 s
  | RMS charge density error from multipole expansion :   0.524128E-04
  | Average real-space part of the electrostatic potential :     -0.01256690 eV

  Integrating Hamiltonian matrix: batch-based integration.
  Time summed over all CPUs for integration: real work        0.064 s, elapsed        0.064 s

  Updating Kohn-Sham eigenvalues, eigenvectors, occupation numbers, and Fermi level.
  Solving generalized eigenproblem

  Obtaining occupation numbers and chemical potential using ELSI.
  | Chemical potential (Fermi level):    -4.47974552eV
  Writing Kohn-Sham eigenvalues.
  K-point:       1 at    0.000000    0.000000    0.000000 (in units of recip. lattice)

  State    Occupation    Eigenvalue [Ha]    Eigenvalue [eV]
      1       2.00000         -65.494207        -1782.18804
      2       2.00000          -5.089878         -138.50262
      3       2.00000          -3.504206          -95.35430
      4       2.00000          -3.504206          -95.35430
      5       2.00000          -3.504206          -95.35430
      6       2.00000          -0.432857          -11.77863
      7       0.00000          -0.085887           -2.33710
      8       0.00000          -0.085887           -2.33710
      9       0.00000          -0.085887           -2.33710
     10       0.00000           0.062222            1.69315

  What follows are estimated values for band gap, HOMO, LUMO, etc.
  | They are estimated on a discrete k-point grid and not necessarily exact.
  | For converged numbers, create a DOS and/or band structure plot on a denser k-grid.

  Highest occupied state (VBM) at     -4.49008227 eV (relative to internal zero)
  | Occupation number:      1.85621444
  | K-point:     663 at    0.500000    0.416667    0.583333 (in units of recip. lattice)

  Lowest unoccupied state (CBM) at    -4.45383083 eV (relative to internal zero)
  | Occupation number:      0.00024744
  | K-point:     104 at    0.083333    0.250000    0.250000 (in units of recip. lattice)

  ESTIMATED overall HOMO-LUMO gap:      0.03625145 eV between HOMO at k-point 663 and LUMO at k-point 104
  | This appears to be an indirect band gap.
  | Smallest direct gap :      0.04142376 eV for k_point 663 at    0.083333    0.250000    0.250000 (in units of recip. lattice)
  However, this system has fractional occupation numbers. Since we use a finite k-point grid,
  this material is metallic within the approximate finite broadening function (occupation_type)
  applied to determine the occupation numbers.

  Total energy components:
  | Sum of eigenvalues            :        -163.36880136 Ha       -4445.49126913 eV
  | XC energy correction          :         -19.63873224 Ha        -534.39709395 eV
  | XC potential correction       :          25.94787669 Ha         706.07764949 eV
  | Free-atom electrostatic energy:        -132.20284731 Ha       -3597.42251003 eV
  | Hartree energy correction     :           0.02356735 Ha           0.64130034 eV
  | Entropy correction            :          -0.00000031 Ha          -0.00000841 eV
  | ---------------------------
  | Total energy                  :        -289.23893686 Ha       -7870.59192329 eV
  | Total energy, T -> 0          :        -289.23893717 Ha       -7870.59193170 eV  <-- do not rely on this value for anything but (periodic) metals
  | Electronic free energy        :        -289.23893748 Ha       -7870.59194011 eV

  Derived energy quantities:
  | Kinetic energy                :         289.53327727 Ha        7878.60133347 eV
  | Electrostatic energy          :        -559.13348190 Ha      -15214.79616281 eV
  | Energy correction for multipole
  | error in Hartree potential    :           0.00000537 Ha           0.00014604 eV
  | Sum of eigenvalues per atom                           :       -4445.49126913 eV
  | Total energy (T->0) per atom                          :       -7870.59193170 eV  <-- do not rely on this value for anything but (periodic) metals
  | Electronic free energy per atom                       :       -7870.59194011 eV

  Self-consistency convergence accuracy:
  | Change of charge density      :  0.3183E-01
  | Change of sum of eigenvalues  : -0.6194E+00 eV
  | Change of total energy        :  0.3679E-02 eV

  End self-consistency iteration #     1       :  max(cpu_time)    wall_clock(cpu1)
  | Time for this iteration                    :        0.395 s           0.394 s
  | Charge density update                      :        0.111 s           0.110 s
  | Density mixing & preconditioning           :        0.012 s           0.012 s
  | Hartree multipole update                   :        0.000 s           0.000 s
  | Hartree multipole summation                :        0.107 s           0.107 s
  | Integration                                :        0.064 s           0.065 s
  | Solution of K.-S. eqns.                    :        0.100 s           0.100 s
  | Total energy evaluation                    :        0.000 s           0.000 s

  Partial memory accounting:
  | Current value for overall tracked memory usage on task 0  :           2.622 MB
  | Peak value for overall tracked memory usage on task 0     :           3.403 MB after allocating wave
  | Largest tracked array allocation on task 0 so far         :           2.500 MB  when allocating +KS_eigenvector_complex
  Note:  These values currently only include a subset of arrays which are explicitly tracked.
  The "true" memory usage will be greater.
------------------------------------------------------------

------------------------------------------------------------
          Begin self-consistency iteration #    2

  Date     :  20190514, Time     :  123610.244
------------------------------------------------------------
  Evaluating new KS density using the density matrix
  Evaluating density matrix
  Time summed over all CPUs for getting density from density matrix: real work        0.100 s, elapsed        0.100 s
  Integration grid: deviation in total charge (<rho> - N_e) =  -3.232969E-13
  Pulay mixing of updated and previous charge densities.

  Evaluating partitioned Hartree potential by multipole expansion.
  | Analytical far-field extrapolation by fixed multipoles:
  | Hartree multipole sum: apparent total charge =  -0.351442E-02
  Summing up the Hartree potential.
  Time summed over all CPUs for potential: real work        0.130 s, elapsed        0.130 s
  | RMS charge density error from multipole expansion :   0.102372E-02
  | Average real-space part of the electrostatic potential :     -0.25093002 eV

  Integrating Hamiltonian matrix: batch-based integration.
  Time summed over all CPUs for integration: real work        0.064 s, elapsed        0.064 s

  Updating Kohn-Sham eigenvalues, eigenvectors, occupation numbers, and Fermi level.
  Solving generalized eigenproblem

  Obtaining occupation numbers and chemical potential using ELSI.
  | Chemical potential (Fermi level):    -4.71181148eV
  What follows are estimated values for band gap, HOMO, LUMO, etc.
  | They are estimated on a discrete k-point grid and not necessarily exact.
  | For converged numbers, create a DOS and/or band structure plot on a denser k-grid.

  Highest occupied state (VBM) at     -4.72461872 eV (relative to internal zero)
  | Occupation number:      1.92989271
  | K-point:     493 at    0.333333    0.833333    0.500000 (in units of recip. lattice)

  Lowest unoccupied state (CBM) at    -4.68732981 eV (relative to internal zero)
  | Occupation number:      0.00053572
  | K-point:     662 at    0.500000    0.416667    0.500000 (in units of recip. lattice)

  ESTIMATED overall HOMO-LUMO gap:      0.03728891 eV between HOMO at k-point 493 and LUMO at k-point 662
  | This appears to be an indirect band gap.
  | Smallest direct gap :      0.04012040 eV for k_point 566 at    0.500000    0.416667    0.500000 (in units of recip. lattice)
  However, this system has fractional occupation numbers. Since we use a finite k-point grid,
  this material is metallic within the approximate finite broadening function (occupation_type)
  applied to determine the occupation numbers.

  Checking to see if s.c.f. parameters should be adjusted.
  Adjusted the Pulay mixing parameter (charge_mix_param) for an expected low-gap system. New value:   0.020000 .
  Adjusted the occupation broadening width for an expected low-gap system. New value:      0.05000000 eV.

  Total energy components:
  | Sum of eigenvalues            :        -163.80066047 Ha       -4457.24275337 eV
  | XC energy correction          :         -19.60107877 Ha        -533.37249096 eV
  | XC potential correction       :          25.89824865 Ha         704.72720195 eV
  | Free-atom electrostatic energy:        -132.20284731 Ha       -3597.42251003 eV
  | Hartree energy correction     :           0.46886980 Ha          12.75859651 eV
  | Entropy correction            :          -0.00003273 Ha          -0.00089061 eV
  | ---------------------------
  | Total energy                  :        -289.23746809 Ha       -7870.55195590 eV
  | Total energy, T -> 0          :        -289.23750082 Ha       -7870.55284651 eV  <-- do not rely on this value for anything but (periodic) metals
  | Electronic free energy        :        -289.23753354 Ha       -7870.55373712 eV

  Derived energy quantities:
  | Kinetic energy                :         289.24183096 Ha        7870.67067573 eV
  | Electrostatic energy          :        -558.87822028 Ha      -15207.85014067 eV
  | Energy correction for multipole
  | error in Hartree potential    :           0.00012017 Ha           0.00327002 eV
  | Sum of eigenvalues per atom                           :       -4457.24275337 eV
  | Total energy (T->0) per atom                          :       -7870.55284651 eV  <-- do not rely on this value for anything but (periodic) metals
  | Electronic free energy per atom                       :       -7870.55373712 eV

  Self-consistency convergence accuracy:
  | Change of charge density      :  0.3029E-01
  | Change of sum of eigenvalues  : -0.1175E+02 eV
  | Change of total energy        :  0.3997E-01 eV

  End self-consistency iteration #     2       :  max(cpu_time)    wall_clock(cpu1)
  | Time for this iteration                    :        0.417 s           0.417 s
  | Charge density update                      :        0.110 s           0.110 s
  | Density mixing & preconditioning           :        0.012 s           0.011 s
  | Hartree multipole update                   :        0.000 s           0.001 s
  | Hartree multipole summation                :        0.131 s           0.131 s
  | Integration                                :        0.064 s           0.064 s
  | Solution of K.-S. eqns.                    :        0.100 s           0.099 s
  | Total energy evaluation                    :        0.000 s           0.001 s

  Partial memory accounting:
  | Current value for overall tracked memory usage on task 0  :           2.623 MB
  | Peak value for overall tracked memory usage on task 0     :           3.403 MB after allocating wave
  | Largest tracked array allocation on task 0 so far         :           2.500 MB  when allocating +KS_eigenvector_complex
  Note:  These values currently only include a subset of arrays which are explicitly tracked.
  The "true" memory usage will be greater.
------------------------------------------------------------

------------------------------------------------------------
          Begin self-consistency iteration #    3

  Date     :  20190514, Time     :  123610.661
------------------------------------------------------------
  Evaluating new KS density using the density matrix
  Evaluating density matrix
  Time summed over all CPUs for getting density from density matrix: real work        0.101 s, elapsed        0.101 s
  Integration grid: deviation in total charge (<rho> - N_e) =  -3.588241E-13
  Pulay mixing of updated and previous charge densities.

  Evaluating partitioned Hartree potential by multipole expansion.
  | Analytical far-field extrapolation by fixed multipoles:
  | Hartree multipole sum: apparent total charge =  -0.330064E-02
  Summing up the Hartree potential.
  Time summed over all CPUs for potential: real work        0.132 s, elapsed        0.132 s
  | RMS charge density error from multipole expansion :   0.101110E-02
  | Average real-space part of the electrostatic potential :     -0.23008073 eV

  Integrating Hamiltonian matrix: batch-based integration.
  Time summed over all CPUs for integration: real work        0.064 s, elapsed        0.064 s

  Updating Kohn-Sham eigenvalues, eigenvectors, occupation numbers, and Fermi level.
  Solving generalized eigenproblem

  Obtaining occupation numbers and chemical potential using ELSI.
  | Chemical potential (Fermi level):    -4.67694567eV
  What follows are estimated values for band gap, HOMO, LUMO, etc.
  | They are estimated on a discrete k-point grid and not necessarily exact.
  | For converged numbers, create a DOS and/or band structure plot on a denser k-grid.

  Highest occupied state (VBM) at     -4.68757640 eV (relative to internal zero)
  | Occupation number:      1.23634350
  | K-point:     460 at    0.333333    0.500000    0.833333 (in units of recip. lattice)

  Lowest unoccupied state (CBM) at    -4.64756309 eV (relative to internal zero)
  | Occupation number:      0.40593707
  | K-point:     662 at    0.500000    0.416667    0.500000 (in units of recip. lattice)

  ESTIMATED overall HOMO-LUMO gap:      0.04001331 eV between HOMO at k-point 460 and LUMO at k-point 662
  | This appears to be an indirect band gap.
  | Smallest direct gap :      0.04035860 eV for k_point 662 at    0.500000    0.416667    0.500000 (in units of recip. lattice)
  However, this system has fractional occupation numbers. Since we use a finite k-point grid,
  this material is metallic within the approximate finite broadening function (occupation_type)
  applied to determine the occupation numbers.

  Total energy components:
  | Sum of eigenvalues            :        -163.65658088 Ha       -4453.32214836 eV
  | XC energy correction          :         -19.61584863 Ha        -533.77439933 eV
  | XC potential correction       :          25.91781893 Ha         705.25973627 eV
  | Free-atom electrostatic energy:        -132.20284731 Ha       -3597.42251003 eV
  | Hartree energy correction     :           0.31987226 Ha           8.70416708 eV
  | Entropy correction            :          -0.00003139 Ha          -0.00085414 eV
  | ---------------------------
  | Total energy                  :        -289.23758563 Ha       -7870.55515437 eV
  | Total energy, T -> 0          :        -289.23761702 Ha       -7870.55600852 eV  <-- do not rely on this value for anything but (periodic) metals
  | Electronic free energy        :        -289.23764841 Ha       -7870.55686266 eV

  Derived energy quantities:
  | Kinetic energy                :         289.46561605 Ha        7876.76017798 eV
  | Electrostatic energy          :        -559.08735305 Ha      -15213.54093301 eV
  | Energy correction for multipole
  | error in Hartree potential    :           0.00011930 Ha           0.00324639 eV
  | Sum of eigenvalues per atom                           :       -4453.32214836 eV
  | Total energy (T->0) per atom                          :       -7870.55600852 eV  <-- do not rely on this value for anything but (periodic) metals
  | Electronic free energy per atom                       :       -7870.55686266 eV

  Self-consistency convergence accuracy:
  | Change of charge density      :  0.7954E-02
  | Change of sum of eigenvalues  :  0.3921E+01 eV
  | Change of total energy        : -0.3198E-02 eV

  End self-consistency iteration #     3       :  max(cpu_time)    wall_clock(cpu1)
  | Time for this iteration                    :        0.421 s           0.421 s
  | Charge density update                      :        0.111 s           0.111 s
  | Density mixing & preconditioning           :        0.011 s           0.010 s
  | Hartree multipole update                   :        0.000 s           0.001 s
  | Hartree multipole summation                :        0.135 s           0.134 s
  | Integration                                :        0.064 s           0.064 s
  | Solution of K.-S. eqns.                    :        0.100 s           0.101 s
  | Total energy evaluation                    :        0.000 s           0.000 s

  Partial memory accounting:
  | Current value for overall tracked memory usage on task 0  :           2.623 MB
  | Peak value for overall tracked memory usage on task 0     :           3.403 MB after allocating wave
  | Largest tracked array allocation on task 0 so far         :           2.500 MB  when allocating +KS_eigenvector_complex
  Note:  These values currently only include a subset of arrays which are explicitly tracked.
  The "true" memory usage will be greater.
------------------------------------------------------------

------------------------------------------------------------
          Begin self-consistency iteration #    4

  Date     :  20190514, Time     :  123611.082
------------------------------------------------------------
  Evaluating new KS density using the density matrix
  Evaluating density matrix
  Time summed over all CPUs for getting density from density matrix: real work        0.100 s, elapsed        0.100 s
  Integration grid: deviation in total charge (<rho> - N_e) =  -4.547474E-13
  Pulay mixing of updated and previous charge densities.

  Evaluating partitioned Hartree potential by multipole expansion.
  | Analytical far-field extrapolation by fixed multipoles:
  | Hartree multipole sum: apparent total charge =  -0.466728E-02
  Summing up the Hartree potential.
  Time summed over all CPUs for potential: real work        0.133 s, elapsed        0.133 s
  | RMS charge density error from multipole expansion :   0.141909E-02
  | Average real-space part of the electrostatic potential :     -0.33608259 eV

  Integrating Hamiltonian matrix: batch-based integration.
  Time summed over all CPUs for integration: real work        0.064 s, elapsed        0.064 s

  Updating Kohn-Sham eigenvalues, eigenvectors, occupation numbers, and Fermi level.
  Solving generalized eigenproblem

  Obtaining occupation numbers and chemical potential using ELSI.
  | Chemical potential (Fermi level):    -4.78207760eV
  What follows are estimated values for band gap, HOMO, LUMO, etc.
  | They are estimated on a discrete k-point grid and not necessarily exact.
  | For converged numbers, create a DOS and/or band structure plot on a denser k-grid.

  Highest occupied state (VBM) at     -4.79076850 eV (relative to internal zero)
  | Occupation number:      1.19417521
  | K-point:     261 at    0.166667    0.666667    0.666667 (in units of recip. lattice)

  Lowest unoccupied state (CBM) at    -4.75640217 eV (relative to internal zero)
  | Occupation number:      0.46770959
  | K-point:     566 at    0.416667    0.500000    0.583333 (in units of recip. lattice)

  ESTIMATED overall HOMO-LUMO gap:      0.03436633 eV between HOMO at k-point 261 and LUMO at k-point 566
  | This appears to be an indirect band gap.
  | Smallest direct gap :      0.03979332 eV for k_point 662 at    0.416667    0.500000    0.583333 (in units of recip. lattice)
  However, this system has fractional occupation numbers. Since we use a finite k-point grid,
  this material is metallic within the approximate finite broadening function (occupation_type)
  applied to determine the occupation numbers.

  Total energy components:
  | Sum of eigenvalues            :        -163.87013888 Ha       -4459.13335702 eV
  | XC energy correction          :         -19.59713375 Ha        -533.26514146 eV
  | XC potential correction       :          25.89312708 Ha         704.58783693 eV
  | Free-atom electrostatic energy:        -132.20284731 Ha       -3597.42251003 eV
  | Hartree energy correction     :           0.53959506 Ha          14.68312858 eV
  | Entropy correction            :          -0.00003190 Ha          -0.00086792 eV
  | ---------------------------
  | Total energy                  :        -289.23739779 Ha       -7870.55004299 eV
  | Total energy, T -> 0          :        -289.23742968 Ha       -7870.55091091 eV  <-- do not rely on this value for anything but (periodic) metals
  | Electronic free energy        :        -289.23746158 Ha       -7870.55177883 eV

  Derived energy quantities:
  | Kinetic energy                :         289.29382511 Ha        7872.08550848 eV
  | Electrostatic energy          :        -558.93408915 Ha      -15209.37041001 eV
  | Energy correction for multipole
  | error in Hartree potential    :           0.00017709 Ha           0.00481882 eV
  | Sum of eigenvalues per atom                           :       -4459.13335702 eV
  | Total energy (T->0) per atom                          :       -7870.55091091 eV  <-- do not rely on this value for anything but (periodic) metals
  | Electronic free energy per atom                       :       -7870.55177883 eV

  Self-consistency convergence accuracy:
  | Change of charge density      :  0.1284E-01
  | Change of sum of eigenvalues  : -0.5811E+01 eV
  | Change of total energy        :  0.5111E-02 eV

  End self-consistency iteration #     4       :  max(cpu_time)    wall_clock(cpu1)
  | Time for this iteration                    :        0.423 s           0.423 s
  | Charge density update                      :        0.111 s           0.111 s
  | Density mixing & preconditioning           :        0.011 s           0.011 s
  | Hartree multipole update                   :        0.000 s           0.001 s
  | Hartree multipole summation                :        0.135 s           0.135 s
  | Integration                                :        0.064 s           0.064 s
  | Solution of K.-S. eqns.                    :        0.101 s           0.101 s
  | Total energy evaluation                    :        0.000 s           0.000 s

  Partial memory accounting:
  | Current value for overall tracked memory usage on task 0  :           2.624 MB
  | Peak value for overall tracked memory usage on task 0     :           3.403 MB after allocating wave
  | Largest tracked array allocation on task 0 so far         :           2.500 MB  when allocating +KS_eigenvector_complex
  Note:  These values currently only include a subset of arrays which are explicitly tracked.
  The "true" memory usage will be greater.
------------------------------------------------------------

------------------------------------------------------------
          Begin self-consistency iteration #    5

  Date     :  20190514, Time     :  123611.505
------------------------------------------------------------
  Evaluating new KS density using the density matrix
  Evaluating density matrix
  Time summed over all CPUs for getting density from density matrix: real work        0.100 s, elapsed        0.100 s
  Integration grid: deviation in total charge (<rho> - N_e) =  -3.677059E-13
  Pulay mixing of updated and previous charge densities.

  Evaluating partitioned Hartree potential by multipole expansion.
  | Analytical far-field extrapolation by fixed multipoles:
  | Hartree multipole sum: apparent total charge =  -0.474314E-02
  Summing up the Hartree potential.
  Time summed over all CPUs for potential: real work        0.134 s, elapsed        0.134 s
  | RMS charge density error from multipole expansion :   0.142146E-02
  | Average real-space part of the electrostatic potential :     -0.33648032 eV

  Integrating Hamiltonian matrix: batch-based integration.
  Time summed over all CPUs for integration: real work        0.069 s, elapsed        0.069 s

  Updating Kohn-Sham eigenvalues, eigenvectors, occupation numbers, and Fermi level.
  Solving generalized eigenproblem

  Obtaining occupation numbers and chemical potential using ELSI.
  | Chemical potential (Fermi level):    -4.78279203eV
  What follows are estimated values for band gap, HOMO, LUMO, etc.
  | They are estimated on a discrete k-point grid and not necessarily exact.
  | For converged numbers, create a DOS and/or band structure plot on a denser k-grid.

  Highest occupied state (VBM) at     -4.79147055 eV (relative to internal zero)
  | Occupation number:      1.19390427
  | K-point:     493 at    0.333333    0.833333    0.500000 (in units of recip. lattice)

  Lowest unoccupied state (CBM) at    -4.75713989 eV (relative to internal zero)
  | Occupation number:      0.46811353
  | K-point:     566 at    0.416667    0.500000    0.583333 (in units of recip. lattice)

  ESTIMATED overall HOMO-LUMO gap:      0.03433066 eV between HOMO at k-point 493 and LUMO at k-point 566
  | This appears to be an indirect band gap.
  | Smallest direct gap :      0.03978982 eV for k_point 566 at    0.416667    0.500000    0.583333 (in units of recip. lattice)
  However, this system has fractional occupation numbers. Since we use a finite k-point grid,
  this material is metallic within the approximate finite broadening function (occupation_type)
  applied to determine the occupation numbers.

  Total energy components:
  | Sum of eigenvalues            :        -163.87134956 Ha       -4459.16630129 eV
  | XC energy correction          :         -19.59705994 Ha        -533.26313320 eV
  | XC potential correction       :          25.89302970 Ha         704.58518715 eV
  | Free-atom electrostatic energy:        -132.20284731 Ha       -3597.42251003 eV
  | Hartree energy correction     :           0.54082883 Ha          14.71670131 eV
  | Entropy correction            :          -0.00003190 Ha          -0.00086803 eV
  | ---------------------------
  | Total energy                  :        -289.23739827 Ha       -7870.55005605 eV
  | Total energy, T -> 0          :        -289.23743017 Ha       -7870.55092408 eV  <-- do not rely on this value for anything but (periodic) metals
  | Electronic free energy        :        -289.23746207 Ha       -7870.55179211 eV

  Derived energy quantities:
  | Kinetic energy                :         289.29334506 Ha        7872.07244565 eV
  | Electrostatic energy          :        -558.93368338 Ha      -15209.35936850 eV
  | Energy correction for multipole
  | error in Hartree potential    :           0.00017740 Ha           0.00482739 eV
  | Sum of eigenvalues per atom                           :       -4459.16630129 eV
  | Total energy (T->0) per atom                          :       -7870.55092408 eV  <-- do not rely on this value for anything but (periodic) metals
  | Electronic free energy per atom                       :       -7870.55179211 eV

  Self-consistency convergence accuracy:
  | Change of charge density      :  0.2908E-02
  | Change of sum of eigenvalues  : -0.3294E-01 eV
  | Change of total energy        : -0.1306E-04 eV

  End self-consistency iteration #     5       :  max(cpu_time)    wall_clock(cpu1)
  | Time for this iteration                    :        0.429 s           0.429 s
  | Charge density update                      :        0.110 s           0.110 s
  | Density mixing & preconditioning           :        0.012 s           0.011 s
  | Hartree multipole update                   :        0.000 s           0.001 s
  | Hartree multipole summation                :        0.135 s           0.135 s
  | Integration                                :        0.069 s           0.069 s
  | Solution of K.-S. eqns.                    :        0.102 s           0.102 s
  | Total energy evaluation                    :        0.000 s           0.000 s

  Partial memory accounting:
  | Current value for overall tracked memory usage on task 0  :           2.624 MB
  | Peak value for overall tracked memory usage on task 0     :           3.403 MB after allocating wave
  | Largest tracked array allocation on task 0 so far         :           2.500 MB  when allocating +KS_eigenvector_complex
  Note:  These values currently only include a subset of arrays which are explicitly tracked.
  The "true" memory usage will be greater.
------------------------------------------------------------

------------------------------------------------------------
          Begin self-consistency iteration #    6

  Date     :  20190514, Time     :  123611.934
------------------------------------------------------------
  Evaluating new KS density using the density matrix
  Evaluating density matrix
  Time summed over all CPUs for getting density from density matrix: real work        0.101 s, elapsed        0.101 s
  Integration grid: deviation in total charge (<rho> - N_e) =  -2.504663E-13
  Pulay mixing of updated and previous charge densities.

  Evaluating partitioned Hartree potential by multipole expansion.
  | Analytical far-field extrapolation by fixed multipoles:
  | Hartree multipole sum: apparent total charge =  -0.111226E-02
  Summing up the Hartree potential.
  Time summed over all CPUs for potential: real work        0.134 s, elapsed        0.134 s
  | RMS charge density error from multipole expansion :   0.141041E-02
  | Average real-space part of the electrostatic potential :     -0.33973254 eV

  Integrating Hamiltonian matrix: batch-based integration.
  Time summed over all CPUs for integration: real work        0.065 s, elapsed        0.065 s

  Updating Kohn-Sham eigenvalues, eigenvectors, occupation numbers, and Fermi level.
  Solving generalized eigenproblem

  Obtaining occupation numbers and chemical potential using ELSI.
  | Chemical potential (Fermi level):    -4.76564576eV
  What follows are estimated values for band gap, HOMO, LUMO, etc.
  | They are estimated on a discrete k-point grid and not necessarily exact.
  | For converged numbers, create a DOS and/or band structure plot on a denser k-grid.

  Highest occupied state (VBM) at     -4.77462741 eV (relative to internal zero)
  | Occupation number:      1.20053483
  | K-point:     442 at    0.333333    0.333333    0.833333 (in units of recip. lattice)

  Lowest unoccupied state (CBM) at    -4.73938295 eV (relative to internal zero)
  | Occupation number:      0.45758805
  | K-point:     663 at    0.500000    0.416667    0.583333 (in units of recip. lattice)

  ESTIMATED overall HOMO-LUMO gap:      0.03524445 eV between HOMO at k-point 442 and LUMO at k-point 663
  | This appears to be an indirect band gap.
  | Smallest direct gap :      0.03987301 eV for k_point 663 at    0.500000    0.416667    0.583333 (in units of recip. lattice)
  However, this system has fractional occupation numbers. Since we use a finite k-point grid,
  this material is metallic within the approximate finite broadening function (occupation_type)
  applied to determine the occupation numbers.

  Total energy components:
  | Sum of eigenvalues            :        -163.83501888 Ha       -4458.17769323 eV
  | XC energy correction          :         -19.59905235 Ha        -533.31734929 eV
  | XC potential correction       :          25.89567600 Ha         704.65719658 eV
  | Free-atom electrostatic energy:        -132.20284731 Ha       -3597.42251003 eV
  | Hartree energy correction     :           0.50385154 Ha          13.71049806 eV
  | Entropy correction            :          -0.00003180 Ha          -0.00086524 eV
  | ---------------------------
  | Total energy                  :        -289.23739099 Ha       -7870.54985791 eV
  | Total energy, T -> 0          :        -289.23742278 Ha       -7870.55072315 eV  <-- do not rely on this value for anything but (periodic) metals
  | Electronic free energy        :        -289.23745458 Ha       -7870.55158839 eV

  Derived energy quantities:
  | Kinetic energy                :         289.31964278 Ha        7872.78804297 eV
  | Electrostatic energy          :        -558.95798141 Ha      -15210.02055159 eV
  | Energy correction for multipole
  | error in Hartree potential    :           0.00017694 Ha           0.00481479 eV
  | Sum of eigenvalues per atom                           :       -4458.17769323 eV
  | Total energy (T->0) per atom                          :       -7870.55072315 eV  <-- do not rely on this value for anything but (periodic) metals
  | Electronic free energy per atom                       :       -7870.55158839 eV

  Self-consistency convergence accuracy:
  | Change of charge density      :  0.2977E-02
  | Change of sum of eigenvalues  :  0.9886E+00 eV
  | Change of total energy        :  0.1981E-03 eV

  End self-consistency iteration #     6       :  max(cpu_time)    wall_clock(cpu1)
  | Time for this iteration                    :        0.426 s           0.426 s
  | Charge density update                      :        0.112 s           0.112 s
  | Density mixing & preconditioning           :        0.011 s           0.011 s
  | Hartree multipole update                   :        0.000 s           0.000 s
  | Hartree multipole summation                :        0.136 s           0.136 s
  | Integration                                :        0.065 s           0.065 s
  | Solution of K.-S. eqns.                    :        0.102 s           0.102 s
  | Total energy evaluation                    :        0.000 s           0.000 s

  Partial memory accounting:
  | Current value for overall tracked memory usage on task 0  :           2.624 MB
  | Peak value for overall tracked memory usage on task 0     :           3.403 MB after allocating wave
  | Largest tracked array allocation on task 0 so far         :           2.500 MB  when allocating +KS_eigenvector_complex
  Note:  These values currently only include a subset of arrays which are explicitly tracked.
  The "true" memory usage will be greater.
------------------------------------------------------------

------------------------------------------------------------
          Begin self-consistency iteration #    7

  Date     :  20190514, Time     :  123612.360
------------------------------------------------------------
  Evaluating new KS density using the density matrix
  Evaluating density matrix
  Time summed over all CPUs for getting density from density matrix: real work        0.102 s, elapsed        0.102 s
  Integration grid: deviation in total charge (<rho> - N_e) =  -4.369838E-13
  Pulay mixing of updated and previous charge densities.

  Evaluating partitioned Hartree potential by multipole expansion.
  | Analytical far-field extrapolation by fixed multipoles:
  | Hartree multipole sum: apparent total charge =  -0.410652E-03
  Summing up the Hartree potential.
  Time summed over all CPUs for potential: real work        0.133 s, elapsed        0.133 s
  | RMS charge density error from multipole expansion :   0.140058E-02
  | Average real-space part of the electrostatic potential :     -0.34159454 eV

  Integrating Hamiltonian matrix: batch-based integration.
  Time summed over all CPUs for integration: real work        0.066 s, elapsed        0.066 s

  Updating Kohn-Sham eigenvalues, eigenvectors, occupation numbers, and Fermi level.
  Solving generalized eigenproblem

  Obtaining occupation numbers and chemical potential using ELSI.
  | Chemical potential (Fermi level):    -4.76466696eV
  What follows are estimated values for band gap, HOMO, LUMO, etc.
  | They are estimated on a discrete k-point grid and not necessarily exact.
  | For converged numbers, create a DOS and/or band structure plot on a denser k-grid.

  Highest occupied state (VBM) at     -4.77365794 eV (relative to internal zero)
  | Occupation number:      1.20073894
  | K-point:     493 at    0.333333    0.833333    0.500000 (in units of recip. lattice)

  Lowest unoccupied state (CBM) at    -4.73839903 eV (relative to internal zero)
  | Occupation number:      0.45750046
  | K-point:     662 at    0.500000    0.416667    0.500000 (in units of recip. lattice)

  ESTIMATED overall HOMO-LUMO gap:      0.03525891 eV between HOMO at k-point 493 and LUMO at k-point 662
  | This appears to be an indirect band gap.
  | Smallest direct gap :      0.03987755 eV for k_point 566 at    0.500000    0.416667    0.500000 (in units of recip. lattice)
  However, this system has fractional occupation numbers. Since we use a finite k-point grid,
  this material is metallic within the approximate finite broadening function (occupation_type)
  applied to determine the occupation numbers.

  Total energy components:
  | Sum of eigenvalues            :        -163.83327274 Ha       -4458.13017842 eV
  | XC energy correction          :         -19.59902083 Ha        -533.31649167 eV
  | XC potential correction       :          25.89563742 Ha         704.65614662 eV
  | Free-atom electrostatic energy:        -132.20284731 Ha       -3597.42251003 eV
  | Hartree energy correction     :           0.50211240 Ha          13.66317370 eV
  | Entropy correction            :          -0.00003179 Ha          -0.00086518 eV
  | ---------------------------
  | Total energy                  :        -289.23739106 Ha       -7870.54985980 eV
  | Total energy, T -> 0          :        -289.23742285 Ha       -7870.55072497 eV  <-- do not rely on this value for anything but (periodic) metals
  | Electronic free energy        :        -289.23745465 Ha       -7870.55159015 eV

  Derived energy quantities:
  | Kinetic energy                :         289.32079604 Ha        7872.81942492 eV
  | Electrostatic energy          :        -558.95916627 Ha      -15210.05279305 eV
  | Energy correction for multipole
  | error in Hartree potential    :           0.00017584 Ha           0.00478481 eV
  | Sum of eigenvalues per atom                           :       -4458.13017842 eV
  | Total energy (T->0) per atom                          :       -7870.55072497 eV  <-- do not rely on this value for anything but (periodic) metals
  | Electronic free energy per atom                       :       -7870.55159015 eV

  Self-consistency convergence accuracy:
  | Change of charge density      :  0.4236E-03
  | Change of sum of eigenvalues  :  0.4751E-01 eV
  | Change of total energy        : -0.1883E-05 eV

  End self-consistency iteration #     7       :  max(cpu_time)    wall_clock(cpu1)
  | Time for this iteration                    :        0.424 s           0.424 s
  | Charge density update                      :        0.111 s           0.112 s
  | Density mixing & preconditioning           :        0.011 s           0.010 s
  | Hartree multipole update                   :        0.000 s           0.001 s
  | Hartree multipole summation                :        0.135 s           0.135 s
  | Integration                                :        0.066 s           0.066 s
  | Solution of K.-S. eqns.                    :        0.101 s           0.100 s
  | Total energy evaluation                    :        0.000 s           0.000 s

  Partial memory accounting:
  | Current value for overall tracked memory usage on task 0  :           2.624 MB
  | Peak value for overall tracked memory usage on task 0     :           3.403 MB after allocating wave
  | Largest tracked array allocation on task 0 so far         :           2.500 MB  when allocating +KS_eigenvector_complex
  Note:  These values currently only include a subset of arrays which are explicitly tracked.
  The "true" memory usage will be greater.
------------------------------------------------------------

------------------------------------------------------------
          Begin self-consistency iteration #    8

  Date     :  20190514, Time     :  123612.785
------------------------------------------------------------
  Evaluating new KS density using the density matrix
  Evaluating density matrix
  Time summed over all CPUs for getting density from density matrix: real work        0.100 s, elapsed        0.100 s
  Integration grid: deviation in total charge (<rho> - N_e) =  -3.357314E-13
  Pulay mixing of updated and previous charge densities.

  Evaluating partitioned Hartree potential by multipole expansion.
  | Analytical far-field extrapolation by fixed multipoles:
  | Hartree multipole sum: apparent total charge =  -0.661619E-04
  Summing up the Hartree potential.
  Time summed over all CPUs for potential: real work        0.132 s, elapsed        0.132 s
  | RMS charge density error from multipole expansion :   0.139008E-02
  | Average real-space part of the electrostatic potential :     -0.34042200 eV

  Integrating Hamiltonian matrix: batch-based integration.
  Time summed over all CPUs for integration: real work        0.063 s, elapsed        0.063 s

  Updating Kohn-Sham eigenvalues, eigenvectors, occupation numbers, and Fermi level.
  Solving generalized eigenproblem

  Obtaining occupation numbers and chemical potential using ELSI.
  | Chemical potential (Fermi level):    -4.76219381eV
  What follows are estimated values for band gap, HOMO, LUMO, etc.
  | They are estimated on a discrete k-point grid and not necessarily exact.
  | For converged numbers, create a DOS and/or band structure plot on a denser k-grid.

  Highest occupied state (VBM) at     -4.77122607 eV (relative to internal zero)
  | Occupation number:      1.20164065
  | K-point:     493 at    0.333333    0.833333    0.500000 (in units of recip. lattice)

  Lowest unoccupied state (CBM) at    -4.73585147 eV (relative to internal zero)
  | Occupation number:      0.45622714
  | K-point:     662 at    0.500000    0.416667    0.500000 (in units of recip. lattice)

  ESTIMATED overall HOMO-LUMO gap:      0.03537460 eV between HOMO at k-point 493 and LUMO at k-point 662
  | This appears to be an indirect band gap.
  | Smallest direct gap :      0.03988979 eV for k_point 662 at    0.500000    0.416667    0.500000 (in units of recip. lattice)
  However, this system has fractional occupation numbers. Since we use a finite k-point grid,
  this material is metallic within the approximate finite broadening function (occupation_type)
  applied to determine the occupation numbers.

  Total energy components:
  | Sum of eigenvalues            :        -163.82903340 Ha       -4458.01482016 eV
  | XC energy correction          :         -19.59927155 Ha        -533.32331399 eV
  | XC potential correction       :          25.89596869 Ha         704.66516095 eV
  | Free-atom electrostatic energy:        -132.20284731 Ha       -3597.42251003 eV
  | Hartree energy correction     :           0.49779222 Ha          13.54561542 eV
  | Entropy correction            :          -0.00003178 Ha          -0.00086484 eV
  | ---------------------------
  | Total energy                  :        -289.23739135 Ha       -7870.54986781 eV
  | Total energy, T -> 0          :        -289.23742313 Ha       -7870.55073265 eV  <-- do not rely on this value for anything but (periodic) metals
  | Electronic free energy        :        -289.23745491 Ha       -7870.55159749 eV

  Derived energy quantities:
  | Kinetic energy                :         289.32275280 Ha        7872.87267111 eV
  | Electrostatic energy          :        -558.96087261 Ha      -15210.09922494 eV
  | Energy correction for multipole
  | error in Hartree potential    :           0.00017440 Ha           0.00474579 eV
  | Sum of eigenvalues per atom                           :       -4458.01482016 eV
  | Total energy (T->0) per atom                          :       -7870.55073265 eV  <-- do not rely on this value for anything but (periodic) metals
  | Electronic free energy per atom                       :       -7870.55159749 eV

  Self-consistency convergence accuracy:
  | Change of charge density      :  0.3177E-03
  | Change of sum of eigenvalues  :  0.1154E+00 eV
  | Change of total energy        : -0.8018E-05 eV

  End self-consistency iteration #     8       :  max(cpu_time)    wall_clock(cpu1)
  | Time for this iteration                    :        0.419 s           0.419 s
  | Charge density update                      :        0.110 s           0.110 s
  | Density mixing & preconditioning           :        0.011 s           0.011 s
  | Hartree multipole update                   :        0.000 s           0.000 s
  | Hartree multipole summation                :        0.134 s           0.134 s
  | Integration                                :        0.064 s           0.063 s
  | Solution of K.-S. eqns.                    :        0.100 s           0.100 s
  | Total energy evaluation                    :        0.000 s           0.001 s

  Partial memory accounting:
  | Current value for overall tracked memory usage on task 0  :           2.625 MB
  | Peak value for overall tracked memory usage on task 0     :           3.403 MB after allocating wave
  | Largest tracked array allocation on task 0 so far         :           2.500 MB  when allocating +KS_eigenvector_complex
  Note:  These values currently only include a subset of arrays which are explicitly tracked.
  The "true" memory usage will be greater.
------------------------------------------------------------

------------------------------------------------------------
          Begin self-consistency iteration #    9

  Date     :  20190514, Time     :  123613.204
------------------------------------------------------------
  Evaluating new KS density using the density matrix
  Evaluating density matrix
  Time summed over all CPUs for getting density from density matrix: real work        0.099 s, elapsed        0.099 s
  Integration grid: deviation in total charge (<rho> - N_e) =  -4.600764E-13
  Pulay mixing of updated and previous charge densities.

  Evaluating partitioned Hartree potential by multipole expansion.
  | Analytical far-field extrapolation by fixed multipoles:
  | Hartree multipole sum: apparent total charge =  -0.528079E-04
  Summing up the Hartree potential.
  Time summed over all CPUs for potential: real work        0.132 s, elapsed        0.132 s
  | RMS charge density error from multipole expansion :   0.138858E-02
  | Average real-space part of the electrostatic potential :     -0.34002736 eV

  Integrating Hamiltonian matrix: batch-based integration.
  Time summed over all CPUs for integration: real work        0.064 s, elapsed        0.064 s

  Updating Kohn-Sham eigenvalues, eigenvectors, occupation numbers, and Fermi level.
  Solving generalized eigenproblem

  Obtaining occupation numbers and chemical potential using ELSI.
  | Chemical potential (Fermi level):    -4.76173662eV
  What follows are estimated values for band gap, HOMO, LUMO, etc.
  | They are estimated on a discrete k-point grid and not necessarily exact.
  | For converged numbers, create a DOS and/or band structure plot on a denser k-grid.

  Highest occupied state (VBM) at     -4.77077773 eV (relative to internal zero)
  | Occupation number:      1.20183386
  | K-point:     261 at    0.166667    0.666667    0.666667 (in units of recip. lattice)

  Lowest unoccupied state (CBM) at    -4.73537763 eV (relative to internal zero)
  | Occupation number:      0.45594241
  | K-point:     672 at    0.500000    0.500000    0.583333 (in units of recip. lattice)

  ESTIMATED overall HOMO-LUMO gap:      0.03540010 eV between HOMO at k-point 261 and LUMO at k-point 672
  | This appears to be an indirect band gap.
  | Smallest direct gap :      0.03989236 eV for k_point 574 at    0.500000    0.500000    0.583333 (in units of recip. lattice)
  However, this system has fractional occupation numbers. Since we use a finite k-point grid,
  this material is metallic within the approximate finite broadening function (occupation_type)
  applied to determine the occupation numbers.

  Total energy components:
  | Sum of eigenvalues            :        -163.82812450 Ha       -4457.99008757 eV
  | XC energy correction          :         -19.59934217 Ha        -533.32523583 eV
  | XC potential correction       :          25.89606183 Ha         704.66769555 eV
  | Free-atom electrostatic energy:        -132.20284731 Ha       -3597.42251003 eV
  | Hartree energy correction     :           0.49686071 Ha          13.52026783 eV
  | Entropy correction            :          -0.00003178 Ha          -0.00086477 eV
  | ---------------------------
  | Total energy                  :        -289.23739143 Ha       -7870.54987005 eV
  | Total energy, T -> 0          :        -289.23742321 Ha       -7870.55073481 eV  <-- do not rely on this value for anything but (periodic) metals
  | Electronic free energy        :        -289.23745499 Ha       -7870.55159958 eV

  Derived energy quantities:
  | Kinetic energy                :         289.32331025 Ha        7872.88784005 eV
  | Electrostatic energy          :        -558.96135951 Ha      -15210.11247427 eV
  | Energy correction for multipole
  | error in Hartree potential    :           0.00017419 Ha           0.00473989 eV
  | Sum of eigenvalues per atom                           :       -4457.99008757 eV
[...]
  | Hartree multipole update                   :        0.000 s           0.000 s
  | Hartree multipole summation                :        0.135 s           0.136 s
  | Integration                                :        0.064 s           0.064 s
  | Solution of K.-S. eqns.                    :        0.101 s           0.101 s
  | Total energy evaluation                    :        0.000 s           0.000 s

  Partial memory accounting:
  | Current value for overall tracked memory usage on task 0  :           2.625 MB
  | Peak value for overall tracked memory usage on task 0     :           3.403 MB after allocating wave
  | Largest tracked array allocation on task 0 so far         :           2.500 MB  when allocating +KS_eigenvector_complex
  Note:  These values currently only include a subset of arrays which are explicitly tracked.
  The "true" memory usage will be greater.
------------------------------------------------------------

------------------------------------------------------------
          Begin self-consistency iteration #   11

  Date     :  20190514, Time     :  123614.049
------------------------------------------------------------
  Evaluating new KS density using the density matrix
  Evaluating density matrix
  Time summed over all CPUs for getting density from density matrix: real work        0.104 s, elapsed        0.104 s
  Integration grid: deviation in total charge (<rho> - N_e) =  -3.463896E-13
  Pulay mixing of updated and previous charge densities.

  Evaluating partitioned Hartree potential by multipole expansion.
  | Analytical far-field extrapolation by fixed multipoles:
  | Hartree multipole sum: apparent total charge =  -0.575586E-04
  Summing up the Hartree potential.
  Time summed over all CPUs for potential: real work        0.135 s, elapsed        0.135 s
  | RMS charge density error from multipole expansion :   0.138864E-02
  | Average real-space part of the electrostatic potential :     -0.34003253 eV

  Integrating Hamiltonian matrix: batch-based integration.
  Time summed over all CPUs for integration: real work        0.065 s, elapsed        0.065 s

  Updating Kohn-Sham eigenvalues, eigenvectors, occupation numbers, and Fermi level.
  Solving generalized eigenproblem

  Obtaining occupation numbers and chemical potential using ELSI.
  | Chemical potential (Fermi level):    -4.76176762eV
  What follows are estimated values for band gap, HOMO, LUMO, etc.
  | They are estimated on a discrete k-point grid and not necessarily exact.
  | For converged numbers, create a DOS and/or band structure plot on a denser k-grid.

  Highest occupied state (VBM) at     -4.77080815 eV (relative to internal zero)
  | Occupation number:      1.20182116
  | K-point:     261 at    0.166667    0.666667    0.666667 (in units of recip. lattice)

  Lowest unoccupied state (CBM) at    -4.73540973 eV (relative to internal zero)
  | Occupation number:      0.45596117
  | K-point:     662 at    0.500000    0.416667    0.500000 (in units of recip. lattice)

  ESTIMATED overall HOMO-LUMO gap:      0.03539842 eV between HOMO at k-point 261 and LUMO at k-point 662
  | This appears to be an indirect band gap.
  | Smallest direct gap :      0.03989217 eV for k_point 662 at    0.500000    0.416667    0.500000 (in units of recip. lattice)
  However, this system has fractional occupation numbers. Since we use a finite k-point grid,
  this material is metallic within the approximate finite broadening function (occupation_type)
  applied to determine the occupation numbers.

  Total energy components:
  | Sum of eigenvalues            :        -163.82818676 Ha       -4457.99178198 eV
  | XC energy correction          :         -19.59933852 Ha        -533.32513631 eV
  | XC potential correction       :          25.89605699 Ha         704.66756377 eV
  | Free-atom electrostatic energy:        -132.20284731 Ha       -3597.42251003 eV
  | Hartree energy correction     :           0.49692417 Ha          13.52199460 eV
  | Entropy correction            :          -0.00003178 Ha          -0.00086477 eV
  | ---------------------------
  | Total energy                  :        -289.23739143 Ha       -7870.54986995 eV
  | Total energy, T -> 0          :        -289.23742321 Ha       -7870.55073472 eV  <-- do not rely on this value for anything but (periodic) metals
  | Electronic free energy        :        -289.23745499 Ha       -7870.55159949 eV

  Derived energy quantities:
  | Kinetic energy                :         289.32327067 Ha        7872.88676287 eV
  | Electrostatic energy          :        -558.96132358 Ha      -15210.11149651 eV
  | Energy correction for multipole
  | error in Hartree potential    :           0.00017420 Ha           0.00474009 eV
  | Sum of eigenvalues per atom                           :       -4457.99178198 eV
  | Total energy (T->0) per atom                          :       -7870.55073472 eV  <-- do not rely on this value for anything but (periodic) metals
  | Electronic free energy per atom                       :       -7870.55159949 eV

  Self-consistency convergence accuracy:
  | Change of charge density      :  0.4133E-05
  | Change of sum of eigenvalues  : -0.1780E-02 eV
  | Change of total energy        :  0.1937E-06 eV

  End self-consistency iteration #    11       :  max(cpu_time)    wall_clock(cpu1)
  | Time for this iteration                    :        0.429 s           0.428 s
  | Charge density update                      :        0.114 s           0.114 s
  | Density mixing & preconditioning           :        0.011 s           0.011 s
  | Hartree multipole update                   :        0.000 s           0.001 s
  | Hartree multipole summation                :        0.136 s           0.136 s
  | Integration                                :        0.065 s           0.065 s
  | Solution of K.-S. eqns.                    :        0.101 s           0.101 s
  | Total energy evaluation                    :        0.000 s           0.000 s

  Partial memory accounting:
  | Current value for overall tracked memory usage on task 0  :           2.625 MB
  | Peak value for overall tracked memory usage on task 0     :           3.403 MB after allocating wave
  | Largest tracked array allocation on task 0 so far         :           2.500 MB  when allocating +KS_eigenvector_complex
  Note:  These values currently only include a subset of arrays which are explicitly tracked.
  The "true" memory usage will be greater.
------------------------------------------------------------

------------------------------------------------------------
          Begin self-consistency iteration #   12

  Date     :  20190514, Time     :  123614.478
------------------------------------------------------------
  Evaluating new KS density using the density matrix
  Evaluating density matrix
  Time summed over all CPUs for getting density from density matrix: real work        0.100 s, elapsed        0.100 s
  Integration grid: deviation in total charge (<rho> - N_e) =  -3.819167E-13
  Pulay mixing of updated and previous charge densities.

  Evaluating partitioned Hartree potential by multipole expansion.
  | Analytical far-field extrapolation by fixed multipoles:
  | Hartree multipole sum: apparent total charge =  -0.575615E-04
  Summing up the Hartree potential.
  Time summed over all CPUs for potential: real work        0.133 s, elapsed        0.133 s
  | RMS charge density error from multipole expansion :   0.138864E-02
  | Average real-space part of the electrostatic potential :     -0.34003245 eV

  Integrating Hamiltonian matrix: batch-based integration.
  Time summed over all CPUs for integration: real work        0.064 s, elapsed        0.064 s

  Updating Kohn-Sham eigenvalues, eigenvectors, occupation numbers, and Fermi level.
  Solving generalized eigenproblem

  Obtaining occupation numbers and chemical potential using ELSI.
  | Chemical potential (Fermi level):    -4.76176756eV
  What follows are estimated values for band gap, HOMO, LUMO, etc.
  | They are estimated on a discrete k-point grid and not necessarily exact.
  | For converged numbers, create a DOS and/or band structure plot on a denser k-grid.

  Highest occupied state (VBM) at     -4.77080809 eV (relative to internal zero)
  | Occupation number:      1.20182119
  | K-point:     493 at    0.333333    0.833333    0.500000 (in units of recip. lattice)

  Lowest unoccupied state (CBM) at    -4.73540966 eV (relative to internal zero)
  | Occupation number:      0.45596114
  | K-point:     662 at    0.500000    0.416667    0.500000 (in units of recip. lattice)

  ESTIMATED overall HOMO-LUMO gap:      0.03539842 eV between HOMO at k-point 493 and LUMO at k-point 662
  | This appears to be an indirect band gap.
  | Smallest direct gap :      0.03989217 eV for k_point 566 at    0.500000    0.416667    0.500000 (in units of recip. lattice)
  However, this system has fractional occupation numbers. Since we use a finite k-point grid,
  this material is metallic within the approximate finite broadening function (occupation_type)
  applied to determine the occupation numbers.

  Total energy components:
  | Sum of eigenvalues            :        -163.82818668 Ha       -4457.99177957 eV
  | XC energy correction          :         -19.59933852 Ha        -533.32513651 eV
  | XC potential correction       :          25.89605700 Ha         704.66756404 eV
  | Free-atom electrostatic energy:        -132.20284731 Ha       -3597.42251003 eV
  | Hartree energy correction     :           0.49692408 Ha          13.52199213 eV
  | Entropy correction            :          -0.00003178 Ha          -0.00086477 eV
  | ---------------------------
  | Total energy                  :        -289.23739143 Ha       -7870.54986995 eV
  | Total energy, T -> 0          :        -289.23742321 Ha       -7870.55073472 eV  <-- do not rely on this value for anything but (periodic) metals
  | Electronic free energy        :        -289.23745499 Ha       -7870.55159950 eV

  Derived energy quantities:
  | Kinetic energy                :         289.32327069 Ha        7872.88676361 eV
  | Electrostatic energy          :        -558.96132360 Ha      -15210.11149705 eV
  | Energy correction for multipole
  | error in Hartree potential    :           0.00017420 Ha           0.00474009 eV
  | Sum of eigenvalues per atom                           :       -4457.99177957 eV
  | Total energy (T->0) per atom                          :       -7870.55073472 eV  <-- do not rely on this value for anything but (periodic) metals
  | Electronic free energy per atom                       :       -7870.55159950 eV

  Self-consistency convergence accuracy:
  | Change of charge density      :  0.7237E-07
  | Change of sum of eigenvalues  :  0.2404E-05 eV
  | Change of total energy        : -0.3496E-09 eV

  Preliminary charge convergence reached. Turning off preconditioner.

  Writing Kohn-Sham eigenvalues.
  K-point:       1 at    0.000000    0.000000    0.000000 (in units of recip. lattice)

  State    Occupation    Eigenvalue [Ha]    Eigenvalue [eV]
      1       2.00000         -65.541071        -1783.46329
      2       2.00000          -5.129073         -139.56919
      3       2.00000          -3.543969          -96.43629
      4       2.00000          -3.543969          -96.43629
      5       2.00000          -3.543969          -96.43629
      6       2.00000          -0.445910          -12.13384
      7       0.00000          -0.099613           -2.71060
      8       0.00000          -0.099613           -2.71060
      9       0.00000          -0.099613           -2.71060
     10       0.00000           0.050215            1.36641

  What follows are estimated values for band gap, HOMO, LUMO, etc.
  | They are estimated on a discrete k-point grid and not necessarily exact.
  | For converged numbers, create a DOS and/or band structure plot on a denser k-grid.

  Highest occupied state (VBM) at     -4.77080809 eV (relative to internal zero)
  | Occupation number:      1.20182119
  | K-point:     493 at    0.333333    0.833333    0.500000 (in units of recip. lattice)

  Lowest unoccupied state (CBM) at    -4.73540966 eV (relative to internal zero)
  | Occupation number:      0.45596114
  | K-point:     662 at    0.500000    0.416667    0.500000 (in units of recip. lattice)

  ESTIMATED overall HOMO-LUMO gap:      0.03539842 eV between HOMO at k-point 493 and LUMO at k-point 662
  | This appears to be an indirect band gap.
  | Smallest direct gap :      0.03989217 eV for k_point 566 at    0.500000    0.416667    0.500000 (in units of recip. lattice)
  However, this system has fractional occupation numbers. Since we use a finite k-point grid,
  this material is metallic within the approximate finite broadening function (occupation_type)
  applied to determine the occupation numbers.

  Self-consistency cycle converged.

  End self-consistency iteration #    12       :  max(cpu_time)    wall_clock(cpu1)
  | Time for this iteration                    :        0.424 s           0.424 s
  | Charge density update                      :        0.111 s           0.110 s
  | Density mixing                             :        0.011 s           0.012 s
  | Hartree multipole update                   :        0.000 s           0.000 s
  | Hartree multipole summation                :        0.135 s           0.135 s
  | Integration                                :        0.065 s           0.064 s
  | Solution of K.-S. eqns.                    :        0.102 s           0.102 s
  | Total energy evaluation                    :        0.000 s           0.000 s

  Partial memory accounting:
  | Current value for overall tracked memory usage on task 0  :           2.625 MB
  | Peak value for overall tracked memory usage on task 0     :           3.403 MB after allocating wave
  | Largest tracked array allocation on task 0 so far         :           2.500 MB  when allocating +KS_eigenvector_complex
  Note:  These values currently only include a subset of arrays which are explicitly tracked.
  The "true" memory usage will be greater.
------------------------------------------------------------

  Energy and forces in a compact form:
  | Total energy uncorrected      :         -0.787054986995260E+04 eV
  | Total energy corrected        :         -0.787055073472383E+04 eV  <-- do not rely on this value for anything but (periodic) metals
  | Electronic free energy        :         -0.787055159949506E+04 eV

  ------------------------------------ 
  Start decomposition of the XC Energy 
  ------------------------------------ 
  X and C from original XC functional choice 
  Hartree-Fock Energy :          0.000000000 Ha              0.000000000 eV
  X Energy            :        -18.547564157 Ha           -504.704899802 eV
  C Energy            :         -1.051774367 Ha            -28.620236711 eV
  Total XC Energy     :        -19.599338524 Ha           -533.325136513 eV
  ------------------------------------ 
  LDA X and C from self-consistent density 
  X Energy LDA        :        -18.547564157 Ha           -504.704899802 eV
  C Energy LDA        :         -1.051774367 Ha            -28.620236711 eV
  ------------------------------------ 
  End decomposition of the XC Energy 
  ------------------------------------ 

------------------------------------------------------------

------------------------------------------------------------------------------
  Final output of selected total energy values:

  The following output summarizes some interesting total energy values
  at the end of a run (AFTER all relaxation, molecular dynamics, etc.).

  | Total energy of the DFT / Hartree-Fock s.c.f. calculation      :          -7870.549869953 eV
  | Final zero-broadening corrected energy (caution - metals only) :          -7870.550734724 eV
  | For reference only, the value of 1 Hartree used in FHI-aims is :             27.211384500 eV

  Before relying on these values, please be sure to understand exactly which
  total energy value is referred to by a given number. Different objects may
  all carry the same name 'total energy'. Definitions:

  Total energy of the DFT / Hartree-Fock s.c.f. calculation:
  | Note that this energy does not include ANY quantities calculated after the
  | s.c.f. cycle, in particular not ANY RPA, MP2, etc. many-body perturbation terms.

  Final zero-broadening corrected energy:
  | For metallic systems only, a broadening of the occupation numbers at the Fermi
  | level can be extrapolated back to zero broadening by an electron-gas inspired
  | formula. For all systems that are not real metals, this value can be
  | meaningless and should be avoided.

------------------------------------------------------------------------------
  Methods described in the following list of references were used in this FHI-aims run.
  If you publish the results, please make sure to cite these reference if they apply.
  FHI-aims is an academic code, and for our developers (often, Ph.D. students
  and postdocs), scientific credit in the community is essential.
  Thank you for helping us!

  For any use of FHI-aims, please cite:

    Volker Blum, Ralf Gehrke, Felix Hanke, Paula Havu, Ville Havu,
    Xinguo Ren, Karsten Reuter, and Matthias Scheffler
    'Ab initio molecular simulations with numeric atom-centered orbitals'
    Computer Physics Communications 180, 2175-2196 (2009)
    http://dx.doi.org/10.1016/j.cpc.2009.06.022


  For the real-space grid partitioning and parallelization used in this calculation, please cite:

    Ville Havu, Volker Blum, Paula Havu, and Matthias Scheffler,
    'Efficient O(N) integration for all-electron electronic structure calculation'
    'using numerically tabulated basis functions'
    Journal of Computational Physics 228, 8367-8379 (2009).
    http://dx.doi.org/10.1016/j.jcp.2009.08.008

  Of course, there are many other important community references, e.g., those cited in the
  above references. Our list is limited to references that describe implementations in the
  FHI-aims code. The reason is purely practical (length of this list) - please credit others as well.

------------------------------------------------------------
          Leaving FHI-aims.
          Date     :  20190514, Time     :  123614.907

          Computational steps:
          | Number of self-consistency cycles          :           12
          | Number of SCF (re)initializations          :            1

          Detailed time accounting                     :  max(cpu_time)    wall_clock(cpu1)
          | Total time                                 :        5.558 s           5.557 s
          | Preparation time                           :        0.098 s           0.098 s
          | Boundary condition initalization           :        0.034 s           0.034 s
          | Grid partitioning                          :        0.009 s           0.009 s
          | Preloading free-atom quantities on grid    :        0.001 s           0.000 s
          | Free-atom superposition energy             :        0.007 s           0.007 s
          | Total time for integrations                :        0.885 s           0.885 s
          | Total time for solution of K.-S. equations :        1.433 s           1.431 s
          | Total time for density update              :        1.331 s           1.330 s
          | Total time for mixing & preconditioning    :        0.135 s           0.132 s
          | Total time for Hartree multipole update    :        0.005 s           0.007 s
          | Total time for Hartree multipole sum       :        1.588 s           1.588 s
          | Total time for total energy evaluation     :        0.002 s           0.004 s
          | Total time for scaled ZORA corrections     :        0.000 s           0.000 s

 This is a stub MPI_ALLREDUCE call.
 You should not be here. Check your
 setting on the use_mpi variable, or
 link against true MPI-libraries.
