------------------------------------------------------------
          Invoking FHI-aims ...
          Version 171221_1
          Compiled on 2019/05/06 at 14:26:40 on host ffph0xx.

          When using FHI-aims, please cite the following reference:

          Volker Blum, Ralf Gehrke, Felix Hanke, Paula Havu,
          Ville Havu, Xinguo Ren, Karsten Reuter, and Matthias Scheffler,
          'Ab Initio Molecular Simulations with Numeric Atom-Centered Orbitals',
          Computer Physics Communications 180, 2175-2196 (2009)

          For any questions about FHI-aims, please visit the aimsclub website
          with its forums and wiki. Contributions to both the forums and the
          wiki are warmly encouraged - they are for you, and everyone is welcome there.

------------------------------------------------------------



  Date     :  20190514, Time     :  123651.467
  Time zero on CPU 1             :   0.621000000000000E-03  s.
  Internal wall clock time zero  :           327069411.467  s.

  FHI-aims created a unique identifier for this run for later identification
  aims_uuid : 09337159-05BC-42EB-A5B3-2183656206F0


  Performing system and environment tests:
  *** Environment variable OMP_NUM_THREADS is not set
  *** For performance reasons you might want to set it to 1
  | Stacksize not measured: no C compiler

  Obtaining array dimensions for all initial allocations:
  
  -----------------------------------------------------------------------
  Parsing control.in (first pass over file, find array dimensions only).
  The contents of control.in will be repeated verbatim below
  unless switched off by setting 'verbatim_writeout .false.' .
  in the first line of control.in .
  -----------------------------------------------------------------------
  
  #--- method ---
  xc pw-lda
  spin none
  relativistic atomic_zora scalar
  #---
  
  #--- k-grid settings ---
  k_grid 12 12 12
  #---
  
  
  
  
  
  
  
  
  
  
  
  #-------------------------------------------------------------------------------
  #--- Species defaults for Si
  #-------------------------------------------------------------------------------
  
  ################################################################################
  #
  #  FHI-aims code project
  #  VB, Fritz-Haber Institut, 2009
  #
  #  Suggested "light" defaults for Si atom (to be pasted into control.in file)
  #  Be sure to double-check any results obtained with these settings for post-processing,
  #  e.g., with the "tight" defaults and larger basis sets.
  #
  ################################################################################
    species        Si
  #     global species definitions
      nucleus             14
      mass                28.0855
  #
      l_hartree           4
  #
      cut_pot             3.5          1.5  1.0
      basis_dep_cutoff    1e-4
  #
      radial_base         42 5.0
      radial_multiplier   1
      angular_grids       specified
        division   0.5866   50
        division   0.9616  110
        division   1.2249  194
        division   1.3795  302
  #      division   1.4810  434
  #      division   1.5529  590
  #      division   1.6284  770
  #      division   1.7077  974
  #      division   2.4068 1202
  #      outer_grid   974
        outer_grid 302
  ################################################################################
  #
  #  Definition of "minimal" basis
  #
  ################################################################################
  #     valence basis states
      valence      3  s   2.
      valence      3  p   2.
  #     ion occupancy
      ion_occ      3  s   1.
      ion_occ      3  p   1.
  ################################################################################
  #
  #  Suggested additional basis functions. For production calculations,
  #  uncomment them one after another (the most important basis functions are
  #  listed first).
  #
  #  Constructed for dimers: 1.75 A, 2.0 A, 2.25 A, 2.75 A, 3.75 A
  #
  ################################################################################
  #  "First tier" - improvements: -571.96 meV to -37.03 meV
       hydro 3 d 4.2
       hydro 2 p 1.4
  #     hydro 4 f 6.2
       ionic 3 s auto
  #  "Second tier" - improvements: -16.76 meV to -3.03 meV
  #     hydro 3 d 9
  #     hydro 5 g 9.4
  #     hydro 4 p 4
  #     hydro 1 s 0.65
  #  "Third tier" - improvements: -3.89 meV to -0.60 meV
  #     ionic 3 d auto
  #     hydro 3 s 2.6
  #     hydro 4 f 8.4
  #     hydro 3 d 3.4
  #     hydro 3 p 7.8
  #  "Fourth tier" - improvements: -0.33 meV to -0.11 meV
  #     hydro 2 p 1.6
  #     hydro 5 g 10.8
  #     hydro 5 f 11.2
  #     hydro 3 d 1
  #     hydro 4 s 4.5
  #  Further basis functions that fell out of the optimization - noise
  #  level... < -0.08 meV
  #     hydro 4 d 6.6
  #     hydro 5 g 16.4
  #     hydro 4 d 9
  
  -----------------------------------------------------------------------
  Completed first pass over input file control.in .
  -----------------------------------------------------------------------
  
  
  -----------------------------------------------------------------------
  Parsing geometry.in (first pass over file, find array dimensions only).
  The contents of geometry.in will be repeated verbatim below
  unless switched off by setting 'verbatim_writeout .false.' .
  in the first line of geometry.in .
  -----------------------------------------------------------------------
  
  lattice_vector  -2.850000   2.850000   2.850000
  lattice_vector   2.850000  -2.850000   2.850000
  lattice_vector   2.850000   2.850000  -2.850000
  atom_frac   0.000000   0.000000   0.000000 Si
  
  -----------------------------------------------------------------------
  Completed first pass over input file geometry.in .
  -----------------------------------------------------------------------
  

  Basic array size parameters:
  | Number of species                 :        1
  | Number of atoms                   :        1
  | Number of lattice vectors         :        3
  | Max. basis fn. angular momentum   :        2
  | Max. atomic/ionic basis occupied n:        3
  | Max. number of basis fn. types    :        3
  | Max. radial fns per species/type  :        5
  | Max. logarithmic grid size        :     1346
  | Max. radial integration grid size :       42
  | Max. angular integration grid size:      302
  | Max. angular grid division number :        8
  | Radial grid for Hartree potential :     1346
  | Number of spin channels           :        1

------------------------------------------------------------
          Reading file control.in.
------------------------------------------------------------
  XC: Using Perdew-Wang parametrisation of Ceperley-Alder LDA.
  Spin treatment: No spin polarisation.
  Scalar relativistic treatment of kinetic energy: on-site free-atom approximation to ZORA.
  Found k-point grid:        12        12        12

  Reading configuration options for species Si                  .
  | Found nuclear charge :  14.0000
  | Found atomic mass :    28.085500000000000      amu
  | Found l_max for Hartree potential  :   4
  | Found cutoff potl. onset [A], width [A], scale factor :    3.50000    1.50000    1.00000
  | Threshold for basis-dependent cutoff potential is   0.100000E-03
  | Found data for basic radial integration grid :    42 points, outermost radius =    5.000 A
  | Found multiplier for basic radial grid :   1
  | Found angular grid specification: user-specified.
  | Specified grid contains     5 separate shells.
  | Check grid settings after all constraints further below.
  | Found free-atom valence shell :  3 s   2.000
  | Found free-atom valence shell :  3 p   2.000
  | Found free-ion valence shell :  3 s   1.000
  | Found free-ion valence shell :  3 p   1.000
  | Found hydrogenic basis function :  3 d   4.200
  | Found hydrogenic basis function :  2 p   1.400
  | Found ionic basis function :  3 s , default cutoff radius.
  Species Si                  : Missing cutoff potential type.
  Defaulting to exp(1/x)/(1-x)^2 type cutoff potential.
  Species Si: No 'logarithmic' tag. Using default grid for free atom:
  | Default logarithmic grid data [bohr] : 0.1000E-03 0.1000E+03 0.1012E+01
  | Will include ionic basis functions of  2.0-fold positive Si                   ion.
  Species Si: On-site basis accuracy parameter (for Gram-Schmidt orthonormalisation) not specified.
  Using default value basis_acc =  0.1000000E-03.
  Species Si                  : Using default innermost maximum threshold i_radial=  2 for radial functions.
  Species Si                  : Default cutoff onset for free atom density etc. : 0.35000000E+01 AA.
  Species Si                  : Basic radial grid will be enhanced according to radial_multiplier =   1, to contain    42 grid points.

  Finished reading input file 'control.in'. Consistency checks are next.

  MPI_IN_PLACE appears to work with this MPI implementation.
  | Keeping use_mpi_in_place .true. (see manual).
  Target number of points in a grid batch is not set. Defaulting to  100
  Method for grid partitioning is not set. Defaulting to 'maxmin' partitioning.
  Batch size limit is not set. Defaulting to    200
  By default, will store active basis functions for each batch.
  If in need of memory, prune_basis_once .false. can be used to disable this option.
  communication_type for Hartree potential was not specified.
  Defaulting to calc_hartree .
 * Attention: 
 * You may want to set distributed_spline_storage to .true. in order to save memory.
 * This doesn't harm performance and is perfectly ok unless:
 * - you get error messages in postprocessing (about missing atoms in get_rho_multipole_spl)
 * - you need full spline storage in hirshfeld_analysis
  Defaulting to Pulay charge density mixer.
  Pulay mixer: Number of relevant iterations not set.
  Defaulting to    8 iterations.
  Pulay mixer: Number of initial linear mixing iterations not set.
  Defaulting to    0 iterations.
  Work space size for distributed Hartree potential not set.
  Defaulting to   0.200000E+03 MB.
  Mixing parameter for charge density mixing has not been set.
  Using default: charge_mix_param =     0.0500.
  The mixing parameter will be adjusted in iteration number     2 of the first full s.c.f. cycle only.
  Algorithm-dependent basis array size parameters:
  | n_max_pulay                         :        8
 * Notice: The s.c.f. convergence criterion sc_accuracy_rho was not provided.
 * We used to stop in this case, and ask the user to provide reasonable
 * scf convergence criteria. However, this led some users to employ criteria
 * that led to extremely long run times, e.g., for simple relaxation.
 * We now preset a default value for sc_accuracy_rho if it is not set.
 * You may still wish to check if this setting is too tight or too loose for your needs.
 * Based on n_atoms, FHI-aims chose sc_accuracy_rho =  0.100000E-05 .
  Maximum number of self-consistency iterations not provided.
  Presetting  1000 iterations.
  Presetting      1001 iterations before the initial mixing cycle
  is restarted anyway using the sc_init_iter criterion / keyword.
  Presetting a factor      1.000 between actual scf density residual
  and density convergence criterion sc_accuracy_rho below which sc_init_iter
  takes no effect.
 * No s.c.f. convergence criteria (sc_accuracy_*) were provided in control.in.
 * The run will proceed with a reasonable default guess, but please check whether.
 * the s.c.f. cycles seem to take too much or too little time.
  Calculation of forces was not defined in control.in. No forces will be calculated.
  Geometry relaxation not requested: no relaxation will be performed.
  No accuracy limit for integral partition fn. given. Defaulting to  0.1000E-14.
  No threshold value for u(r) in integrations given. Defaulting to  0.1000E-05.
  No occupation type (smearing scheme) given. Defaulting to Gaussian broadening, width =  0.1000E-01 eV.
  The width will be adjusted in iteration number     2 of the first full s.c.f. cycle only.
  S.C.F. convergence parameters will be adjusted in iteration number     2 of the first full s.c.f. cycle only.
  No accuracy for occupation numbers given. Defaulting to  0.1000E-12.
  No threshold value for occupation numbers given. Defaulting to  0.0000E+00.
  No accuracy for fermi level given. Defaulting to  0.1000E-19.
  Maximum # of iterations to find E_F not set. Defaulting to  200.
  Preferred method for the eigenvalue solver ('KS_method') not specified in 'control.in'.
  Defaulting to serial version, 'lapack_fast'.
  Will not use alltoall communication since running on < 1024 CPUs.
  Threshold for basis singularities not set.
  Default threshold for basis singularities:  0.1000E-04
  partition_type (choice of integration weights) for integrals was not specified.
  | Using a version of the partition function of Stratmann and coworkers ('stratmann_smoother').
  | At each grid point, the set of atoms used to build the partition table is smoothly restricted to
  | only those atoms whose free-atom density would be non-zero at that grid point.
  Partitioning for Hartree potential was not defined. Using partition_type for integrals.
  | Adjusted default value of keyword multip_moments_threshold to:       0.10000000E-11
  | This value may affect high angular momentum components of the Hartree potential in periodic systems.
  Angular momentum expansion for Kerker preconditioner not set explicitly.
  | Using default value of   0
  No explicit requirement for turning off preconditioner.
  | By default, it will be turned off when the charge convergence reaches
  | sc_accuracy_rho  =   0.100000E-05
  No special mixing parameter while Kerker preconditioner is on.
  Using default: charge_mix_param =     0.0500.
  No q(lm)/r^(l+1) cutoff set for long-range Hartree potential.
  | Using default value of  0.100000E-09 .
  | Verify using the multipole_threshold keyword.
  Defaulting to new monopole extrapolation.
  Density update method: automatic selection selected.
  Using density matrix based charge density update.
  Using density matrix based charge density update.
  Using packed matrix style: index .
  Defaulting to use time-reversal symmetry for k-point grid.
------------------------------------------------------------


------------------------------------------------------------
          Reading geometry description geometry.in.
------------------------------------------------------------
  Input structure read successfully.
  The structure contains        1 atoms,  and a total of         14.000 electrons.

  Input geometry:
  | Unit cell:
  |       -2.85000000        2.85000000        2.85000000
  |        2.85000000       -2.85000000        2.85000000
  |        2.85000000        2.85000000       -2.85000000
  | Atomic structure:
  |       Atom                x [A]            y [A]            z [A]
  |    1: Species Si            0.00000000        0.00000000        0.00000000

  Lattice parameters for 3D lattice (in Angstroms) :     4.936345    4.936345    4.936345
  Angle(s) between unit vectors (in degrees)      :   109.471221  109.471221  109.471221

  |

  | The smallest distance between any two atoms is         4.93634480 AA.
  |
  | The first atom of this pair is atom number                      1 .
  | The second atom of this pair is atom number                     1 .
  | Wigner-Seitz cell of the first atom image           0     0     1 .
  | (The Wigner-Seitz cell of the second atom is 0 0 0  by definition.)

  Quantities derived from the lattice vectors:
  | Reciprocal lattice vector 1: -0.000000  1.102313  1.102313
  | Reciprocal lattice vector 2:  1.102313  0.000000  1.102313
  | Reciprocal lattice vector 3:  1.102313  1.102313  0.000000
  | Unit cell volume                               :   0.925965E+02  A^3

  Range separation radius for Ewald summation (hartree_convergence_parameter):      5.00000000 bohr.

  Fractional coordinates:
                         L1                L2                L3
       atom_frac         0.00000000        0.00000000        0.00000000  Si

  Number of empty states per atom not set in control.in - providing a guess from actual geometry.
  | Total number of empty states used during s.c.f. cycle:        3
  If you use a very high smearing, use empty_states (per atom!) in control.in to increase this value.

  Structure-dependent array size parameters: 
  | Maximum number of distinct radial functions  :        8
  | Maximum number of basis functions            :       18
  | Number of Kohn-Sham states (occupied + empty):       10
------------------------------------------------------------

------------------------------------------------------------
          Preparing all fixed parts of the calculation.
------------------------------------------------------------
  Determining machine precision:
     2.2250738585072014E-308
  Setting up grids for atomic and cluster calculations.

  Creating wave function, potential, and density for free atoms.

  Species: Si

  List of occupied orbitals and eigenvalues:
    n    l              occ      energy [Ha]    energy [eV]
    1    0           2.0000       -65.491668     -1782.1190
    2    0           2.0000        -5.087967      -138.4506
    3    0           2.0000        -0.391471       -10.6525
    2    1           6.0000        -3.502246       -95.3010
    3    1           2.0000        -0.143943        -3.9169

  Creating fixed part of basis set: Ionic, confined, hydrogenic.

  Si                   ion:

  List of free ionic orbitals and eigenvalues:
    n    l      energy [Ha]    energy [eV]
    1    0       -66.364436     -1805.8682
    2    0        -5.935799      -161.5213
    3    0        -1.078166       -29.3384
    2    1        -4.351123      -118.4001
    3    1        -0.781733       -21.2720


  List of ionic basis orbitals and eigenvalues:
    n    l      energy [Ha]    energy [eV]    outer radius [A]
    3    0        -1.078146       -29.3378       4.214062


  Si                   hydrogenic:

  List of hydrogenic basis orbitals: 
    n    l      effective z      eigenvalue [eV]  inner max. [A]     outer max. [A]     outer radius [A]   
    3    2         4.200000       -26.6624           1.139231           1.139231           4.534782
    2    1         1.400000        -6.4613           1.472672           1.472672           4.590560


  Adding cutoff potential to free-atom effective potential.
  Creating atomic-like basis functions for current effective potential.

  Species Si                  :

  List of atomic basis orbitals and eigenvalues:
    n    l      energy [Ha]    energy [eV]    outer radius [A]
    1    0       -65.491668     -1782.1190       0.789468
    2    0        -5.087967      -138.4506       2.815114
    3    0        -0.391471       -10.6525       4.534782
    2    1        -3.502246       -95.3010       3.259919
    3    1        -0.143943        -3.9169       4.590560

  Assembling full basis from fixed parts.
  | Species Si :   atomic orbital   1 s accepted.
  | Species Si :   atomic orbital   2 s accepted.
  | Species Si :    ionic orbital   3 s accepted.
  | Species Si :   atomic orbital   3 s accepted.
  | Species Si :   atomic orbital   2 p accepted.
  | Species Si :   atomic orbital   3 p accepted.
  | Species Si :    hydro orbital   2 p accepted.
  | Species Si :    hydro orbital   3 d accepted.

  Basis size parameters after reduction:
  | Total number of radial functions:        8
  | Total number of basis functions :       18

  Per-task memory consumption for arrays in subroutine allocate_ext:
  |           2.757468MB.
  Testing on-site integration grid accuracy.
  |  Species  Function  <phi|h_atom|phi> (log., in eV)  <phi|h_atom|phi> (rad., in eV)
           1        1              -1782.1189727076              -1782.1182429251
           1        2               -138.4506350693               -138.4506310079
           1        3                -10.3030408815                -10.3029120678
           1        4                  5.0238999146                  4.9457540310 ***
           1        5                -95.3009689499                -95.3009689315
           1        6                 -3.9266496564                 -3.9420918374
           1        7                  6.3453628447                  6.1632372158 ***
           1        8                  6.2883050744                  6.2861881409
 * Note: Onsite integrals marked "***" above are less accurate than
 * onsite_accuracy_threshold =    0.03000 eV. Usually, this is harmless.
 * When in doubt, tighten the "radial" and/or "radial_multiplier" flags to check.

  Preparing densities etc. for the partition functions (integrals / Hartree potential).

  Preparations completed.
  max(cpu_time)          :      0.099 s.
  Wall clock time (cpu1) :      0.098 s.
------------------------------------------------------------

------------------------------------------------------------
          Begin self-consistency loop: Initialization.

          Date     :  20190514, Time     :  123651.566
------------------------------------------------------------

  Initializing index lists of integration centers etc. from given atomic structure:
  Mapping all atomic coordinates to central unit cell.

  Initializing the k-points
          Using symmetry for reducing the k-points
  | k-points reduced from:     1728 to      868
  | Number of k-points                             :       868
  The eigenvectors in the calculations are COMPLEX.
  | K-points in task   0:       868
  | Number of basis functions in the Hamiltonian integrals :       406
  | Number of basis functions in a single unit cell        :        18
  | Number of centers in hartree potential         :       229
  | Number of centers in hartree multipole         :        59
  | Number of centers in electron density summation:        51
  | Number of centers in basis integrals           :        51
  | Number of centers in integrals                 :        27
  | Number of centers in hamiltonian               :        51
  | Consuming        705 KiB for k_phase.
  | Number of super-cells (origin) [n_cells]                     :        1331
  | Number of super-cells (after PM_index) [n_cells]             :          52
  | Number of super-cells in hamiltonian [n_cells_in_hamiltonian]:          52
  | Size of matrix packed + index [n_hamiltonian_matrix_size] :        4974
  Partitioning the integration grid into batches with maxmin method.
  | Maximal weight for a single point:     1.000
  | Minimal weight for a single point:     0.202
  | Number of batches:       62
  | Maximal batch size:     176
  | Minimal batch size:      85
  | Average batch size:      90.387
  | Standard deviation of batch sizes:      15.611
  Initializing partition tables, free-atom densities, potentials, etc. across the integration grid (initialize_grid_storage).
  | initialize_grid_storage: Actual outermost partition radius vs. multipole_radius_free
  | (-- VB: in principle, multipole_radius_free should be larger, hence this output)
  | Species        1: Confinement radius =              4.999999999999999 AA, multipole_radius_free =              5.000694715736543 AA.
  | Species        1: outer_partition_radius set to              5.000694715736543 AA .
  | Original list of interatomic distances with          51 x         51 entries is created.
  | Net number of integration points:     5604
  | of which are non-zero points    :     5518
  | Numerical average free-atom electrostatic potential    :     -2.84069831 eV
  Renormalizing the initial density to the exact electron count on the 3D integration grid.
  | Initial density: Formal number of electrons (from input files) :      14.0000000000
  | Integrated number of electrons on 3D grid     :      13.9991629166
  | Charge integration error                      :      -0.0008370834
  | Normalization factor for density and gradient :       1.0000597952
  Obtaining max. number of non-zero basis functions in each batch (get_n_compute_maxes).
  | Maximal number of non-zero basis functions:      145 in task     0
  Allocating        2.500 MB for KS_eigenvector_complex
  Integrating Hamiltonian matrix: batch-based integration.
  Time summed over all CPUs for integration: real work        0.025 s, elapsed        0.025 s
  Integrating overlap matrix.
  Time summed over all CPUs for integration: real work        0.016 s, elapsed        0.016 s
  Decreasing sparse matrix size:
   Tolerance:   9.9999998245167004E-014
   Hamiltonian matrix
  | Array has     2223 nonzero elements out of     4974 elements
  | Sparsity factor is 0.553
   Overlap matrix
  | Array has     2215 nonzero elements out of     4974 elements
  | Sparsity factor is 0.555
  New size of hamiltonian matrix:        2362

  Updating Kohn-Sham eigenvalues, eigenvectors, occupation numbers, and Fermi level.
  Solving generalized eigenproblem
  Transforming overlap matrix and checking for singularities.
  Overlap matrix is nonsingular at first k-point:
  | Lowest eigenvalue:  0.362412E+00

  Obtaining occupation numbers and chemical potential using ELSI.
  | Chemical potential (Fermi level):    -4.19234431eV
  Writing Kohn-Sham eigenvalues.
  K-point:       1 at    0.000000    0.000000    0.000000 (in units of recip. lattice)

  State    Occupation    Eigenvalue [Ha]    Eigenvalue [eV]
      1       2.00000         -65.491772        -1782.12180
      2       2.00000          -5.088000         -138.45152
      3       2.00000          -3.502279          -95.30187
      4       2.00000          -3.502279          -95.30187
      5       2.00000          -3.502279          -95.30187
      6       2.00000          -0.402736          -10.95901
      7       0.00000          -0.120455           -3.27774
      8       0.00000          -0.120455           -3.27774
      9       0.00000          -0.120455           -3.27774
     10       0.00000           0.052791            1.43652

  What follows are estimated values for band gap, HOMO, LUMO, etc.
  | They are estimated on a discrete k-point grid and not necessarily exact.
  | For converged numbers, create a DOS and/or band structure plot on a denser k-grid.

  Highest occupied state (VBM) at     -4.20846506 eV (relative to internal zero)
  | Occupation number:      1.97738157
  | K-point:     575 at    0.416667    0.583333    0.583333 (in units of recip. lattice)

  Lowest unoccupied state (CBM) at    -4.18792107 eV (relative to internal zero)
  | Occupation number:      0.53161631
  | K-point:     312 at    0.250000    0.166667    0.333333 (in units of recip. lattice)

  ESTIMATED overall HOMO-LUMO gap:      0.02054399 eV between HOMO at k-point 575 and LUMO at k-point 312
  | This appears to be an indirect band gap.
  | Smallest direct gap :      0.17789385 eV for k_point 583 at    0.250000    0.166667    0.333333 (in units of recip. lattice)
  However, this system has fractional occupation numbers. Since we use a finite k-point grid,
  this material is metallic within the approximate finite broadening function (occupation_type)
  applied to determine the occupation numbers.
  Calculating total energy contributions from superposition of free atom densities.

  Total energy components:
  | Sum of eigenvalues            :        -163.29234990 Ha       -4443.41091897 eV
  | XC energy correction          :         -19.62522035 Ha        -534.02941672 eV
  | XC potential correction       :          25.93034214 Ha         705.60051026 eV
  | Free-atom electrostatic energy:        -132.20698521 Ha       -3597.53510820 eV
  | Hartree energy correction     :          -0.00000000 Ha          -0.00000000 eV
  | Entropy correction            :          -0.00000275 Ha          -0.00007490 eV
  | ---------------------------
  | Total energy                  :        -289.19421331 Ha       -7869.37493362 eV
  | Total energy, T -> 0          :        -289.19421606 Ha       -7869.37500852 eV  <-- do not rely on this value for anything but (periodic) metals
  | Electronic free energy        :        -289.19421882 Ha       -7869.37508342 eV

  Derived energy quantities:
  | Kinetic energy                :         289.57262320 Ha        7879.67199049 eV
  | Electrostatic energy          :        -559.14161616 Ha      -15215.01750739 eV
  | Energy correction for multipole
  | error in Hartree potential    :           0.00000000 Ha           0.00000000 eV
  | Sum of eigenvalues per atom                           :       -4443.41091897 eV
  | Total energy (T->0) per atom                          :       -7869.37500852 eV  <-- do not rely on this value for anything but (periodic) metals
  | Electronic free energy per atom                       :       -7869.37508342 eV
  Initialize hartree_potential_storage
  Max. number of atoms included in rho_multipole:            1

  End scf initialization - timings             :  max(cpu_time)    wall_clock(cpu1)
  | Time for scf. initialization               :        0.308 s           0.308 s
  | Boundary condition initialization          :        0.039 s           0.039 s
  | Integration                                :        0.041 s           0.041 s
  | Solution of K.-S. eqns.                    :        0.201 s           0.202 s
  | Grid partitioning                          :        0.007 s           0.007 s
  | Preloading free-atom quantities on grid    :        0.001 s           0.001 s
  | Free-atom superposition energy             :        0.006 s           0.006 s
  | Total energy evaluation                    :        0.000 s           0.000 s

  Partial memory accounting:
  | Current value for overall tracked memory usage on task 0  :           2.547 MB
  | Peak value for overall tracked memory usage on task 0     :           3.380 MB after allocating wave
  | Largest tracked array allocation on task 0 so far         :           2.500 MB  when allocating +KS_eigenvector_complex
  Note:  These values currently only include a subset of arrays which are explicitly tracked.
  The "true" memory usage will be greater.
------------------------------------------------------------

------------------------------------------------------------
          Begin self-consistency iteration #    1

  Date     :  20190514, Time     :  123651.874
------------------------------------------------------------
  Evaluating new KS density using the density matrix
  Evaluating density matrix
  Time summed over all CPUs for getting density from density matrix: real work        0.037 s, elapsed        0.037 s
  Integration grid: deviation in total charge (<rho> - N_e) =  -3.428369E-13
  Pulay mixing of updated and previous charge densities.

  Evaluating partitioned Hartree potential by multipole expansion.
  | Analytical far-field extrapolation by fixed multipoles:
  | Hartree multipole sum: apparent total charge =  -0.102600E-02
  Summing up the Hartree potential.
  | Estimated reciprocal-space cutoff momentum G_max:         1.84432723 bohr^-1 .
  | Reciprocal lattice points for long-range Hartree potential:      54
  Time summed over all CPUs for potential: real work        0.053 s, elapsed        0.053 s
  | RMS charge density error from multipole expansion :   0.310995E-04
  | Average real-space part of the electrostatic potential :     -0.00733966 eV

  Integrating Hamiltonian matrix: batch-based integration.
  Time summed over all CPUs for integration: real work        0.025 s, elapsed        0.025 s

  Updating Kohn-Sham eigenvalues, eigenvectors, occupation numbers, and Fermi level.
  Solving generalized eigenproblem

  Obtaining occupation numbers and chemical potential using ELSI.
  | Chemical potential (Fermi level):    -4.20543743eV
  Writing Kohn-Sham eigenvalues.
  K-point:       1 at    0.000000    0.000000    0.000000 (in units of recip. lattice)

  State    Occupation    Eigenvalue [Ha]    Eigenvalue [eV]
      1       2.00000         -65.492348        -1782.13748
      2       2.00000          -5.089056         -138.48027
      3       2.00000          -3.503330          -95.33046
      4       2.00000          -3.503330          -95.33046
      5       2.00000          -3.503330          -95.33046
      6       2.00000          -0.403351          -10.97573
      7       0.00000          -0.121000           -3.29257
      8       0.00000          -0.121000           -3.29257
      9       0.00000          -0.121000           -3.29257
     10       0.00000           0.052301            1.42319

  What follows are estimated values for band gap, HOMO, LUMO, etc.
  | They are estimated on a discrete k-point grid and not necessarily exact.
  | For converged numbers, create a DOS and/or band structure plot on a denser k-grid.

  Highest occupied state (VBM) at     -4.22176964 eV (relative to internal zero)
  | Occupation number:      1.97909654
  | K-point:     557 at    0.416667    0.416667    0.583333 (in units of recip. lattice)

  Lowest unoccupied state (CBM) at    -4.20089600 eV (relative to internal zero)
  | Occupation number:      0.52070734
  | K-point:     311 at    0.250000    0.166667    0.250000 (in units of recip. lattice)

  ESTIMATED overall HOMO-LUMO gap:      0.02087364 eV between HOMO at k-point 557 and LUMO at k-point 311
  | This appears to be an indirect band gap.
  | Smallest direct gap :      0.17760195 eV for k_point 467 at    0.250000    0.166667    0.250000 (in units of recip. lattice)
  However, this system has fractional occupation numbers. Since we use a finite k-point grid,
  this material is metallic within the approximate finite broadening function (occupation_type)
  applied to determine the occupation numbers.

  Total energy components:
  | Sum of eigenvalues            :        -163.30412933 Ha       -4443.73145376 eV
  | XC energy correction          :         -19.62309869 Ha        -533.97168345 eV
  | XC potential correction       :          25.92754969 Ha         705.52452371 eV
  | Free-atom electrostatic energy:        -132.20698521 Ha       -3597.53510820 eV
  | Hartree energy correction     :           0.01252474 Ha           0.34081542 eV
  | Entropy correction            :          -0.00000277 Ha          -0.00007538 eV
  | ---------------------------
  | Total energy                  :        -289.19413881 Ha       -7869.37290627 eV
  | Total energy, T -> 0          :        -289.19414158 Ha       -7869.37298165 eV  <-- do not rely on this value for anything but (periodic) metals
  | Electronic free energy        :        -289.19414435 Ha       -7869.37305703 eV

  Derived energy quantities:
  | Kinetic energy                :         289.58321473 Ha        7879.96020068 eV
  | Electrostatic energy          :        -559.15425485 Ha      -15215.36142350 eV
  | Energy correction for multipole
  | error in Hartree potential    :          -0.00000002 Ha          -0.00000056 eV
  | Sum of eigenvalues per atom                           :       -4443.73145376 eV
  | Total energy (T->0) per atom                          :       -7869.37298165 eV  <-- do not rely on this value for anything but (periodic) metals
  | Electronic free energy per atom                       :       -7869.37305703 eV

  Self-consistency convergence accuracy:
  | Change of charge density      :  0.2755E-01
  | Change of sum of eigenvalues  : -0.3205E+00 eV
  | Change of total energy        :  0.2027E-02 eV

  End self-consistency iteration #     1       :  max(cpu_time)    wall_clock(cpu1)
  | Time for this iteration                    :        0.215 s           0.215 s
  | Charge density update                      :        0.042 s           0.042 s
  | Density mixing & preconditioning           :        0.009 s           0.009 s
  | Hartree multipole update                   :        0.000 s           0.000 s
  | Hartree multipole summation                :        0.055 s           0.055 s
  | Integration                                :        0.025 s           0.025 s
  | Solution of K.-S. eqns.                    :        0.083 s           0.083 s
  | Total energy evaluation                    :        0.000 s           0.000 s

  Partial memory accounting:
  | Current value for overall tracked memory usage on task 0  :           2.547 MB
  | Peak value for overall tracked memory usage on task 0     :           3.380 MB after allocating wave
  | Largest tracked array allocation on task 0 so far         :           2.500 MB  when allocating +KS_eigenvector_complex
  Note:  These values currently only include a subset of arrays which are explicitly tracked.
  The "true" memory usage will be greater.
------------------------------------------------------------

------------------------------------------------------------
          Begin self-consistency iteration #    2

  Date     :  20190514, Time     :  123652.089
------------------------------------------------------------
  Evaluating new KS density using the density matrix
  Evaluating density matrix
  Time summed over all CPUs for getting density from density matrix: real work        0.037 s, elapsed        0.037 s
  Integration grid: deviation in total charge (<rho> - N_e) =  -3.357314E-13
  Pulay mixing of updated and previous charge densities.

  Evaluating partitioned Hartree potential by multipole expansion.
  | Analytical far-field extrapolation by fixed multipoles:
  | Hartree multipole sum: apparent total charge =  -0.501991E-02
  Summing up the Hartree potential.
  Time summed over all CPUs for potential: real work        0.072 s, elapsed        0.072 s
  | RMS charge density error from multipole expansion :   0.680390E-03
  | Average real-space part of the electrostatic potential :     -0.21761602 eV

  Integrating Hamiltonian matrix: batch-based integration.
  Time summed over all CPUs for integration: real work        0.025 s, elapsed        0.025 s

  Updating Kohn-Sham eigenvalues, eigenvectors, occupation numbers, and Fermi level.
  Solving generalized eigenproblem

  Obtaining occupation numbers and chemical potential using ELSI.
  | Chemical potential (Fermi level):    -4.53458346eV
  What follows are estimated values for band gap, HOMO, LUMO, etc.
  | They are estimated on a discrete k-point grid and not necessarily exact.
  | For converged numbers, create a DOS and/or band structure plot on a denser k-grid.

  Highest occupied state (VBM) at     -4.55057242 eV (relative to internal zero)
  | Occupation number:      1.97625192
  | K-point:     320 at    0.250000    0.250000    0.250000 (in units of recip. lattice)

  Lowest unoccupied state (CBM) at    -4.52671200 eV (relative to internal zero)
  | Occupation number:      0.26562557
  | K-point:     484 at    0.333333    0.750000    0.500000 (in units of recip. lattice)

  ESTIMATED overall HOMO-LUMO gap:      0.02386042 eV between HOMO at k-point 320 and LUMO at k-point 484
  | This appears to be an indirect band gap.
  | Smallest direct gap :      0.16718826 eV for k_point 702 at    0.333333    0.750000    0.500000 (in units of recip. lattice)
  However, this system has fractional occupation numbers. Since we use a finite k-point grid,
  this material is metallic within the approximate finite broadening function (occupation_type)
  applied to determine the occupation numbers.

  Checking to see if s.c.f. parameters should be adjusted.
  Adjusted the Pulay mixing parameter (charge_mix_param) for an expected low-gap system. New value:   0.020000 .
  Adjusted the occupation broadening width for an expected low-gap system. New value:      0.05000000 eV.

  Total energy components:
  | Sum of eigenvalues            :        -163.79876322 Ha       -4457.19112665 eV
  | XC energy correction          :         -19.57987574 Ha        -532.79552712 eV
  | XC potential correction       :          25.87065412 Ha         703.97631665 eV
  | Free-atom electrostatic energy:        -132.20698521 Ha       -3597.53510820 eV
  | Hartree energy correction     :           0.52211201 Ha          14.20739070 eV
  | Entropy correction            :          -0.00007365 Ha          -0.00200413 eV
  | ---------------------------
  | Total energy                  :        -289.19285803 Ha       -7869.33805462 eV
  | Total energy, T -> 0          :        -289.19293168 Ha       -7869.34005874 eV  <-- do not rely on this value for anything but (periodic) metals
  | Electronic free energy        :        -289.19300533 Ha       -7869.34206287 eV

  Derived energy quantities:
  | Kinetic energy                :         289.27416536 Ha        7871.55053965 eV
  | Electrostatic energy          :        -558.88714766 Ha      -15208.09306715 eV
  | Energy correction for multipole
  | error in Hartree potential    :           0.00000687 Ha           0.00018685 eV
  | Sum of eigenvalues per atom                           :       -4457.19112665 eV
  | Total energy (T->0) per atom                          :       -7869.34005874 eV  <-- do not rely on this value for anything but (periodic) metals
  | Electronic free energy per atom                       :       -7869.34206287 eV

  Self-consistency convergence accuracy:
  | Change of charge density      :  0.2635E-01
  | Change of sum of eigenvalues  : -0.1346E+02 eV
  | Change of total energy        :  0.3485E-01 eV

  End self-consistency iteration #     2       :  max(cpu_time)    wall_clock(cpu1)
  | Time for this iteration                    :        0.233 s           0.233 s
  | Charge density update                      :        0.042 s           0.042 s
  | Density mixing & preconditioning           :        0.008 s           0.008 s
  | Hartree multipole update                   :        0.000 s           0.001 s
  | Hartree multipole summation                :        0.073 s           0.073 s
  | Integration                                :        0.025 s           0.025 s
  | Solution of K.-S. eqns.                    :        0.084 s           0.084 s
  | Total energy evaluation                    :        0.000 s           0.000 s

  Partial memory accounting:
  | Current value for overall tracked memory usage on task 0  :           2.548 MB
  | Peak value for overall tracked memory usage on task 0     :           3.380 MB after allocating wave
  | Largest tracked array allocation on task 0 so far         :           2.500 MB  when allocating +KS_eigenvector_complex
  Note:  These values currently only include a subset of arrays which are explicitly tracked.
  The "true" memory usage will be greater.
------------------------------------------------------------

------------------------------------------------------------
          Begin self-consistency iteration #    3

  Date     :  20190514, Time     :  123652.322
------------------------------------------------------------
  Evaluating new KS density using the density matrix
  Evaluating density matrix
  Time summed over all CPUs for getting density from density matrix: real work        0.037 s, elapsed        0.037 s
  Integration grid: deviation in total charge (<rho> - N_e) =  -4.067857E-13
  Pulay mixing of updated and previous charge densities.

  Evaluating partitioned Hartree potential by multipole expansion.
  | Analytical far-field extrapolation by fixed multipoles:
  | Hartree multipole sum: apparent total charge =  -0.616891E-02
  Summing up the Hartree potential.
  Time summed over all CPUs for potential: real work        0.074 s, elapsed        0.074 s
  | RMS charge density error from multipole expansion :   0.875285E-03
  | Average real-space part of the electrostatic potential :     -0.27800616 eV

  Integrating Hamiltonian matrix: batch-based integration.
  Time summed over all CPUs for integration: real work        0.026 s, elapsed        0.026 s

  Updating Kohn-Sham eigenvalues, eigenvectors, occupation numbers, and Fermi level.
  Solving generalized eigenproblem

  Obtaining occupation numbers and chemical potential using ELSI.
  | Chemical potential (Fermi level):    -4.64042650eV
  What follows are estimated values for band gap, HOMO, LUMO, etc.
  | They are estimated on a discrete k-point grid and not necessarily exact.
  | For converged numbers, create a DOS and/or band structure plot on a denser k-grid.

  Highest occupied state (VBM) at     -4.64517107 eV (relative to internal zero)
  | Occupation number:      1.10675302
  | K-point:     320 at    0.250000    0.250000    0.250000 (in units of recip. lattice)

  Lowest unoccupied state (CBM) at    -4.62525201 eV (relative to internal zero)
  | Occupation number:      0.66777802
  | K-point:     484 at    0.333333    0.750000    0.500000 (in units of recip. lattice)

  ESTIMATED overall HOMO-LUMO gap:      0.01991907 eV between HOMO at k-point 320 and LUMO at k-point 484
  | This appears to be an indirect band gap.
  | Smallest direct gap :      0.16390692 eV for k_point 654 at    0.333333    0.750000    0.500000 (in units of recip. lattice)
  However, this system has fractional occupation numbers. Since we use a finite k-point grid,
  this material is metallic within the approximate finite broadening function (occupation_type)
  applied to determine the occupation numbers.

  Total energy components:
  | Sum of eigenvalues            :        -163.95015436 Ha       -4461.31068901 eV
  | XC energy correction          :         -19.56689741 Ha        -532.44236896 eV
  | XC potential correction       :          25.85355879 Ha         703.51112895 eV
  | Free-atom electrostatic energy:        -132.20698521 Ha       -3597.53510820 eV
  | Hartree energy correction     :           0.67752753 Ha          18.43646204 eV
  | Entropy correction            :          -0.00007395 Ha          -0.00201231 eV
  | ---------------------------
  | Total energy                  :        -289.19295066 Ha       -7869.34057519 eV
  | Total energy, T -> 0          :        -289.19302461 Ha       -7869.34258750 eV  <-- do not rely on this value for anything but (periodic) metals
  | Electronic free energy        :        -289.19309857 Ha       -7869.34459981 eV

  Derived energy quantities:
  | Kinetic energy                :         289.16988073 Ha        7868.71281036 eV
  | Electrostatic energy          :        -558.79593398 Ha      -15205.61101659 eV
  | Energy correction for multipole
  | error in Hartree potential    :           0.00000869 Ha           0.00023643 eV
  | Sum of eigenvalues per atom                           :       -4461.31068901 eV
  | Total energy (T->0) per atom                          :       -7869.34258750 eV  <-- do not rely on this value for anything but (periodic) metals
  | Electronic free energy per atom                       :       -7869.34459981 eV

  Self-consistency convergence accuracy:
  | Change of charge density      :  0.9151E-02
  | Change of sum of eigenvalues  : -0.4120E+01 eV
  | Change of total energy        : -0.2521E-02 eV

  End self-consistency iteration #     3       :  max(cpu_time)    wall_clock(cpu1)
  | Time for this iteration                    :        0.238 s           0.239 s
  | Charge density update                      :        0.042 s           0.042 s
  | Density mixing & preconditioning           :        0.008 s           0.008 s
  | Hartree multipole update                   :        0.000 s           0.000 s
  | Hartree multipole summation                :        0.076 s           0.076 s
  | Integration                                :        0.025 s           0.026 s
  | Solution of K.-S. eqns.                    :        0.087 s           0.086 s
  | Total energy evaluation                    :        0.000 s           0.001 s

  Partial memory accounting:
  | Current value for overall tracked memory usage on task 0  :           2.549 MB
  | Peak value for overall tracked memory usage on task 0     :           3.380 MB after allocating wave
  | Largest tracked array allocation on task 0 so far         :           2.500 MB  when allocating +KS_eigenvector_complex
  Note:  These values currently only include a subset of arrays which are explicitly tracked.
  The "true" memory usage will be greater.
------------------------------------------------------------

------------------------------------------------------------
          Begin self-consistency iteration #    4

  Date     :  20190514, Time     :  123652.561
------------------------------------------------------------
  Evaluating new KS density using the density matrix
  Evaluating density matrix
  Time summed over all CPUs for getting density from density matrix: real work        0.037 s, elapsed        0.037 s
  Integration grid: deviation in total charge (<rho> - N_e) =  -2.113865E-13
  Pulay mixing of updated and previous charge densities.

  Evaluating partitioned Hartree potential by multipole expansion.
  | Analytical far-field extrapolation by fixed multipoles:
  | Hartree multipole sum: apparent total charge =  -0.617392E-02
  Summing up the Hartree potential.
  Time summed over all CPUs for potential: real work        0.077 s, elapsed        0.077 s
  | RMS charge density error from multipole expansion :   0.840096E-03
  | Average real-space part of the electrostatic potential :     -0.28466712 eV

  Integrating Hamiltonian matrix: batch-based integration.
  Time summed over all CPUs for integration: real work        0.025 s, elapsed        0.025 s

  Updating Kohn-Sham eigenvalues, eigenvectors, occupation numbers, and Fermi level.
  Solving generalized eigenproblem

  Obtaining occupation numbers and chemical potential using ELSI.
  | Chemical potential (Fermi level):    -4.61890517eV
  What follows are estimated values for band gap, HOMO, LUMO, etc.
  | They are estimated on a discrete k-point grid and not necessarily exact.
  | For converged numbers, create a DOS and/or band structure plot on a denser k-grid.

  Highest occupied state (VBM) at     -4.62516417 eV (relative to internal zero)
  | Occupation number:      1.14051617
  | K-point:     320 at    0.250000    0.250000    0.250000 (in units of recip. lattice)

  Lowest unoccupied state (CBM) at    -4.60254727 eV (relative to internal zero)
  | Occupation number:      0.64360003
  | K-point:     358 at    0.250000    0.583333    0.500000 (in units of recip. lattice)

  ESTIMATED overall HOMO-LUMO gap:      0.02261690 eV between HOMO at k-point 320 and LUMO at k-point 358
  | This appears to be an indirect band gap.
  | Smallest direct gap :      0.16531723 eV for k_point 583 at    0.250000    0.583333    0.500000 (in units of recip. lattice)
  However, this system has fractional occupation numbers. Since we use a finite k-point grid,
  this material is metallic within the approximate finite broadening function (occupation_type)
  applied to determine the occupation numbers.

  Total energy components:
  | Sum of eigenvalues            :        -163.85828776 Ha       -4458.81087181 eV
  | XC energy correction          :         -19.57565706 Ha        -532.68073100 eV
  | XC potential correction       :          25.86518452 Ha         703.82748108 eV
  | Free-atom electrostatic energy:        -132.20698521 Ha       -3597.53510820 eV
  | Hartree energy correction     :           0.58289032 Ha          15.86125259 eV
  | Entropy correction            :          -0.00007330 Ha          -0.00199452 eV
  | ---------------------------
  | Total energy                  :        -289.19285519 Ha       -7869.33797734 eV
  | Total energy, T -> 0          :        -289.19292849 Ha       -7869.33997186 eV  <-- do not rely on this value for anything but (periodic) metals
  | Electronic free energy        :        -289.19300179 Ha       -7869.34196638 eV

  Derived energy quantities:
  | Kinetic energy                :         289.32720691 Ha        7872.99387366 eV
  | Electrostatic energy          :        -558.94440505 Ha      -15209.65111999 eV
  | Energy correction for multipole
  | error in Hartree potential    :           0.00003354 Ha           0.00091265 eV
  | Sum of eigenvalues per atom                           :       -4458.81087181 eV
  | Total energy (T->0) per atom                          :       -7869.33997186 eV  <-- do not rely on this value for anything but (periodic) metals
  | Electronic free energy per atom                       :       -7869.34196638 eV

  Self-consistency convergence accuracy:
  | Change of charge density      :  0.1734E-01
  | Change of sum of eigenvalues  :  0.2500E+01 eV
  | Change of total energy        :  0.2598E-02 eV

  End self-consistency iteration #     4       :  max(cpu_time)    wall_clock(cpu1)
  | Time for this iteration                    :        0.241 s           0.240 s
  | Charge density update                      :        0.042 s           0.042 s
  | Density mixing & preconditioning           :        0.008 s           0.008 s
  | Hartree multipole update                   :        0.000 s           0.000 s
  | Hartree multipole summation                :        0.079 s           0.079 s
  | Integration                                :        0.025 s           0.025 s
  | Solution of K.-S. eqns.                    :        0.086 s           0.086 s
  | Total energy evaluation                    :        0.000 s           0.000 s

  Partial memory accounting:
  | Current value for overall tracked memory usage on task 0  :           2.549 MB
  | Peak value for overall tracked memory usage on task 0     :           3.380 MB after allocating wave
  | Largest tracked array allocation on task 0 so far         :           2.500 MB  when allocating +KS_eigenvector_complex
  Note:  These values currently only include a subset of arrays which are explicitly tracked.
  The "true" memory usage will be greater.
------------------------------------------------------------

------------------------------------------------------------
          Begin self-consistency iteration #    5

  Date     :  20190514, Time     :  123652.801
------------------------------------------------------------
  Evaluating new KS density using the density matrix
  Evaluating density matrix
  Time summed over all CPUs for getting density from density matrix: real work        0.037 s, elapsed        0.037 s
  Integration grid: deviation in total charge (<rho> - N_e) =  -3.144152E-13
  Pulay mixing of updated and previous charge densities.

  Evaluating partitioned Hartree potential by multipole expansion.
  | Analytical far-field extrapolation by fixed multipoles:
  | Hartree multipole sum: apparent total charge =  -0.577004E-02
  Summing up the Hartree potential.
  Time summed over all CPUs for potential: real work        0.078 s, elapsed        0.078 s
  | RMS charge density error from multipole expansion :   0.791600E-03
  | Average real-space part of the electrostatic potential :     -0.26832523 eV

  Integrating Hamiltonian matrix: batch-based integration.
  Time summed over all CPUs for integration: real work        0.026 s, elapsed        0.026 s

  Updating Kohn-Sham eigenvalues, eigenvectors, occupation numbers, and Fermi level.
  Solving generalized eigenproblem

  Obtaining occupation numbers and chemical potential using ELSI.
  | Chemical potential (Fermi level):    -4.59440119eV
  What follows are estimated values for band gap, HOMO, LUMO, etc.
  | They are estimated on a discrete k-point grid and not necessarily exact.
  | For converged numbers, create a DOS and/or band structure plot on a denser k-grid.

  Highest occupied state (VBM) at     -4.60121909 eV (relative to internal zero)
  | Occupation number:      1.15291520
  | K-point:     320 at    0.250000    0.250000    0.250000 (in units of recip. lattice)

  Lowest unoccupied state (CBM) at    -4.57768789 eV (relative to internal zero)
  | Occupation number:      0.63641044
  | K-point:     358 at    0.250000    0.583333    0.500000 (in units of recip. lattice)

  ESTIMATED overall HOMO-LUMO gap:      0.02353120 eV between HOMO at k-point 320 and LUMO at k-point 358
  | This appears to be an indirect band gap.
  | Smallest direct gap :      0.16611842 eV for k_point 675 at    0.250000    0.583333    0.500000 (in units of recip. lattice)
  However, this system has fractional occupation numbers. Since we use a finite k-point grid,
  this material is metallic within the approximate finite broadening function (occupation_type)
  applied to determine the occupation numbers.

  Total energy components:
  | Sum of eigenvalues            :        -163.82363102 Ha       -4457.86781394 eV
  | XC energy correction          :         -19.57853142 Ha        -532.75894632 eV
  | XC potential correction       :          25.86896562 Ha         703.93037006 eV
  | Free-atom electrostatic energy:        -132.20698521 Ha       -3597.53510820 eV
  | Hartree energy correction     :           0.54735900 Ha          14.89439632 eV
  | Entropy correction            :          -0.00007306 Ha          -0.00198812 eV
  | ---------------------------
  | Total energy                  :        -289.19282303 Ha       -7869.33710208 eV
  | Total energy, T -> 0          :        -289.19289609 Ha       -7869.33909021 eV  <-- do not rely on this value for anything but (periodic) metals
  | Electronic free energy        :        -289.19296915 Ha       -7869.34107833 eV

  Derived energy quantities:
  | Kinetic energy                :         289.34477248 Ha        7873.47185707 eV
  | Electrostatic energy          :        -558.95906409 Ha      -15210.05001283 eV
  | Energy correction for multipole
  | error in Hartree potential    :           0.00003143 Ha           0.00085533 eV
  | Sum of eigenvalues per atom                           :       -4457.86781394 eV
  | Total energy (T->0) per atom                          :       -7869.33909021 eV  <-- do not rely on this value for anything but (periodic) metals
  | Electronic free energy per atom                       :       -7869.34107833 eV

  Self-consistency convergence accuracy:
  | Change of charge density      :  0.6341E-02
  | Change of sum of eigenvalues  :  0.9431E+00 eV
  | Change of total energy        :  0.8753E-03 eV

  End self-consistency iteration #     5       :  max(cpu_time)    wall_clock(cpu1)
  | Time for this iteration                    :        0.243 s           0.244 s
  | Charge density update                      :        0.044 s           0.044 s
  | Density mixing & preconditioning           :        0.007 s           0.007 s
  | Hartree multipole update                   :        0.000 s           0.001 s
  | Hartree multipole summation                :        0.081 s           0.080 s
  | Integration                                :        0.025 s           0.026 s
  | Solution of K.-S. eqns.                    :        0.086 s           0.085 s
  | Total energy evaluation                    :        0.000 s           0.000 s

  Partial memory accounting:
  | Current value for overall tracked memory usage on task 0  :           2.549 MB
  | Peak value for overall tracked memory usage on task 0     :           3.380 MB after allocating wave
  | Largest tracked array allocation on task 0 so far         :           2.500 MB  when allocating +KS_eigenvector_complex
  Note:  These values currently only include a subset of arrays which are explicitly tracked.
  The "true" memory usage will be greater.
------------------------------------------------------------

------------------------------------------------------------
          Begin self-consistency iteration #    6

  Date     :  20190514, Time     :  123653.045
------------------------------------------------------------
  Evaluating new KS density using the density matrix
  Evaluating density matrix
  Time summed over all CPUs for getting density from density matrix: real work        0.037 s, elapsed        0.037 s
  Integration grid: deviation in total charge (<rho> - N_e) =  -4.227729E-13
  Pulay mixing of updated and previous charge densities.

  Evaluating partitioned Hartree potential by multipole expansion.
  | Analytical far-field extrapolation by fixed multipoles:
  | Hartree multipole sum: apparent total charge =  -0.109519E-02
  Summing up the Hartree potential.
  Time summed over all CPUs for potential: real work        0.077 s, elapsed        0.077 s
  | RMS charge density error from multipole expansion :   0.803324E-03
  | Average real-space part of the electrostatic potential :     -0.28148789 eV

  Integrating Hamiltonian matrix: batch-based integration.
  Time summed over all CPUs for integration: real work        0.024 s, elapsed        0.024 s

  Updating Kohn-Sham eigenvalues, eigenvectors, occupation numbers, and Fermi level.
  Solving generalized eigenproblem

  Obtaining occupation numbers and chemical potential using ELSI.
  | Chemical potential (Fermi level):    -4.58881097eV
  What follows are estimated values for band gap, HOMO, LUMO, etc.
  | They are estimated on a discrete k-point grid and not necessarily exact.
  | For converged numbers, create a DOS and/or band structure plot on a denser k-grid.

  Highest occupied state (VBM) at     -4.59571436 eV (relative to internal zero)
  | Occupation number:      1.15480850
  | K-point:     320 at    0.250000    0.250000    0.250000 (in units of recip. lattice)

  Lowest unoccupied state (CBM) at    -4.57202813 eV (relative to internal zero)
  | Occupation number:      0.63500775
  | K-point:     677 at    0.500000    0.666667    0.250000 (in units of recip. lattice)

  ESTIMATED overall HOMO-LUMO gap:      0.02368623 eV between HOMO at k-point 320 and LUMO at k-point 677
  | This appears to be an indirect band gap.
  | Smallest direct gap :      0.16640636 eV for k_point 467 at    0.500000    0.666667    0.250000 (in units of recip. lattice)
  However, this system has fractional occupation numbers. Since we use a finite k-point grid,
  this material is metallic within the approximate finite broadening function (occupation_type)
  applied to determine the occupation numbers.

  Total energy components:
  | Sum of eigenvalues            :        -163.80328927 Ha       -4457.31428664 eV
  | XC energy correction          :         -19.57927101 Ha        -532.77907162 eV
  | XC potential correction       :          25.86997104 Ha         703.95772905 eV
  | Free-atom electrostatic energy:        -132.20698521 Ha       -3597.53510820 eV
  | Hartree energy correction     :           0.52675913 Ha          14.33384532 eV
  | Entropy correction            :          -0.00007297 Ha          -0.00198565 eV
  | ---------------------------
  | Total energy                  :        -289.19281531 Ha       -7869.33689209 eV
  | Total energy, T -> 0          :        -289.19288828 Ha       -7869.33887774 eV  <-- do not rely on this value for anything but (periodic) metals
  | Electronic free energy        :        -289.19296125 Ha       -7869.34086338 eV

  Derived energy quantities:
  | Kinetic energy                :         289.36411086 Ha        7873.99808105 eV
  | Electrostatic energy          :        -558.97765516 Ha      -15210.55590152 eV
  | Energy correction for multipole
  | error in Hartree potential    :           0.00004926 Ha           0.00134032 eV
  | Sum of eigenvalues per atom                           :       -4457.31428664 eV
  | Total energy (T->0) per atom                          :       -7869.33887774 eV  <-- do not rely on this value for anything but (periodic) metals
  | Electronic free energy per atom                       :       -7869.34086338 eV

  Self-consistency convergence accuracy:
  | Change of charge density      :  0.4467E-02
  | Change of sum of eigenvalues  :  0.5535E+00 eV
  | Change of total energy        :  0.2100E-03 eV

  End self-consistency iteration #     6       :  max(cpu_time)    wall_clock(cpu1)
  | Time for this iteration                    :        0.240 s           0.240 s
  | Charge density update                      :        0.042 s           0.042 s
  | Density mixing & preconditioning           :        0.008 s           0.008 s
  | Hartree multipole update                   :        0.000 s           0.000 s
  | Hartree multipole summation                :        0.079 s           0.079 s
  | Integration                                :        0.025 s           0.024 s
  | Solution of K.-S. eqns.                    :        0.086 s           0.087 s
  | Total energy evaluation                    :        0.000 s           0.000 s

  Partial memory accounting:
  | Current value for overall tracked memory usage on task 0  :           2.550 MB
  | Peak value for overall tracked memory usage on task 0     :           3.380 MB after allocating wave
  | Largest tracked array allocation on task 0 so far         :           2.500 MB  when allocating +KS_eigenvector_complex
  Note:  These values currently only include a subset of arrays which are explicitly tracked.
  The "true" memory usage will be greater.
------------------------------------------------------------

------------------------------------------------------------
          Begin self-consistency iteration #    7

  Date     :  20190514, Time     :  123653.285
------------------------------------------------------------
  Evaluating new KS density using the density matrix
  Evaluating density matrix
  Time summed over all CPUs for getting density from density matrix: real work        0.037 s, elapsed        0.037 s
  Integration grid: deviation in total charge (<rho> - N_e) =  -2.309264E-13
  Pulay mixing of updated and previous charge densities.

  Evaluating partitioned Hartree potential by multipole expansion.
  | Analytical far-field extrapolation by fixed multipoles:
  | Hartree multipole sum: apparent total charge =  -0.312920E-03
  Summing up the Hartree potential.
  Time summed over all CPUs for potential: real work        0.076 s, elapsed        0.076 s
  | RMS charge density error from multipole expansion :   0.793196E-03
  | Average real-space part of the electrostatic potential :     -0.27915434 eV

  Integrating Hamiltonian matrix: batch-based integration.
  Time summed over all CPUs for integration: real work        0.026 s, elapsed        0.026 s

  Updating Kohn-Sham eigenvalues, eigenvectors, occupation numbers, and Fermi level.
  Solving generalized eigenproblem

  Obtaining occupation numbers and chemical potential using ELSI.
  | Chemical potential (Fermi level):    -4.58132187eV
  What follows are estimated values for band gap, HOMO, LUMO, etc.
  | They are estimated on a discrete k-point grid and not necessarily exact.
  | For converged numbers, create a DOS and/or band structure plot on a denser k-grid.

  Highest occupied state (VBM) at     -4.58840129 eV (relative to internal zero)
  | Occupation number:      1.15870422
  | K-point:     320 at    0.250000    0.250000    0.250000 (in units of recip. lattice)

  Lowest unoccupied state (CBM) at    -4.56442311 eV (relative to internal zero)
  | Occupation number:      0.63267216
  | K-point:     744 at    0.666667    0.500000    0.583333 (in units of recip. lattice)

  ESTIMATED overall HOMO-LUMO gap:      0.02397818 eV between HOMO at k-point 320 and LUMO at k-point 744
  | This appears to be an indirect band gap.
  | Smallest direct gap :      0.16667460 eV for k_point 467 at    0.666667    0.500000    0.583333 (in units of recip. lattice)
  However, this system has fractional occupation numbers. Since we use a finite k-point grid,
  this material is metallic within the approximate finite broadening function (occupation_type)
  applied to determine the occupation numbers.

  Total energy components:
  | Sum of eigenvalues            :        -163.79026217 Ha       -4456.95980136 eV
  | XC energy correction          :         -19.58022740 Ha        -532.80509641 eV
  | XC potential correction       :          25.87123487 Ha         703.99211951 eV
  | Free-atom electrostatic energy:        -132.20698521 Ha       -3597.53510820 eV
  | Hartree energy correction     :           0.51343022 Ha          13.97114707 eV
  | Entropy correction            :          -0.00007289 Ha          -0.00198343 eV
  | ---------------------------
  | Total energy                  :        -289.19280970 Ha       -7869.33673939 eV
  | Total energy, T -> 0          :        -289.19288259 Ha       -7869.33872283 eV  <-- do not rely on this value for anything but (periodic) metals
  | Electronic free energy        :        -289.19295548 Ha       -7869.34070626 eV

  Derived energy quantities:
  | Kinetic energy                :         289.37310132 Ha        7874.24272393 eV
  | Electrostatic energy          :        -558.98568362 Ha      -15210.77436691 eV
  | Energy correction for multipole
  | error in Hartree potential    :           0.00005155 Ha           0.00140264 eV
  | Sum of eigenvalues per atom                           :       -4456.95980136 eV
  | Total energy (T->0) per atom                          :       -7869.33872283 eV  <-- do not rely on this value for anything but (periodic) metals
  | Electronic free energy per atom                       :       -7869.34070626 eV

  Self-consistency convergence accuracy:
  | Change of charge density      :  0.3054E-02
  | Change of sum of eigenvalues  :  0.3545E+00 eV
  | Change of total energy        :  0.1527E-03 eV

  End self-consistency iteration #     7       :  max(cpu_time)    wall_clock(cpu1)
  | Time for this iteration                    :        0.240 s           0.240 s
  | Charge density update                      :        0.042 s           0.042 s
  | Density mixing & preconditioning           :        0.007 s           0.008 s
  | Hartree multipole update                   :        0.000 s           0.000 s
  | Hartree multipole summation                :        0.078 s           0.078 s
  | Integration                                :        0.026 s           0.026 s
  | Solution of K.-S. eqns.                    :        0.086 s           0.085 s
  | Total energy evaluation                    :        0.000 s           0.000 s

  Partial memory accounting:
  | Current value for overall tracked memory usage on task 0  :           2.550 MB
  | Peak value for overall tracked memory usage on task 0     :           3.380 MB after allocating wave
  | Largest tracked array allocation on task 0 so far         :           2.500 MB  when allocating +KS_eigenvector_complex
  Note:  These values currently only include a subset of arrays which are explicitly tracked.
  The "true" memory usage will be greater.
------------------------------------------------------------

------------------------------------------------------------
          Begin self-consistency iteration #    8

  Date     :  20190514, Time     :  123653.525
------------------------------------------------------------
  Evaluating new KS density using the density matrix
  Evaluating density matrix
  Time summed over all CPUs for getting density from density matrix: real work        0.038 s, elapsed        0.038 s
  Integration grid: deviation in total charge (<rho> - N_e) =  -2.806644E-13
  Pulay mixing of updated and previous charge densities.

  Evaluating partitioned Hartree potential by multipole expansion.
  | Analytical far-field extrapolation by fixed multipoles:
  | Hartree multipole sum: apparent total charge =  -0.426278E-03
  Summing up the Hartree potential.
  Time summed over all CPUs for potential: real work        0.076 s, elapsed        0.076 s
  | RMS charge density error from multipole expansion :   0.771029E-03
  | Average real-space part of the electrostatic potential :     -0.26936491 eV

  Integrating Hamiltonian matrix: batch-based integration.
  Time summed over all CPUs for integration: real work        0.025 s, elapsed        0.025 s

  Updating Kohn-Sham eigenvalues, eigenvectors, occupation numbers, and Fermi level.
  Solving generalized eigenproblem

  Obtaining occupation numbers and chemical potential using ELSI.
  | Chemical potential (Fermi level):    -4.56216199eV
  What follows are estimated values for band gap, HOMO, LUMO, etc.
  | They are estimated on a discrete k-point grid and not necessarily exact.
  | For converged numbers, create a DOS and/or band structure plot on a denser k-grid.

  Highest occupied state (VBM) at     -4.56979906 eV (relative to internal zero)
  | Occupation number:      1.17101933
  | K-point:     320 at    0.250000    0.250000    0.250000 (in units of recip. lattice)

  Lowest unoccupied state (CBM) at    -4.54488514 eV (relative to internal zero)
  | Occupation number:      0.62508019
  | K-point:     358 at    0.250000    0.583333    0.500000 (in units of recip. lattice)

  ESTIMATED overall HOMO-LUMO gap:      0.02491393 eV between HOMO at k-point 320 and LUMO at k-point 358
  | This appears to be an indirect band gap.
  | Smallest direct gap :      0.16746105 eV for k_point 567 at    0.250000    0.583333    0.500000 (in units of recip. lattice)
  However, this system has fractional occupation numbers. Since we use a finite k-point grid,
  this material is metallic within the approximate finite broadening function (occupation_type)
  applied to determine the occupation numbers.

  Total energy components:
  | Sum of eigenvalues            :        -163.75406066 Ha       -4455.97470792 eV
  | XC energy correction          :         -19.58330504 Ha        -532.88884334 eV
  | XC potential correction       :          25.87529394 Ha         704.10257241 eV
  | Free-atom electrostatic energy:        -132.20698521 Ha       -3597.53510820 eV
  | Hartree energy correction     :           0.47625383 Ha          12.95952601 eV
  | Entropy correction            :          -0.00007264 Ha          -0.00197659 eV
  | ---------------------------
  | Total energy                  :        -289.19280315 Ha       -7869.33656104 eV
  | Total energy, T -> 0          :        -289.19287578 Ha       -7869.33853763 eV  <-- do not rely on this value for anything but (periodic) metals
  | Electronic free energy        :        -289.19294842 Ha       -7869.34051422 eV

  Derived energy quantities:
  | Kinetic energy                :         289.39907107 Ha        7874.94939677 eV
  | Electrostatic energy          :        -559.00856917 Ha      -15211.39711448 eV
  | Energy correction for multipole
  | error in Hartree potential    :           0.00005807 Ha           0.00158012 eV
  | Sum of eigenvalues per atom                           :       -4455.97470792 eV
  | Total energy (T->0) per atom                          :       -7869.33853763 eV  <-- do not rely on this value for anything but (periodic) metals
  | Electronic free energy per atom                       :       -7869.34051422 eV

  Self-consistency convergence accuracy:
  | Change of charge density      :  0.2250E-02
  | Change of sum of eigenvalues  :  0.9851E+00 eV
  | Change of total energy        :  0.1784E-03 eV

  End self-consistency iteration #     8       :  max(cpu_time)    wall_clock(cpu1)
  | Time for this iteration                    :        0.240 s           0.240 s
  | Charge density update                      :        0.043 s           0.043 s
  | Density mixing & preconditioning           :        0.008 s           0.008 s
  | Hartree multipole update                   :        0.000 s           0.000 s
  | Hartree multipole summation                :        0.078 s           0.078 s
  | Integration                                :        0.026 s           0.025 s
  | Solution of K.-S. eqns.                    :        0.086 s           0.086 s
  | Total energy evaluation                    :        0.000 s           0.000 s

  Partial memory accounting:
  | Current value for overall tracked memory usage on task 0  :           2.550 MB
  | Peak value for overall tracked memory usage on task 0     :           3.380 MB after allocating wave
  | Largest tracked array allocation on task 0 so far         :           2.500 MB  when allocating +KS_eigenvector_complex
  Note:  These values currently only include a subset of arrays which are explicitly tracked.
  The "true" memory usage will be greater.
------------------------------------------------------------

------------------------------------------------------------
          Begin self-consistency iteration #    9

  Date     :  20190514, Time     :  123653.765
------------------------------------------------------------
  Evaluating new KS density using the density matrix
  Evaluating density matrix
  Time summed over all CPUs for getting density from density matrix: real work        0.037 s, elapsed        0.037 s
  Integration grid: deviation in total charge (<rho> - N_e) =  -3.179679E-13
  Pulay mixing of updated and previous charge densities.

  Evaluating partitioned Hartree potential by multipole expansion.
  | Analytical far-field extrapolation by fixed multipoles:
  | Hartree multipole sum: apparent total charge =  -0.402219E-03
  Summing up the Hartree potential.
  Time summed over all CPUs for potential: real work        0.076 s, elapsed        0.076 s
  | RMS charge density error from multipole expansion :   0.769349E-03
  | Average real-space part of the electrostatic potential :     -0.26882866 eV

  Integrating Hamiltonian matrix: batch-based integration.
  Time summed over all CPUs for integration: real work        0.024 s, elapsed        0.024 s

  Updating Kohn-Sham eigenvalues, eigenvectors, occupation numbers, and Fermi level.
  Solving generalized eigenproblem

  Obtaining occupation numbers and chemical potential using ELSI.
  | Chemical potential (Fermi level):    -4.56140663eV
  What follows are estimated values for band gap, HOMO, LUMO, etc.
  | They are estimated on a discrete k-point grid and not necessarily exact.
  | For converged numbers, create a DOS and/or band structure plot on a denser k-grid.

  Highest occupied state (VBM) at     -4.56905897 eV (relative to internal zero)
  | Occupation number:      1.17135573
  | K-point:     320 at    0.250000    0.250000    0.250000 (in units of recip. lattice)

  Lowest unoccupied state (CBM) at    -4.54412065 eV (relative to internal zero)
  | Occupation number:      0.62489730
  | K-point:     677 at    0.500000    0.666667    0.250000 (in units of recip. lattice)

  ESTIMATED overall HOMO-LUMO gap:      0.02493832 eV between HOMO at k-point 320 and LUMO at k-point 677
  | This appears to be an indirect band gap.
  | Smallest direct gap :      0.16748344 eV for k_point 583 at    0.500000    0.666667    0.250000 (in units of recip. lattice)
  However, this system has fractional occupation numbers. Since we use a finite k-point grid,
  this material is metallic within the approximate finite broadening function (occupation_type)
  applied to determine the occupation numbers.

  Total energy components:
  | Sum of eigenvalues            :        -163.75313202 Ha       -4455.94943836 eV
  | XC energy correction          :         -19.58337959 Ha        -532.89087193 eV
  | XC potential correction       :          25.87539184 Ha         704.10523647 eV
  | Free-atom electrostatic energy:        -132.20698521 Ha       -3597.53510820 eV
  | Hartree energy correction     :           0.47530173 Ha          12.93361802 eV
  | Entropy correction            :          -0.00007263 Ha          -0.00197643 eV
  | ---------------------------
  | Total energy                  :        -289.19280325 Ha       -7869.33656400 eV
  | Total energy, T -> 0          :        -289.19287589 Ha       -7869.33854043 eV  <-- do not rely on this value for anything but (periodic) metals
  | Electronic free energy        :        -289.19294852 Ha       -7869.34051686 eV

  Derived energy quantities:
  | Kinetic energy                :         289.39938237 Ha        7874.95786764 eV
  | Electrostatic energy          :        -559.00880603 Ha      -15211.40355970 eV
  | Energy correction for multipole
  | error in Hartree potential    :           0.00005790 Ha           0.00157554 eV
  | Sum of eigenvalues per atom                           :       -4455.94943836 eV
[...]
  | Hartree multipole update                   :        0.000 s           0.000 s
  | Hartree multipole summation                :        0.080 s           0.080 s
  | Integration                                :        0.028 s           0.028 s
  | Solution of K.-S. eqns.                    :        0.086 s           0.086 s
  | Total energy evaluation                    :        0.000 s           0.000 s

  Partial memory accounting:
  | Current value for overall tracked memory usage on task 0  :           2.550 MB
  | Peak value for overall tracked memory usage on task 0     :           3.380 MB after allocating wave
  | Largest tracked array allocation on task 0 so far         :           2.500 MB  when allocating +KS_eigenvector_complex
  Note:  These values currently only include a subset of arrays which are explicitly tracked.
  The "true" memory usage will be greater.
------------------------------------------------------------

------------------------------------------------------------
          Begin self-consistency iteration #   11

  Date     :  20190514, Time     :  123654.248
------------------------------------------------------------
  Evaluating new KS density using the density matrix
  Evaluating density matrix
  Time summed over all CPUs for getting density from density matrix: real work        0.037 s, elapsed        0.037 s
  Integration grid: deviation in total charge (<rho> - N_e) =  -2.096101E-13
  Pulay mixing of updated and previous charge densities.

  Evaluating partitioned Hartree potential by multipole expansion.
  | Analytical far-field extrapolation by fixed multipoles:
  | Hartree multipole sum: apparent total charge =  -0.400211E-03
  Summing up the Hartree potential.
  Time summed over all CPUs for potential: real work        0.076 s, elapsed        0.076 s
  | RMS charge density error from multipole expansion :   0.769206E-03
  | Average real-space part of the electrostatic potential :     -0.26905603 eV

  Integrating Hamiltonian matrix: batch-based integration.
  Time summed over all CPUs for integration: real work        0.024 s, elapsed        0.024 s

  Updating Kohn-Sham eigenvalues, eigenvectors, occupation numbers, and Fermi level.
  Solving generalized eigenproblem

  Obtaining occupation numbers and chemical potential using ELSI.
  | Chemical potential (Fermi level):    -4.56188437eV
  What follows are estimated values for band gap, HOMO, LUMO, etc.
  | They are estimated on a discrete k-point grid and not necessarily exact.
  | For converged numbers, create a DOS and/or band structure plot on a denser k-grid.

  Highest occupied state (VBM) at     -4.56952341 eV (relative to internal zero)
  | Occupation number:      1.17106261
  | K-point:     320 at    0.250000    0.250000    0.250000 (in units of recip. lattice)

  Lowest unoccupied state (CBM) at    -4.54460755 eV (relative to internal zero)
  | Occupation number:      0.62508078
  | K-point:     713 at    0.583333    0.666667    0.250000 (in units of recip. lattice)

  ESTIMATED overall HOMO-LUMO gap:      0.02491586 eV between HOMO at k-point 320 and LUMO at k-point 713
  | This appears to be an indirect band gap.
  | Smallest direct gap :      0.16746269 eV for k_point 467 at    0.583333    0.666667    0.250000 (in units of recip. lattice)
  However, this system has fractional occupation numbers. Since we use a finite k-point grid,
  this material is metallic within the approximate finite broadening function (occupation_type)
  applied to determine the occupation numbers.

  Total energy components:
  | Sum of eigenvalues            :        -163.75405631 Ha       -4455.97458979 eV
  | XC energy correction          :         -19.58330183 Ha        -532.88875584 eV
  | XC potential correction       :          25.87528925 Ha         704.10244489 eV
  | Free-atom electrostatic energy:        -132.20698521 Ha       -3597.53510820 eV
  | Hartree energy correction     :           0.47625088 Ha          12.95944572 eV
  | Entropy correction            :          -0.00007264 Ha          -0.00197661 eV
  | ---------------------------
  | Total energy                  :        -289.19280323 Ha       -7869.33656323 eV
  | Total energy, T -> 0          :        -289.19287587 Ha       -7869.33853983 eV  <-- do not rely on this value for anything but (periodic) metals
  | Electronic free energy        :        -289.19294850 Ha       -7869.34051644 eV

  Derived energy quantities:
  | Kinetic energy                :         289.39867672 Ha        7874.93866608 eV
  | Electrostatic energy          :        -559.00817812 Ha      -15211.38647346 eV
  | Energy correction for multipole
  | error in Hartree potential    :           0.00005782 Ha           0.00157342 eV
  | Sum of eigenvalues per atom                           :       -4455.97458979 eV
  | Total energy (T->0) per atom                          :       -7869.33853983 eV  <-- do not rely on this value for anything but (periodic) metals
  | Electronic free energy per atom                       :       -7869.34051644 eV

  Self-consistency convergence accuracy:
  | Change of charge density      :  0.7692E-05
  | Change of sum of eigenvalues  :  0.3485E-02 eV
  | Change of total energy        : -0.2519E-06 eV

  End self-consistency iteration #    11       :  max(cpu_time)    wall_clock(cpu1)
  | Time for this iteration                    :        0.238 s           0.238 s
  | Charge density update                      :        0.042 s           0.042 s
  | Density mixing & preconditioning           :        0.007 s           0.008 s
  | Hartree multipole update                   :        0.000 s           0.000 s
  | Hartree multipole summation                :        0.078 s           0.078 s
  | Integration                                :        0.024 s           0.024 s
  | Solution of K.-S. eqns.                    :        0.086 s           0.086 s
  | Total energy evaluation                    :        0.000 s           0.000 s

  Partial memory accounting:
  | Current value for overall tracked memory usage on task 0  :           2.550 MB
  | Peak value for overall tracked memory usage on task 0     :           3.380 MB after allocating wave
  | Largest tracked array allocation on task 0 so far         :           2.500 MB  when allocating +KS_eigenvector_complex
  Note:  These values currently only include a subset of arrays which are explicitly tracked.
  The "true" memory usage will be greater.
------------------------------------------------------------

------------------------------------------------------------
          Begin self-consistency iteration #   12

  Date     :  20190514, Time     :  123654.486
------------------------------------------------------------
  Evaluating new KS density using the density matrix
  Evaluating density matrix
  Time summed over all CPUs for getting density from density matrix: real work        0.037 s, elapsed        0.037 s
  Integration grid: deviation in total charge (<rho> - N_e) =  -2.433609E-13
  Pulay mixing of updated and previous charge densities.

  Evaluating partitioned Hartree potential by multipole expansion.
  | Analytical far-field extrapolation by fixed multipoles:
  | Hartree multipole sum: apparent total charge =  -0.402049E-03
  Summing up the Hartree potential.
  Time summed over all CPUs for potential: real work        0.076 s, elapsed        0.076 s
  | RMS charge density error from multipole expansion :   0.769191E-03
  | Average real-space part of the electrostatic potential :     -0.26905125 eV

  Integrating Hamiltonian matrix: batch-based integration.
  Time summed over all CPUs for integration: real work        0.026 s, elapsed        0.026 s

  Updating Kohn-Sham eigenvalues, eigenvectors, occupation numbers, and Fermi level.
  Solving generalized eigenproblem

  Obtaining occupation numbers and chemical potential using ELSI.
  | Chemical potential (Fermi level):    -4.56188439eV
  What follows are estimated values for band gap, HOMO, LUMO, etc.
  | They are estimated on a discrete k-point grid and not necessarily exact.
  | For converged numbers, create a DOS and/or band structure plot on a denser k-grid.

  Highest occupied state (VBM) at     -4.56952338 eV (relative to internal zero)
  | Occupation number:      1.17106163
  | K-point:     320 at    0.250000    0.250000    0.250000 (in units of recip. lattice)

  Lowest unoccupied state (CBM) at    -4.54460761 eV (relative to internal zero)
  | Occupation number:      0.62508157
  | K-point:     350 at    0.250000    0.500000    0.583333 (in units of recip. lattice)

  ESTIMATED overall HOMO-LUMO gap:      0.02491578 eV between HOMO at k-point 320 and LUMO at k-point 350
  | This appears to be an indirect band gap.
  | Smallest direct gap :      0.16746271 eV for k_point 583 at    0.250000    0.500000    0.583333 (in units of recip. lattice)
  However, this system has fractional occupation numbers. Since we use a finite k-point grid,
  this material is metallic within the approximate finite broadening function (occupation_type)
  applied to determine the occupation numbers.

  Total energy components:
  | Sum of eigenvalues            :        -163.75405591 Ha       -4455.97457876 eV
  | XC energy correction          :         -19.58330245 Ha        -532.88877264 eV
  | XC potential correction       :          25.87529006 Ha         704.10246690 eV
  | Free-atom electrostatic energy:        -132.20698521 Ha       -3597.53510820 eV
  | Hartree energy correction     :           0.47625028 Ha          12.95942945 eV
  | Entropy correction            :          -0.00007264 Ha          -0.00197661 eV
  | ---------------------------
  | Total energy                  :        -289.19280323 Ha       -7869.33656325 eV
  | Total energy, T -> 0          :        -289.19287587 Ha       -7869.33853986 eV  <-- do not rely on this value for anything but (periodic) metals
  | Electronic free energy        :        -289.19294851 Ha       -7869.34051647 eV

  Derived energy quantities:
  | Kinetic energy                :         289.39867958 Ha        7874.93874392 eV
  | Electrostatic energy          :        -559.00818036 Ha      -15211.38653453 eV
  | Energy correction for multipole
  | error in Hartree potential    :           0.00005784 Ha           0.00157378 eV
  | Sum of eigenvalues per atom                           :       -4455.97457876 eV
  | Total energy (T->0) per atom                          :       -7869.33853986 eV  <-- do not rely on this value for anything but (periodic) metals
  | Electronic free energy per atom                       :       -7869.34051647 eV

  Self-consistency convergence accuracy:
  | Change of charge density      :  0.7943E-06
  | Change of sum of eigenvalues  :  0.1103E-04 eV
  | Change of total energy        : -0.2271E-07 eV

  Preliminary charge convergence reached. Turning off preconditioner.

  Writing Kohn-Sham eigenvalues.
  K-point:       1 at    0.000000    0.000000    0.000000 (in units of recip. lattice)

  State    Occupation    Eigenvalue [Ha]    Eigenvalue [eV]
      1       2.00000         -65.536155        -1783.32952
      2       2.00000          -5.126534         -139.50009
      3       2.00000          -3.541264          -96.36271
      4       2.00000          -3.541264          -96.36271
      5       2.00000          -3.541264          -96.36271
      6       2.00000          -0.420311          -11.43724
      7       0.00000          -0.135880           -3.69747
      8       0.00000          -0.135880           -3.69747
      9       0.00000          -0.135880           -3.69747
     10       0.00000           0.039925            1.08643

  What follows are estimated values for band gap, HOMO, LUMO, etc.
  | They are estimated on a discrete k-point grid and not necessarily exact.
  | For converged numbers, create a DOS and/or band structure plot on a denser k-grid.

  Highest occupied state (VBM) at     -4.56952338 eV (relative to internal zero)
  | Occupation number:      1.17106163
  | K-point:     320 at    0.250000    0.250000    0.250000 (in units of recip. lattice)

  Lowest unoccupied state (CBM) at    -4.54460761 eV (relative to internal zero)
  | Occupation number:      0.62508157
  | K-point:     350 at    0.250000    0.500000    0.583333 (in units of recip. lattice)

  ESTIMATED overall HOMO-LUMO gap:      0.02491578 eV between HOMO at k-point 320 and LUMO at k-point 350
  | This appears to be an indirect band gap.
  | Smallest direct gap :      0.16746271 eV for k_point 583 at    0.250000    0.500000    0.583333 (in units of recip. lattice)
  However, this system has fractional occupation numbers. Since we use a finite k-point grid,
  this material is metallic within the approximate finite broadening function (occupation_type)
  applied to determine the occupation numbers.

  Self-consistency cycle converged.

  End self-consistency iteration #    12       :  max(cpu_time)    wall_clock(cpu1)
  | Time for this iteration                    :        0.241 s           0.242 s
  | Charge density update                      :        0.042 s           0.043 s
  | Density mixing                             :        0.007 s           0.007 s
  | Hartree multipole update                   :        0.000 s           0.001 s
  | Hartree multipole summation                :        0.077 s           0.077 s
  | Integration                                :        0.026 s           0.026 s
  | Solution of K.-S. eqns.                    :        0.088 s           0.087 s
  | Total energy evaluation                    :        0.000 s           0.001 s

  Partial memory accounting:
  | Current value for overall tracked memory usage on task 0  :           2.550 MB
  | Peak value for overall tracked memory usage on task 0     :           3.380 MB after allocating wave
  | Largest tracked array allocation on task 0 so far         :           2.500 MB  when allocating +KS_eigenvector_complex
  Note:  These values currently only include a subset of arrays which are explicitly tracked.
  The "true" memory usage will be greater.
------------------------------------------------------------

  Energy and forces in a compact form:
  | Total energy uncorrected      :         -0.786933656324860E+04 eV
  | Total energy corrected        :         -0.786933853985757E+04 eV  <-- do not rely on this value for anything but (periodic) metals
  | Electronic free energy        :         -0.786934051646654E+04 eV

  ------------------------------------ 
  Start decomposition of the XC Energy 
  ------------------------------------ 
  X and C from original XC functional choice 
  Hartree-Fock Energy :          0.000000000 Ha              0.000000000 eV
  X Energy            :        -18.534286216 Ha           -504.343588655 eV
  C Energy            :         -1.049016230 Ha            -28.545183981 eV
  Total XC Energy     :        -19.583302446 Ha           -532.888772636 eV
  ------------------------------------ 
  LDA X and C from self-consistent density 
  X Energy LDA        :        -18.534286216 Ha           -504.343588655 eV
  C Energy LDA        :         -1.049016230 Ha            -28.545183981 eV
  ------------------------------------ 
  End decomposition of the XC Energy 
  ------------------------------------ 

------------------------------------------------------------

------------------------------------------------------------------------------
  Final output of selected total energy values:

  The following output summarizes some interesting total energy values
  at the end of a run (AFTER all relaxation, molecular dynamics, etc.).

  | Total energy of the DFT / Hartree-Fock s.c.f. calculation      :          -7869.336563249 eV
  | Final zero-broadening corrected energy (caution - metals only) :          -7869.338539858 eV
  | For reference only, the value of 1 Hartree used in FHI-aims is :             27.211384500 eV

  Before relying on these values, please be sure to understand exactly which
  total energy value is referred to by a given number. Different objects may
  all carry the same name 'total energy'. Definitions:

  Total energy of the DFT / Hartree-Fock s.c.f. calculation:
  | Note that this energy does not include ANY quantities calculated after the
  | s.c.f. cycle, in particular not ANY RPA, MP2, etc. many-body perturbation terms.

  Final zero-broadening corrected energy:
  | For metallic systems only, a broadening of the occupation numbers at the Fermi
  | level can be extrapolated back to zero broadening by an electron-gas inspired
  | formula. For all systems that are not real metals, this value can be
  | meaningless and should be avoided.

------------------------------------------------------------------------------
  Methods described in the following list of references were used in this FHI-aims run.
  If you publish the results, please make sure to cite these reference if they apply.
  FHI-aims is an academic code, and for our developers (often, Ph.D. students
  and postdocs), scientific credit in the community is essential.
  Thank you for helping us!

  For any use of FHI-aims, please cite:

    Volker Blum, Ralf Gehrke, Felix Hanke, Paula Havu, Ville Havu,
    Xinguo Ren, Karsten Reuter, and Matthias Scheffler
    'Ab initio molecular simulations with numeric atom-centered orbitals'
    Computer Physics Communications 180, 2175-2196 (2009)
    http://dx.doi.org/10.1016/j.cpc.2009.06.022


  For the real-space grid partitioning and parallelization used in this calculation, please cite:

    Ville Havu, Volker Blum, Paula Havu, and Matthias Scheffler,
    'Efficient O(N) integration for all-electron electronic structure calculation'
    'using numerically tabulated basis functions'
    Journal of Computational Physics 228, 8367-8379 (2009).
    http://dx.doi.org/10.1016/j.jcp.2009.08.008

  Of course, there are many other important community references, e.g., those cited in the
  above references. Our list is limited to references that describe implementations in the
  FHI-aims code. The reason is purely practical (length of this list) - please credit others as well.

------------------------------------------------------------
          Leaving FHI-aims.
          Date     :  20190514, Time     :  123654.732

          Computational steps:
          | Number of self-consistency cycles          :           12
          | Number of SCF (re)initializations          :            1

          Detailed time accounting                     :  max(cpu_time)    wall_clock(cpu1)
          | Total time                                 :        3.266 s           3.265 s
          | Preparation time                           :        0.099 s           0.098 s
          | Boundary condition initalization           :        0.039 s           0.039 s
          | Grid partitioning                          :        0.007 s           0.007 s
          | Preloading free-atom quantities on grid    :        0.001 s           0.001 s
          | Free-atom superposition energy             :        0.006 s           0.006 s
          | Total time for integrations                :        0.345 s           0.345 s
          | Total time for solution of K.-S. equations :        1.229 s           1.229 s
          | Total time for density update              :        0.508 s           0.509 s
          | Total time for mixing & preconditioning    :        0.093 s           0.094 s
          | Total time for Hartree multipole update    :        0.005 s           0.004 s
          | Total time for Hartree multipole sum       :        0.910 s           0.910 s
          | Total time for total energy evaluation     :        0.002 s           0.002 s
          | Total time for scaled ZORA corrections     :        0.000 s           0.000 s

 This is a stub MPI_ALLREDUCE call.
 You should not be here. Check your
 setting on the use_mpi variable, or
 link against true MPI-libraries.
