------------------------------------------------------------
          Invoking FHI-aims ...
          Version 171221_1
          Compiled on 2019/05/06 at 14:26:40 on host ffph0xx.

          When using FHI-aims, please cite the following reference:

          Volker Blum, Ralf Gehrke, Felix Hanke, Paula Havu,
          Ville Havu, Xinguo Ren, Karsten Reuter, and Matthias Scheffler,
          'Ab Initio Molecular Simulations with Numeric Atom-Centered Orbitals',
          Computer Physics Communications 180, 2175-2196 (2009)

          For any questions about FHI-aims, please visit the aimsclub website
          with its forums and wiki. Contributions to both the forums and the
          wiki are warmly encouraged - they are for you, and everyone is welcome there.

------------------------------------------------------------



  Date     :  20190509, Time     :  114717.891
  Time zero on CPU 1             :   0.659000000000000E-03  s.
  Internal wall clock time zero  :           326634437.891  s.

  FHI-aims created a unique identifier for this run for later identification
  aims_uuid : 538CCB62-59AD-41F2-ACFA-EA8EFE62578D


  Performing system and environment tests:
  *** Environment variable OMP_NUM_THREADS is not set
  *** For performance reasons you might want to set it to 1
  | Stacksize not measured: no C compiler

  Obtaining array dimensions for all initial allocations:
  
  -----------------------------------------------------------------------
  Parsing control.in (first pass over file, find array dimensions only).
  The contents of control.in will be repeated verbatim below
  unless switched off by setting 'verbatim_writeout .false.' .
  in the first line of control.in .
  -----------------------------------------------------------------------
  
  # Sample input file for the relaxation
  # of the H3O+ molecule
  #######################################
    xc  pw-lda
    charge 1.0
    spin none
  
  #######Iteration limit####################
    sc_iter_limit 100
  
  #######Relaxation######################
    ###################relax_geometry trm 1E-3
  
  #######Species#########################
  ################################################################################
  #
  #  FHI-aims code project
  #  VB, Fritz-Haber Institut, 2009
  #
  #  Suggested "light" defaults for H atom (to be pasted into control.in file)
  #  Be sure to double-check any results obtained with these settings for post-processing,
  #  e.g., with the "tight" defaults and larger basis sets.
  #
  ################################################################################
    species        H
  #     global species definitions
      nucleus             1
      mass                1.00794
  #
      l_hartree           4
  #
      cut_pot             3.5  1.5  1.0
      basis_dep_cutoff    1e-4
  #
      radial_base         24 5.0
      radial_multiplier   1
      angular_grids       specified
        division   0.2421   50
        division   0.3822  110
        division   0.4799  194
        division   0.5341  302
  #      division   0.5626  434
  #      division   0.5922  590
  #      division   0.6542  770
  #      division   0.6868 1202
  #      outer_grid  770
        outer_grid  302
  ################################################################################
  #
  #  Definition of "minimal" basis
  #
  ################################################################################
  #     valence basis states
      valence      1  s   1.
  #     ion occupancy
      ion_occ      1  s   0.5
  ################################################################################
  #
  #  Suggested additional basis functions. For production calculations,
  #  uncomment them one after another (the most important basis functions are
  #  listed first).
  #
  #  Basis constructed for dimers: 0.5 A, 0.7 A, 1.0 A, 1.5 A, 2.5 A
  #
  ################################################################################
  #  "First tier" - improvements: -1014.90 meV to -62.69 meV
       hydro 2 s 2.1
       hydro 2 p 3.5
  #  "Second tier" - improvements: -12.89 meV to -1.83 meV
  #     hydro 1 s 0.85
  #     hydro 2 p 3.7
  #     hydro 2 s 1.2
  #     hydro 3 d 7
  #  "Third tier" - improvements: -0.25 meV to -0.12 meV
  #     hydro 4 f 11.2
  #     hydro 3 p 4.8
  #     hydro 4 d 9
  #     hydro 3 s 3.2
  ################################################################################
  #
  #  FHI-aims code project
  #  VB, Fritz-Haber Institut, 2009
  #
  #  Suggested "light" defaults for O atom (to be pasted into control.in file)
  #  Be sure to double-check any results obtained with these settings for post-processing,
  #  e.g., with the "tight" defaults and larger basis sets.
  #
  ################################################################################
    species        O
  #     global species definitions
      nucleus             8
      mass                15.9994
  #
      l_hartree           4
  #
      cut_pot             3.5  1.5  1.0
      basis_dep_cutoff    1e-4
  #
      radial_base         36 5.0
      radial_multiplier   1
       angular_grids specified
        division   0.2659   50
        division   0.4451  110
        division   0.6052  194
        division   0.7543  302
  #      division   0.8014  434
  #      division   0.8507  590
  #      division   0.8762  770
  #      division   0.9023  974
  #      division   1.2339 1202
  #      outer_grid 974
        outer_grid 302
  ################################################################################
  #
  #  Definition of "minimal" basis
  #
  ################################################################################
  #     valence basis states
      valence      2  s   2.
      valence      2  p   4.
  #     ion occupancy
      ion_occ      2  s   1.
      ion_occ      2  p   3.
  ################################################################################
  #
  #  Suggested additional basis functions. For production calculations,
  #  uncomment them one after another (the most important basis functions are
  #  listed first).
  #
  #  Constructed for dimers: 1.0 A, 1.208 A, 1.5 A, 2.0 A, 3.0 A
  #
  ################################################################################
  #  "First tier" - improvements: -699.05 meV to -159.38 meV
       hydro 2 p 1.8
       hydro 3 d 7.6
       hydro 3 s 6.4
  #  "Second tier" - improvements: -49.91 meV to -5.39 meV
  #     hydro 4 f 11.6
  #     hydro 3 p 6.2
  #     hydro 3 d 5.6
  #     hydro 5 g 17.6
  #     hydro 1 s 0.75
  #  "Third tier" - improvements: -2.83 meV to -0.50 meV
  #     ionic 2 p auto
  #     hydro 4 f 10.8
  #     hydro 4 d 4.7
  #     hydro 2 s 6.8
  #  "Fourth tier" - improvements: -0.40 meV to -0.12 meV
  #     hydro 3 p 5
  #     hydro 3 s 3.3
  #     hydro 5 g 15.6
  #     hydro 4 f 17.6
  #     hydro 4 d 14
  # Further basis functions - -0.08 meV and below
  #     hydro 3 s 2.1
  #     hydro 4 d 11.6
  #     hydro 3 p 16
  #     hydro 2 s 17.2
  /afs/ictp.it/public/shared/smr2475/fhi-aims/species_defaults/light/01_H_default
  compute_forces .true.
  final_forces_cleaned .true.
  output dipole
  
  -----------------------------------------------------------------------
  Completed first pass over input file control.in .
  -----------------------------------------------------------------------
  
  
  -----------------------------------------------------------------------
  Parsing geometry.in (first pass over file, find array dimensions only).
  The contents of geometry.in will be repeated verbatim below
  unless switched off by setting 'verbatim_writeout .false.' .
  in the first line of geometry.in .
  -----------------------------------------------------------------------
  
  #
  # temporary structure-file for finite-difference calculation of forces
  # displacement  -0.0020 of \# atom     3 direction     0
  #
  atom    0.00000000    0.00001836    0.19077151   O
  atom    0.82425584   -0.47587261    0.47423563   H
  atom   -0.82425584   -0.47587261    0.47423563   H
  atom   -0.00200000    0.95172688    0.47446636   H
  
  -----------------------------------------------------------------------
  Completed first pass over input file geometry.in .
  -----------------------------------------------------------------------
  

  Basic array size parameters:
  | Number of species                 :        2
  | Number of atoms                   :        4
  | Max. basis fn. angular momentum   :        2
  | Max. atomic/ionic basis occupied n:        2
  | Max. number of basis fn. types    :        2
  | Max. radial fns per species/type  :        3
  | Max. logarithmic grid size        :     1301
  | Max. radial integration grid size :       36
  | Max. angular integration grid size:      302
  | Max. angular grid division number :        8
  | Radial grid for Hartree potential :     1301
  | Number of spin channels           :        1

------------------------------------------------------------
          Reading file control.in.
------------------------------------------------------------
  XC: Using Perdew-Wang parametrisation of Ceperley-Alder LDA.
  Charged system requested: Charge =   0.100000E+01.
  Spin treatment: No spin polarisation.
  Maximum number of s.-c. iterations  :   100

  Reading configuration options for species H                   .
  | Found nuclear charge :   1.0000
  | Found atomic mass :    1.0079400000000001      amu
  | Found l_max for Hartree potential  :   4
  | Found cutoff potl. onset [A], width [A], scale factor :    3.50000    1.50000    1.00000
  | Threshold for basis-dependent cutoff potential is   0.100000E-03
  | Found data for basic radial integration grid :    24 points, outermost radius =    5.000 A
  | Found multiplier for basic radial grid :   1
  | Found angular grid specification: user-specified.
  | Specified grid contains     5 separate shells.
  | Check grid settings after all constraints further below.
  | Found free-atom valence shell :  1 s   1.000
  | No ionic wave fns used. Skipping ion_occ.
  | Found hydrogenic basis function :  2 s   2.100
  | Found hydrogenic basis function :  2 p   3.500
  Species H                   : Missing cutoff potential type.
  Defaulting to exp(1/x)/(1-x)^2 type cutoff potential.
  Species H : No 'logarithmic' tag. Using default grid for free atom:
  | Default logarithmic grid data [bohr] : 0.1000E-03 0.1000E+03 0.1012E+01
  Species H : On-site basis accuracy parameter (for Gram-Schmidt orthonormalisation) not specified.
  Using default value basis_acc =  0.1000000E-03.
  Species H                   : Using default innermost maximum threshold i_radial=  2 for radial functions.
  Species H                   : Default cutoff onset for free atom density etc. : 0.35000000E+01 AA.
  Species H                   : Basic radial grid will be enhanced according to radial_multiplier =   1, to contain    24 grid points.

  Reading configuration options for species O                   .
  | Found nuclear charge :   8.0000
  | Found atomic mass :    15.999400000000000      amu
  | Found l_max for Hartree potential  :   4
  | Found cutoff potl. onset [A], width [A], scale factor :    3.50000    1.50000    1.00000
  | Threshold for basis-dependent cutoff potential is   0.100000E-03
  | Found data for basic radial integration grid :    36 points, outermost radius =    5.000 A
  | Found multiplier for basic radial grid :   1
  | Found angular grid specification: user-specified.
  | Specified grid contains     5 separate shells.
  | Check grid settings after all constraints further below.
  | Found free-atom valence shell :  2 s   2.000
  | Found free-atom valence shell :  2 p   4.000
  | No ionic wave fns used. Skipping ion_occ.
  | No ionic wave fns used. Skipping ion_occ.
  | Found hydrogenic basis function :  2 p   1.800
  | Found hydrogenic basis function :  3 d   7.600
  | Found hydrogenic basis function :  3 s   6.400
  Species O                   : Missing cutoff potential type.
  Defaulting to exp(1/x)/(1-x)^2 type cutoff potential.
  Species O : No 'logarithmic' tag. Using default grid for free atom:
  | Default logarithmic grid data [bohr] : 0.1000E-03 0.1000E+03 0.1012E+01
  Species O : On-site basis accuracy parameter (for Gram-Schmidt orthonormalisation) not specified.
  Using default value basis_acc =  0.1000000E-03.
  Species O                   : Using default innermost maximum threshold i_radial=  2 for radial functions.
  Species O                   : Default cutoff onset for free atom density etc. : 0.35000000E+01 AA.
  Species O                   : Basic radial grid will be enhanced according to radial_multiplier =   1, to contain    36 grid points.
  Forces will be computed.
  Cleaning forces before final output.
  Dipole moment will be written out.

  Finished reading input file 'control.in'. Consistency checks are next.

  MPI_IN_PLACE appears to work with this MPI implementation.
  | Keeping use_mpi_in_place .true. (see manual).
  Target number of points in a grid batch is not set. Defaulting to  100
  Method for grid partitioning is not set. Defaulting to 'maxmin' partitioning.
  Batch size limit is not set. Defaulting to    200
  By default, will store active basis functions for each batch.
  If in need of memory, prune_basis_once .false. can be used to disable this option.
  communication_type for Hartree potential was not specified.
  Defaulting to calc_hartree .
 * Attention: 
 * You may want to set distributed_spline_storage to .true. in order to save memory.
 * This doesn't harm performance and is perfectly ok unless:
 * - you get error messages in postprocessing (about missing atoms in get_rho_multipole_spl)
 * - you need full spline storage in hirshfeld_analysis
  Defaulting to Pulay charge density mixer.
  Pulay mixer: Number of relevant iterations not set.
  Defaulting to    8 iterations.
  Pulay mixer: Number of initial linear mixing iterations not set.
  Defaulting to    0 iterations.
  Work space size for distributed Hartree potential not set.
  Defaulting to   0.200000E+03 MB.
  Mixing parameter for charge density mixing has not been set.
  Using default: charge_mix_param =     0.0500.
  The mixing parameter will be adjusted in iteration number     2 of the first full s.c.f. cycle only.
  Algorithm-dependent basis array size parameters:
  | n_max_pulay                         :        8
 * Notice: The s.c.f. convergence criterion sc_accuracy_rho was not provided.
 * We used to stop in this case, and ask the user to provide reasonable
 * scf convergence criteria. However, this led some users to employ criteria
 * that led to extremely long run times, e.g., for simple relaxation.
 * We now preset a default value for sc_accuracy_rho if it is not set.
 * You may still wish to check if this setting is too tight or too loose for your needs.
 * Based on n_atoms, FHI-aims chose sc_accuracy_rho =  0.100000E-05 .
  Presetting      1001 iterations before the initial mixing cycle
  is restarted anyway using the sc_init_iter criterion / keyword.
  Presetting a factor      1.000 between actual scf density residual
  and density convergence criterion sc_accuracy_rho below which sc_init_iter
  takes no effect.
 * No s.c.f. convergence criteria (sc_accuracy_*) were provided in control.in.
 * The run will proceed with a reasonable default guess, but please check whether.
 * the s.c.f. cycles seem to take too much or too little time.
  Geometry relaxation not requested: no relaxation will be performed.
  Force calculation: scf convergence accuracy of forces not set.
  Defaulting to 'sc_accuracy_forces not_checked'.
  Handling of forces: Unphysical translation and rotation will be removed from forces.
  No accuracy limit for integral partition fn. given. Defaulting to  0.1000E-14.
  No threshold value for u(r) in integrations given. Defaulting to  0.1000E-05.
  No occupation type (smearing scheme) given. Defaulting to Gaussian broadening, width =  0.1000E-01 eV.
  The width will be adjusted in iteration number     2 of the first full s.c.f. cycle only.
  S.C.F. convergence parameters will be adjusted in iteration number     2 of the first full s.c.f. cycle only.
  No accuracy for occupation numbers given. Defaulting to  0.1000E-12.
  No threshold value for occupation numbers given. Defaulting to  0.0000E+00.
  No accuracy for fermi level given. Defaulting to  0.1000E-19.
  Maximum # of iterations to find E_F not set. Defaulting to  200.
  Preferred method for the eigenvalue solver ('KS_method') not specified in 'control.in'.
  Defaulting to serial version, 'lapack_fast'.
  Will not use alltoall communication since running on < 1024 CPUs.
  Threshold for basis singularities not set.
  Default threshold for basis singularities:  0.1000E-04
  partition_type (choice of integration weights) for integrals was not specified.
  | Using a version of the partition function of Stratmann and coworkers ('stratmann_smoother').
  | At each grid point, the set of atoms used to build the partition table is smoothly restricted to
  | only those atoms whose free-atom density would be non-zero at that grid point.
  Partitioning for Hartree potential was not defined. Using partition_type for integrals.
  | Adjusted default value of keyword multip_moments_threshold to:       0.10000000E-11
  | This value may affect high angular momentum components of the Hartree potential in periodic systems.
  No q(lm)/r^(l+1) cutoff set for long-range Hartree potential.
  | Using default value of  0.100000E-09 .
  | Verify using the multipole_threshold keyword.
  Defaulting to new monopole extrapolation.
  Density update method: automatic selection selected.
------------------------------------------------------------


------------------------------------------------------------
          Reading geometry description geometry.in.
------------------------------------------------------------
 * Warning: Initial charge and total charge of the system are inconsistent.
 * Selected charge in control.in:     1.0000* Sum of initial charges in geometry.in:     0.0000
 * Warning! You did not set the 'relativistic' flag in input file 'control.in'.
 * Since you are not attempting to treat any elements beyond Ca(Z=20), FHI-aims
 * will default to 'relativistic none'.
 * You must ensure that this is really what you want!!
 * For example, DO NOT compute total-energy differences between results from
 * different settings of the 'relativistic' flag.
  Input structure read successfully.
  The structure contains        4 atoms,  and a total of         10.000 electrons.

  Input geometry:
  | No unit cell requested.
  | Atomic structure:
  |       Atom                x [A]            y [A]            z [A]
  |    1: Species O             0.00000000        0.00001836        0.19077151
  |    2: Species H             0.82425584       -0.47587261        0.47423563
  |    3: Species H            -0.82425584       -0.47587261        0.47423563
  |    4: Species H            -0.00200000        0.95172688        0.47446636
  |

  | The smallest distance between any two atoms is         0.99308701 AA.
  |
  | The first atom of this pair is atom number                      1 .
  | The second atom of this pair is atom number                     2 .

  Number of empty states per atom not set in control.in - providing a guess from actual geometry.
  | Total number of empty states used during s.c.f. cycle:        8
  If you use a very high smearing, use empty_states (per atom!) in control.in to increase this value.

  Structure-dependent array size parameters: 
  | Maximum number of distinct radial functions  :        9
  | Maximum number of basis functions            :       29
  | Number of Kohn-Sham states (occupied + empty):       13
------------------------------------------------------------

------------------------------------------------------------
          Preparing all fixed parts of the calculation.
------------------------------------------------------------
  Determining machine precision:
     2.2250738585072014E-308
  Setting up grids for atomic and cluster calculations.

  Creating wave function, potential, and density for free atoms.

  Species: H

  List of occupied orbitals and eigenvalues:
    n    l              occ      energy [Ha]    energy [eV]
    1    0           1.0000        -0.232375        -6.3233


  Species: O

  List of occupied orbitals and eigenvalues:
    n    l              occ      energy [Ha]    energy [eV]
    1    0           2.0000       -18.757744      -510.4242
    2    0           2.0000        -0.870917       -23.6989
    2    1           4.0000        -0.337950        -9.1961

  Creating fixed part of basis set: Ionic, confined, hydrogenic.

  H                    hydrogenic:

  List of hydrogenic basis orbitals: 
    n    l      effective z      eigenvalue [eV]  inner max. [A]     outer max. [A]     outer radius [A]   
    2    0         2.100000       -14.9728           0.193243           1.317208           4.583499
    2    1         3.500000       -41.6669           0.602369           0.602369           3.723403


  O                    hydrogenic:

  List of hydrogenic basis orbitals: 
    n    l      effective z      eigenvalue [eV]  inner max. [A]     outer max. [A]     outer radius [A]   
    2    1         1.800000       -10.9749           1.164242           1.164242           4.578029
    3    2         7.600000       -87.3180           0.624125           0.624125           3.251020
    3    0         6.400000       -61.9207           0.061167           1.081902           4.001998


  Adding cutoff potential to free-atom effective potential.
  Creating atomic-like basis functions for current effective potential.

  Species H                   :

  List of atomic basis orbitals and eigenvalues:
    n    l      energy [Ha]    energy [eV]    outer radius [A]
    1    0        -0.232375        -6.3233       4.527807


  Species O                   :

  List of atomic basis orbitals and eigenvalues:
    n    l      energy [Ha]    energy [eV]    outer radius [A]
    1    0       -18.757744      -510.4242       1.433179
    2    0        -0.870917       -23.6989       4.413171
    2    1        -0.337950        -9.1961       4.522403

  Assembling full basis from fixed parts.
  | Species H :   atomic orbital   1 s accepted.
  | Species H :    hydro orbital   2 s accepted.
  | Species H :    hydro orbital   2 p accepted.
  | Species O :   atomic orbital   1 s accepted.
  | Species O :    hydro orbital   3 s accepted.
  | Species O :   atomic orbital   2 s accepted.
  | Species O :   atomic orbital   2 p accepted.
  | Species O :    hydro orbital   2 p accepted.
  | Species O :    hydro orbital   3 d accepted.

  Basis size parameters after reduction:
  | Total number of radial functions:        9
  | Total number of basis functions :       29

  Per-task memory consumption for arrays in subroutine allocate_ext:
  |           2.249476MB.
  Testing on-site integration grid accuracy.
  |  Species  Function  <phi|h_atom|phi> (log., in eV)  <phi|h_atom|phi> (rad., in eV)
           1        1                 -6.3245358373                 -6.3232436907
           1        2                 14.1326137532                 14.1384481100
           1        3                 25.3627025200                 25.3628451197
           2        4               -510.4241781769               -510.4240769412
           2        5                 14.9072942218                 14.9072945276
           2        6                -21.2004736467                -21.2005650544
           2        7                 -9.1962086499                 -9.1963509828
           2        8                  8.1896755011                  8.1702200086
           2        9                 45.7920584945                 45.7920228528

  Preparing densities etc. for the partition functions (integrals / Hartree potential).

  Preparations completed.
  max(cpu_time)          :      0.051 s.
  Wall clock time (cpu1) :      0.051 s.
------------------------------------------------------------

------------------------------------------------------------
          Begin self-consistency loop: Initialization.

          Date     :  20190509, Time     :  114717.943
------------------------------------------------------------

  Initializing index lists of integration centers etc. from given atomic structure:
  | Number of centers in hartree potential         :         4
  | Number of centers in hartree multipole         :         4
  | Number of centers in electron density summation:         4
  | Number of centers in basis integrals           :         4
  | Number of centers in integrals                 :         4
  | Number of centers in hamiltonian               :         4
  Partitioning the integration grid into batches with maxmin method.
  | Maximal weight for a single point:     1.000
  | Minimal weight for a single point:     0.000
  | Number of batches:      256
  | Maximal batch size:      83
  | Minimal batch size:      78
  | Average batch size:      80.719
  | Standard deviation of batch sizes:       1.484
  Initializing partition tables, free-atom densities, potentials, etc. across the integration grid (initialize_grid_storage).
  | initialize_grid_storage: Actual outermost partition radius vs. multipole_radius_free
  | (-- VB: in principle, multipole_radius_free should be larger, hence this output)
  | Species        1: Confinement radius =              4.999999999999999 AA, multipole_radius_free =              5.054417573612229 AA.
  | Species        1: outer_partition_radius set to              5.054417573612229 AA .
  | Species        2: Confinement radius =              4.999999999999999 AA, multipole_radius_free =              5.048384829883283 AA.
  | Species        2: outer_partition_radius set to              5.048384829883283 AA .
  | Original list of interatomic distances with           4 x          4 entries is created.
  | Net number of integration points:    20664
  | of which are non-zero points    :    18385
  Renormalizing the initial density to the exact electron count on the 3D integration grid.
  | Initial density: Formal number of electrons (from input files) :      11.0000000000
  | Integrated number of electrons on 3D grid     :      10.9999413876
  | Charge integration error                      :      -0.0000586124
  | Normalization factor for density and gradient :       1.0000053284
  Obtaining max. number of non-zero basis functions in each batch (get_n_compute_maxes).
  | Maximal number of non-zero basis functions:       29 in task     0
  Selecting the method for density update.
  Loop over occupied states selected for charge density update.
  Allocating        0.003 MB for KS_eigenvector
  Integrating Hamiltonian matrix: batch-based integration.
  Time summed over all CPUs for integration: real work        0.029 s, elapsed        0.029 s
  Integrating overlap matrix.
  Time summed over all CPUs for integration: real work        0.014 s, elapsed        0.014 s

  Updating Kohn-Sham eigenvalues, eigenvectors, occupation numbers, and Fermi level.
  Solving generalized eigenproblem
  Updating Kohn-Sham eigenvalues and eigenfunctions.
  Transforming overlap matrix and checking for singularities.
  Overlap matrix is nonsingular:
  | Lowest eigenvalue:  0.148147E-01
  Solving real generalised eigenvalue problem by standard LAPACK (fast)

  Obtaining occupation numbers and chemical potential using ELSI.
  | Chemical potential (Fermi level):    -6.76589903eV
  Writing Kohn-Sham eigenvalues.

  State    Occupation    Eigenvalue [Ha]    Eigenvalue [eV]
      1       2.00000         -18.911544         -514.60930
      2       2.00000          -1.150931          -31.31844
      3       2.00000          -0.671154          -18.26303
      4       2.00000          -0.670776          -18.25275
      5       2.00000          -0.507507          -13.80996
      6       0.00000          -0.090459           -2.46151
      7       0.00000           0.002413            0.06566
      8       0.00000           0.002471            0.06725
      9       0.00000           0.199730            5.43494
     10       0.00000           0.264562            7.19909
     11       0.00000           0.264971            7.21022
     12       0.00000           0.466901           12.70503
     13       0.00000           0.669205           18.21001

  Highest occupied state (VBM) at    -13.80995563 eV
  | Occupation number:      2.00000000

  Lowest unoccupied state (CBM) at    -2.46151166 eV
  | Occupation number:      0.00000000

  Overall HOMO-LUMO gap:     11.34844397 eV.
  Calculating total energy contributions from superposition of free atom densities.

  Total energy components:
  | Sum of eigenvalues            :         -43.82382470 Ha       -1192.50694425 eV
  | XC energy correction          :          -8.86347373 Ha        -241.18739176 eV
  | XC potential correction       :          11.67113233 Ha         317.58766948 eV
  | Free-atom electrostatic energy:         -35.29706720 Ha        -960.48206722 eV
  | Hartree energy correction     :          -0.00000000 Ha          -0.00000000 eV
  | Entropy correction            :          -0.00000000 Ha          -0.00000000 eV
  | ---------------------------
  | Total energy                  :         -76.31323330 Ha       -2076.58873374 eV
  | Total energy, T -> 0          :         -76.31323330 Ha       -2076.58873374 eV  <-- do not rely on this value for anything but (periodic) metals
  | Electronic free energy        :         -76.31323330 Ha       -2076.58873374 eV

  Derived energy quantities:
  | Kinetic energy                :          75.66381530 Ha        2058.91717096 eV
  | Electrostatic energy          :        -143.11357487 Ha       -3894.31851293 eV
  | Energy correction for multipole
  | error in Hartree potential    :           0.00000000 Ha           0.00000000 eV
  | Sum of eigenvalues per atom                           :        -298.12673606 eV
  | Total energy (T->0) per atom                          :        -519.14718343 eV  <-- do not rely on this value for anything but (periodic) metals
  | Electronic free energy per atom                       :        -519.14718343 eV
  Initialize hartree_potential_storage
  Max. number of atoms included in rho_multipole:            4

  End scf initialization - timings             :  max(cpu_time)    wall_clock(cpu1)
  | Time for scf. initialization               :        0.084 s           0.084 s
  | Boundary condition initialization          :        0.000 s           0.000 s
  | Integration                                :        0.044 s           0.043 s
  | Solution of K.-S. eqns.                    :        0.001 s           0.001 s
  | Grid partitioning                          :        0.014 s           0.014 s
  | Preloading free-atom quantities on grid    :        0.001 s           0.001 s
  | Free-atom superposition energy             :        0.013 s           0.013 s
  | Total energy evaluation                    :        0.000 s           0.000 s

  Partial memory accounting:
  | Current value for overall tracked memory usage on task 0  :           0.017 MB
  | Peak value for overall tracked memory usage on task 0     :           0.075 MB after allocating wave
  | Largest tracked array allocation on task 0 so far         :           0.019 MB  when allocating H_times_psi
  Note:  These values currently only include a subset of arrays which are explicitly tracked.
  The "true" memory usage will be greater.
------------------------------------------------------------

------------------------------------------------------------
          Begin self-consistency iteration #    1

  Date     :  20190509, Time     :  114718.027
------------------------------------------------------------
  Evaluating new KS density.
  Integration grid: deviation in total charge (<rho> - N_e) =   3.907985E-14
  Pulay mixing of updated and previous charge densities.

  Evaluating partitioned Hartree potential by multipole expansion.
  | Analytical far-field extrapolation by fixed multipoles:
  | Hartree multipole sum: apparent total charge =   0.499215E-01
  Summing up the Hartree potential.
  Time summed over all CPUs for potential: real work        0.016 s, elapsed        0.016 s
  | RMS charge density error from multipole expansion :   0.486128E-03

  Integrating Hamiltonian matrix: batch-based integration.
  Time summed over all CPUs for integration: real work        0.028 s, elapsed        0.028 s

  Updating Kohn-Sham eigenvalues, eigenvectors, occupation numbers, and Fermi level.
  Solving generalized eigenproblem
  Updating Kohn-Sham eigenvalues and eigenfunctions.
  Solving real generalised eigenvalue problem by standard LAPACK (fast)

  Obtaining occupation numbers and chemical potential using ELSI.
  | Chemical potential (Fermi level):    -6.98354894eV
  Writing Kohn-Sham eigenvalues.

  State    Occupation    Eigenvalue [Ha]    Eigenvalue [eV]
      1       2.00000         -18.901994         -514.34942
      2       2.00000          -1.155077          -31.43125
      3       2.00000          -0.676591          -18.41098
      4       2.00000          -0.676210          -18.40062
      5       2.00000          -0.510148          -13.88182
      6       0.00000          -0.100762           -2.74187
      7       0.00000          -0.007223           -0.19654
      8       0.00000          -0.007161           -0.19486
      9       0.00000           0.192604            5.24103
     10       0.00000           0.254697            6.93065
     11       0.00000           0.255102            6.94168
     12       0.00000           0.456263           12.41555
     13       0.00000           0.660344           17.96887

  Highest occupied state (VBM) at    -13.88182437 eV
  | Occupation number:      2.00000000

  Lowest unoccupied state (CBM) at    -2.74186595 eV
  | Occupation number:      0.00000000

  Overall HOMO-LUMO gap:     11.13995842 eV.

  Total energy components:
  | Sum of eigenvalues            :         -43.84003995 Ha       -1192.94818362 eV
  | XC energy correction          :          -8.86661879 Ha        -241.27297323 eV
  | XC potential correction       :          11.67549690 Ha         317.70643540 eV
  | Free-atom electrostatic energy:         -35.29706720 Ha        -960.48206722 eV
  | Hartree energy correction     :           0.03279519 Ha           0.89240256 eV
  | Entropy correction            :          -0.00000000 Ha          -0.00000000 eV
  | ---------------------------
  | Total energy                  :         -76.29543385 Ha       -2076.10438610 eV
  | Total energy, T -> 0          :         -76.29543385 Ha       -2076.10438610 eV  <-- do not rely on this value for anything but (periodic) metals
  | Electronic free energy        :         -76.29543385 Ha       -2076.10438610 eV

  Derived energy quantities:
  | Kinetic energy                :          75.75290162 Ha        2061.34133299 eV
  | Electrostatic energy          :        -143.18171668 Ha       -3896.17274586 eV
  | Energy correction for multipole
  | error in Hartree potential    :           0.00050731 Ha           0.01380465 eV
  | Sum of eigenvalues per atom                           :        -298.23704590 eV
  | Total energy (T->0) per atom                          :        -519.02609653 eV  <-- do not rely on this value for anything but (periodic) metals
  | Electronic free energy per atom                       :        -519.02609653 eV

  Self-consistency convergence accuracy:
  | Change of charge density      :  0.2573E+00
  | Change of sum of eigenvalues  : -0.4412E+00 eV
  | Change of total energy        :  0.4843E+00 eV

  End self-consistency iteration #     1       :  max(cpu_time)    wall_clock(cpu1)
  | Time for this iteration                    :        0.060 s           0.060 s
  | Charge density update                      :        0.013 s           0.013 s
  | Density mixing                             :        0.000 s           0.000 s
  | Hartree multipole update                   :        0.002 s           0.002 s
  | Hartree multipole summation                :        0.017 s           0.016 s
  | Integration                                :        0.028 s           0.029 s
  | Solution of K.-S. eqns.                    :        0.000 s           0.000 s
  | Total energy evaluation                    :        0.000 s           0.000 s

  Partial memory accounting:
  | Current value for overall tracked memory usage on task 0  :           0.017 MB
  | Peak value for overall tracked memory usage on task 0     :           0.082 MB after allocating wave
  | Largest tracked array allocation on task 0 so far         :           0.019 MB  when allocating H_times_psi
  Note:  These values currently only include a subset of arrays which are explicitly tracked.
  The "true" memory usage will be greater.
------------------------------------------------------------

------------------------------------------------------------
          Begin self-consistency iteration #    2

  Date     :  20190509, Time     :  114718.087
------------------------------------------------------------
  Evaluating new KS density.
  Integration grid: deviation in total charge (<rho> - N_e) =   1.953993E-14
  Pulay mixing of updated and previous charge densities.

  Evaluating partitioned Hartree potential by multipole expansion.
  | Analytical far-field extrapolation by fixed multipoles:
  | Hartree multipole sum: apparent total charge =   0.436442E+00
  Summing up the Hartree potential.
  Time summed over all CPUs for potential: real work        0.016 s, elapsed        0.016 s
  | RMS charge density error from multipole expansion :   0.419033E-02

  Integrating Hamiltonian matrix: batch-based integration.
  Time summed over all CPUs for integration: real work        0.027 s, elapsed        0.028 s

  Updating Kohn-Sham eigenvalues, eigenvectors, occupation numbers, and Fermi level.
  Solving generalized eigenproblem
  Updating Kohn-Sham eigenvalues and eigenfunctions.
  Solving real generalised eigenvalue problem by standard LAPACK (fast)

  Obtaining occupation numbers and chemical potential using ELSI.
  | Chemical potential (Fermi level):    -8.70235741eV
  Highest occupied state (VBM) at    -14.67014106 eV
  | Occupation number:      2.00000000

  Lowest unoccupied state (CBM) at    -4.88004652 eV
  | Occupation number:      0.00000000

  Overall HOMO-LUMO gap:      9.79009453 eV.

  Checking to see if s.c.f. parameters should be adjusted.
  The system likely has a gap. Increased the default Pulay mixing parameter (charge_mix_param). Value:   0.200000 .
  Kept the default occupation width. Value:   0.010000 eV.

  Total energy components:
  | Sum of eigenvalues            :         -44.06455770 Ha       -1199.05762241 eV
  | XC energy correction          :          -8.88988458 Ha        -241.90606742 eV
  | XC potential correction       :          11.70778081 Ha         318.58492538 eV
  | Free-atom electrostatic energy:         -35.29706720 Ha        -960.48206722 eV
  | Hartree energy correction     :           0.33531763 Ha           9.12445693 eV
  | Entropy correction            :          -0.00000000 Ha          -0.00000000 eV
  | ---------------------------
  | Total energy                  :         -76.20841103 Ha       -2073.73637473 eV
  | Total energy, T -> 0          :         -76.20841103 Ha       -2073.73637473 eV  <-- do not rely on this value for anything but (periodic) metals
  | Electronic free energy        :         -76.20841103 Ha       -2073.73637473 eV

  Derived energy quantities:
  | Kinetic energy                :          76.28524429 Ha        2075.82711396 eV
  | Electrostatic energy          :        -143.60377074 Ha       -3907.65742127 eV
  | Energy correction for multipole
  | error in Hartree potential    :           0.00418513 Ha           0.11388321 eV
  | Sum of eigenvalues per atom                           :        -299.76440560 eV
  | Total energy (T->0) per atom                          :        -518.43409368 eV  <-- do not rely on this value for anything but (periodic) metals
  | Electronic free energy per atom                       :        -518.43409368 eV

  Self-consistency convergence accuracy:
  | Change of charge density      :  0.2324E+00
  | Change of sum of eigenvalues  : -0.6109E+01 eV
  | Change of total energy        :  0.2368E+01 eV

  End self-consistency iteration #     2       :  max(cpu_time)    wall_clock(cpu1)
  | Time for this iteration                    :        0.058 s           0.058 s
  | Charge density update                      :        0.011 s           0.011 s
  | Density mixing                             :        0.000 s           0.001 s
  | Hartree multipole update                   :        0.001 s           0.001 s
  | Hartree multipole summation                :        0.016 s           0.016 s
  | Integration                                :        0.028 s           0.029 s
  | Solution of K.-S. eqns.                    :        0.000 s           0.000 s
  | Total energy evaluation                    :        0.000 s           0.000 s

  Partial memory accounting:
  | Current value for overall tracked memory usage on task 0  :           0.018 MB
  | Peak value for overall tracked memory usage on task 0     :           0.083 MB after allocating wave
  | Largest tracked array allocation on task 0 so far         :           0.019 MB  when allocating H_times_psi
  Note:  These values currently only include a subset of arrays which are explicitly tracked.
  The "true" memory usage will be greater.
------------------------------------------------------------

------------------------------------------------------------
          Begin self-consistency iteration #    3

  Date     :  20190509, Time     :  114718.145
------------------------------------------------------------
  Evaluating new KS density.
  Integration grid: deviation in total charge (<rho> - N_e) =  -1.776357E-15
  Pulay mixing of updated and previous charge densities.

  Evaluating partitioned Hartree potential by multipole expansion.
  | Analytical far-field extrapolation by fixed multipoles:
  | Hartree multipole sum: apparent total charge =   0.853550E+00
  Summing up the Hartree potential.
  Time summed over all CPUs for potential: real work        0.017 s, elapsed        0.017 s
  | RMS charge density error from multipole expansion :   0.782874E-02

  Integrating Hamiltonian matrix: batch-based integration.
  Time summed over all CPUs for integration: real work        0.028 s, elapsed        0.028 s

  Updating Kohn-Sham eigenvalues, eigenvectors, occupation numbers, and Fermi level.
  Solving generalized eigenproblem
  Updating Kohn-Sham eigenvalues and eigenfunctions.
  Solving real generalised eigenvalue problem by standard LAPACK (fast)

  Obtaining occupation numbers and chemical potential using ELSI.
  | Chemical potential (Fermi level):   -11.61178074eV
  Highest occupied state (VBM) at    -18.15702027 eV
  | Occupation number:      2.00000000

  Lowest unoccupied state (CBM) at    -7.59454278 eV
  | Occupation number:      0.00000000

  Overall HOMO-LUMO gap:     10.56247750 eV.

  Total energy components:
  | Sum of eigenvalues            :         -45.45068206 Ha       -1236.77598530 eV
  | XC energy correction          :          -8.79534544 Ha        -239.33352664 eV
  | XC potential correction       :          11.58433079 Ha         315.22567929 eV
  | Free-atom electrostatic energy:         -35.29706720 Ha        -960.48206722 eV
  | Hartree energy correction     :           1.78254920 Ha          48.50563159 eV
  | Entropy correction            :          -0.00000000 Ha          -0.00000000 eV
  | ---------------------------
  | Total energy                  :         -76.17621471 Ha       -2072.86026827 eV
  | Total energy, T -> 0          :         -76.17621471 Ha       -2072.86026827 eV  <-- do not rely on this value for anything but (periodic) metals
  | Electronic free energy        :         -76.17621471 Ha       -2072.86026827 eV

  Derived energy quantities:
  | Kinetic energy                :          75.81906682 Ha        2063.14177958 eV
  | Electrostatic energy          :        -143.19993609 Ha       -3896.66852122 eV
  | Energy correction for multipole
  | error in Hartree potential    :           0.00574679 Ha           0.15637807 eV
  | Sum of eigenvalues per atom                           :        -309.19399632 eV
  | Total energy (T->0) per atom                          :        -518.21506707 eV  <-- do not rely on this value for anything but (periodic) metals
  | Electronic free energy per atom                       :        -518.21506707 eV

  Self-consistency convergence accuracy:
  | Change of charge density      :  0.1082E+00
  | Change of sum of eigenvalues  : -0.3772E+02 eV
  | Change of total energy        :  0.8761E+00 eV

  End self-consistency iteration #     3       :  max(cpu_time)    wall_clock(cpu1)
  | Time for this iteration                    :        0.059 s           0.059 s
  | Charge density update                      :        0.011 s           0.011 s
  | Density mixing                             :        0.000 s           0.001 s
  | Hartree multipole update                   :        0.002 s           0.001 s
  | Hartree multipole summation                :        0.017 s           0.017 s
  | Integration                                :        0.028 s           0.028 s
  | Solution of K.-S. eqns.                    :        0.000 s           0.000 s
  | Total energy evaluation                    :        0.000 s           0.000 s

  Partial memory accounting:
  | Current value for overall tracked memory usage on task 0  :           0.018 MB
  | Peak value for overall tracked memory usage on task 0     :           0.083 MB after allocating wave
  | Largest tracked array allocation on task 0 so far         :           0.019 MB  when allocating H_times_psi
  Note:  These values currently only include a subset of arrays which are explicitly tracked.
  The "true" memory usage will be greater.
------------------------------------------------------------

------------------------------------------------------------
          Begin self-consistency iteration #    4

  Date     :  20190509, Time     :  114718.204
------------------------------------------------------------
  Evaluating new KS density.
  Integration grid: deviation in total charge (<rho> - N_e) =   1.065814E-14
  Pulay mixing of updated and previous charge densities.

  Evaluating partitioned Hartree potential by multipole expansion.
  | Analytical far-field extrapolation by fixed multipoles:
  | Hartree multipole sum: apparent total charge =   0.100711E+01
  Summing up the Hartree potential.
  Time summed over all CPUs for potential: real work        0.016 s, elapsed        0.016 s
  | RMS charge density error from multipole expansion :   0.925405E-02

  Integrating Hamiltonian matrix: batch-based integration.
  Time summed over all CPUs for integration: real work        0.028 s, elapsed        0.028 s

  Updating Kohn-Sham eigenvalues, eigenvectors, occupation numbers, and Fermi level.
  Solving generalized eigenproblem
  Updating Kohn-Sham eigenvalues and eigenfunctions.
  Solving real generalised eigenvalue problem by standard LAPACK (fast)

  Obtaining occupation numbers and chemical potential using ELSI.
  | Chemical potential (Fermi level):   -12.32862783eV
  Highest occupied state (VBM) at    -18.92629229 eV
  | Occupation number:      2.00000000

  Lowest unoccupied state (CBM) at    -8.35846499 eV
  | Occupation number:      0.00000000

  Overall HOMO-LUMO gap:     10.56782730 eV.

  Total energy components:
  | Sum of eigenvalues            :         -45.73807862 Ha       -1244.59644367 eV
  | XC energy correction          :          -8.79145698 Ha        -239.22771629 eV
  | XC potential correction       :          11.57966584 Ha         315.09873958 eV
  | Free-atom electrostatic energy:         -35.29706720 Ha        -960.48206722 eV
  | Hartree energy correction     :           2.07305474 Ha          56.41068956 eV
  | Entropy correction            :          -0.00000000 Ha          -0.00000000 eV
  | ---------------------------
  | Total energy                  :         -76.17388222 Ha       -2072.79679803 eV
  | Total energy, T -> 0          :         -76.17388222 Ha       -2072.79679803 eV  <-- do not rely on this value for anything but (periodic) metals
  | Electronic free energy        :         -76.17388222 Ha       -2072.79679803 eV

  Derived energy quantities:
  | Kinetic energy                :          75.80081598 Ha        2062.64514908 eV
  | Electrostatic energy          :        -143.18324122 Ha       -3896.21423083 eV
  | Energy correction for multipole
  | error in Hartree potential    :           0.00666200 Ha           0.18128215 eV
  | Sum of eigenvalues per atom                           :        -311.14911092 eV
  | Total energy (T->0) per atom                          :        -518.19919951 eV  <-- do not rely on this value for anything but (periodic) metals
  | Electronic free energy per atom                       :        -518.19919951 eV

  Self-consistency convergence accuracy:
  | Change of charge density      :  0.4483E-01
  | Change of sum of eigenvalues  : -0.7820E+01 eV
  | Change of total energy        :  0.6347E-01 eV

  End self-consistency iteration #     4       :  max(cpu_time)    wall_clock(cpu1)
  | Time for this iteration                    :        0.058 s           0.058 s
  | Charge density update                      :        0.011 s           0.011 s
  | Density mixing                             :        0.000 s           0.000 s
  | Hartree multipole update                   :        0.001 s           0.002 s
  | Hartree multipole summation                :        0.016 s           0.016 s
  | Integration                                :        0.028 s           0.028 s
  | Solution of K.-S. eqns.                    :        0.000 s           0.000 s
  | Total energy evaluation                    :        0.000 s           0.000 s

  Partial memory accounting:
  | Current value for overall tracked memory usage on task 0  :           0.019 MB
  | Peak value for overall tracked memory usage on task 0     :           0.083 MB after allocating wave
  | Largest tracked array allocation on task 0 so far         :           0.019 MB  when allocating H_times_psi
  Note:  These values currently only include a subset of arrays which are explicitly tracked.
  The "true" memory usage will be greater.
------------------------------------------------------------

------------------------------------------------------------
          Begin self-consistency iteration #    5

  Date     :  20190509, Time     :  114718.262
------------------------------------------------------------
  Evaluating new KS density.
  Integration grid: deviation in total charge (<rho> - N_e) =  -5.329071E-15
  Pulay mixing of updated and previous charge densities.

  Evaluating partitioned Hartree potential by multipole expansion.
  | Analytical far-field extrapolation by fixed multipoles:
  | Hartree multipole sum: apparent total charge =   0.101051E+01
  Summing up the Hartree potential.
  Time summed over all CPUs for potential: real work        0.017 s, elapsed        0.017 s
  | RMS charge density error from multipole expansion :   0.935277E-02

  Integrating Hamiltonian matrix: batch-based integration.
  Time summed over all CPUs for integration: real work        0.029 s, elapsed        0.029 s

  Updating Kohn-Sham eigenvalues, eigenvectors, occupation numbers, and Fermi level.
  Solving generalized eigenproblem
  Updating Kohn-Sham eigenvalues and eigenfunctions.
  Solving real generalised eigenvalue problem by standard LAPACK (fast)

  Obtaining occupation numbers and chemical potential using ELSI.
  | Chemical potential (Fermi level):   -12.16771350eV
  Highest occupied state (VBM) at    -18.70848763 eV
  | Occupation number:      2.00000000

  Lowest unoccupied state (CBM) at    -8.23755626 eV
  | Occupation number:      0.00000000

  Overall HOMO-LUMO gap:     10.47093137 eV.

  Total energy components:
  | Sum of eigenvalues            :         -45.64376003 Ha       -1242.02990425 eV
  | XC energy correction          :          -8.80503107 Ha        -239.59708587 eV
  | XC potential correction       :          11.59754912 Ha         315.58536832 eV
  | Free-atom electrostatic energy:         -35.29706720 Ha        -960.48206722 eV
  | Hartree energy correction     :           1.97452705 Ha          53.72961486 eV
  | Entropy correction            :          -0.00000000 Ha          -0.00000000 eV
  | ---------------------------
  | Total energy                  :         -76.17378212 Ha       -2072.79407417 eV
  | Total energy, T -> 0          :         -76.17378212 Ha       -2072.79407417 eV  <-- do not rely on this value for anything but (periodic) metals
  | Electronic free energy        :         -76.17378212 Ha       -2072.79407417 eV

  Derived energy quantities:
  | Kinetic energy                :          75.84849703 Ha        2063.94261645 eV
  | Electrostatic energy          :        -143.21724809 Ha       -3897.13960475 eV
  | Energy correction for multipole
  | error in Hartree potential    :           0.00646078 Ha           0.17580677 eV
  | Sum of eigenvalues per atom                           :        -310.50747606 eV
  | Total energy (T->0) per atom                          :        -518.19851854 eV  <-- do not rely on this value for anything but (periodic) metals
  | Electronic free energy per atom                       :        -518.19851854 eV

  Self-consistency convergence accuracy:
  | Change of charge density      :  0.1072E-01
  | Change of sum of eigenvalues  :  0.2567E+01 eV
  | Change of total energy        :  0.2724E-02 eV

  End self-consistency iteration #     5       :  max(cpu_time)    wall_clock(cpu1)
  | Time for this iteration                    :        0.061 s           0.061 s
  | Charge density update                      :        0.012 s           0.011 s
  | Density mixing                             :        0.001 s           0.001 s
  | Hartree multipole update                   :        0.002 s           0.002 s
  | Hartree multipole summation                :        0.018 s           0.017 s
  | Integration                                :        0.029 s           0.029 s
  | Solution of K.-S. eqns.                    :        0.000 s           0.000 s
  | Total energy evaluation                    :        0.000 s           0.001 s

  Partial memory accounting:
  | Current value for overall tracked memory usage on task 0  :           0.019 MB
  | Peak value for overall tracked memory usage on task 0     :           0.083 MB after allocating wave
  | Largest tracked array allocation on task 0 so far         :           0.019 MB  when allocating H_times_psi
  Note:  These values currently only include a subset of arrays which are explicitly tracked.
  The "true" memory usage will be greater.
------------------------------------------------------------

------------------------------------------------------------
          Begin self-consistency iteration #    6

  Date     :  20190509, Time     :  114718.323
------------------------------------------------------------
  Evaluating new KS density.
  Integration grid: deviation in total charge (<rho> - N_e) =   1.421085E-14
  Pulay mixing of updated and previous charge densities.

  Evaluating partitioned Hartree potential by multipole expansion.
  | Analytical far-field extrapolation by fixed multipoles:
  | Hartree multipole sum: apparent total charge =   0.100144E+01
  Summing up the Hartree potential.
  Time summed over all CPUs for potential: real work        0.016 s, elapsed        0.016 s
  | RMS charge density error from multipole expansion :   0.925945E-02

  Integrating Hamiltonian matrix: batch-based integration.
  Time summed over all CPUs for integration: real work        0.028 s, elapsed        0.028 s

  Updating Kohn-Sham eigenvalues, eigenvectors, occupation numbers, and Fermi level.
  Solving generalized eigenproblem
  Updating Kohn-Sham eigenvalues and eigenfunctions.
  Solving real generalised eigenvalue problem by standard LAPACK (fast)

  Obtaining occupation numbers and chemical potential using ELSI.
  | Chemical potential (Fermi level):   -12.19732898eV
  Highest occupied state (VBM) at    -18.75858606 eV
  | Occupation number:      2.00000000

  Lowest unoccupied state (CBM) at    -8.23783870 eV
  | Occupation number:      0.00000000

  Overall HOMO-LUMO gap:     10.52074736 eV.

  Total energy components:
  | Sum of eigenvalues            :         -45.66919246 Ha       -1242.72195573 eV
  | XC energy correction          :          -8.79983788 Ha        -239.45577205 eV
  | XC potential correction       :          11.59066740 Ha         315.39810720 eV
  | Free-atom electrostatic energy:         -35.29706720 Ha        -960.48206722 eV
  | Hartree energy correction     :           2.00167135 Ha          54.46824882 eV
  | Entropy correction            :          -0.00000000 Ha          -0.00000000 eV
  | ---------------------------
  | Total energy                  :         -76.17375878 Ha       -2072.79343897 eV
  | Total energy, T -> 0          :         -76.17375878 Ha       -2072.79343897 eV  <-- do not rely on this value for anything but (periodic) metals
  | Electronic free energy        :         -76.17375878 Ha       -2072.79343897 eV

  Derived energy quantities:
  | Kinetic energy                :          75.81804722 Ha        2063.11403499 eV
  | Electrostatic energy          :        -143.19196812 Ha       -3896.45170191 eV
  | Energy correction for multipole
  | error in Hartree potential    :           0.00635486 Ha           0.17292463 eV
  | Sum of eigenvalues per atom                           :        -310.68048893 eV
  | Total energy (T->0) per atom                          :        -518.19835974 eV  <-- do not rely on this value for anything but (periodic) metals
  | Electronic free energy per atom                       :        -518.19835974 eV

  Self-consistency convergence accuracy:
  | Change of charge density      :  0.7276E-02
  | Change of sum of eigenvalues  : -0.6921E+00 eV
  | Change of total energy        :  0.6352E-03 eV

  End self-consistency iteration #     6       :  max(cpu_time)    wall_clock(cpu1)
  | Time for this iteration                    :        0.058 s           0.058 s
  | Charge density update                      :        0.011 s           0.011 s
  | Density mixing                             :        0.001 s           0.000 s
  | Hartree multipole update                   :        0.001 s           0.002 s
  | Hartree multipole summation                :        0.016 s           0.016 s
  | Integration                                :        0.028 s           0.028 s
  | Solution of K.-S. eqns.                    :        0.000 s           0.000 s
  | Total energy evaluation                    :        0.000 s           0.001 s

  Partial memory accounting:
  | Current value for overall tracked memory usage on task 0  :           0.019 MB
  | Peak value for overall tracked memory usage on task 0     :           0.084 MB after allocating wave
  | Largest tracked array allocation on task 0 so far         :           0.019 MB  when allocating H_times_psi
  Note:  These values currently only include a subset of arrays which are explicitly tracked.
  The "true" memory usage will be greater.
------------------------------------------------------------

------------------------------------------------------------
          Begin self-consistency iteration #    7

  Date     :  20190509, Time     :  114718.381
------------------------------------------------------------
  Evaluating new KS density.
  Integration grid: deviation in total charge (<rho> - N_e) =  -2.842171E-14
  Pulay mixing of updated and previous charge densities.

  Evaluating partitioned Hartree potential by multipole expansion.
  | Analytical far-field extrapolation by fixed multipoles:
  | Hartree multipole sum: apparent total charge =   0.999108E+00
  Summing up the Hartree potential.
  Time summed over all CPUs for potential: real work        0.017 s, elapsed        0.017 s
  | RMS charge density error from multipole expansion :   0.925335E-02

  Integrating Hamiltonian matrix: batch-based integration.
  Time summed over all CPUs for integration: real work        0.028 s, elapsed        0.028 s

  Updating Kohn-Sham eigenvalues, eigenvectors, occupation numbers, and Fermi level.
  Solving generalized eigenproblem
  Updating Kohn-Sham eigenvalues and eigenfunctions.
  Solving real generalised eigenvalue problem by standard LAPACK (fast)

  Obtaining occupation numbers and chemical potential using ELSI.
  | Chemical potential (Fermi level):   -12.14505992eV
  Highest occupied state (VBM) at    -18.67933653 eV
  | Occupation number:      2.00000000

  Lowest unoccupied state (CBM) at    -8.19381991 eV
  | Occupation number:      0.00000000

  Overall HOMO-LUMO gap:     10.48551662 eV.

  Total energy components:
  | Sum of eigenvalues            :         -45.63876558 Ha       -1241.89399825 eV
  | XC energy correction          :          -8.80337816 Ha        -239.55210810 eV
  | XC potential correction       :          11.59531919 Ha         315.52468894 eV
  | Free-atom electrostatic energy:         -35.29706720 Ha        -960.48206722 eV
  | Hartree energy correction     :           1.97014759 Ha          53.61044356 eV
  | Entropy correction            :          -0.00000000 Ha          -0.00000000 eV
  | ---------------------------
  | Total energy                  :         -76.17374416 Ha       -2072.79304107 eV
  | Total energy, T -> 0          :         -76.17374416 Ha       -2072.79304107 eV  <-- do not rely on this value for anything but (periodic) metals
  | Electronic free energy        :         -76.17374416 Ha       -2072.79304107 eV

  Derived energy quantities:
  | Kinetic energy                :          75.82776100 Ha        2063.37836046 eV
  | Electrostatic energy          :        -143.19812700 Ha       -3896.61929343 eV
  | Energy correction for multipole
  | error in Hartree potential    :           0.00624504 Ha           0.16993625 eV
  | Sum of eigenvalues per atom                           :        -310.47349956 eV
  | Total energy (T->0) per atom                          :        -518.19826027 eV  <-- do not rely on this value for anything but (periodic) metals
  | Electronic free energy per atom                       :        -518.19826027 eV

  Self-consistency convergence accuracy:
  | Change of charge density      :  0.3743E-02
  | Change of sum of eigenvalues  :  0.8280E+00 eV
  | Change of total energy        :  0.3979E-03 eV

  End self-consistency iteration #     7       :  max(cpu_time)    wall_clock(cpu1)
  | Time for this iteration                    :        0.059 s           0.058 s
  | Charge density update                      :        0.011 s           0.011 s
  | Density mixing                             :        0.001 s           0.001 s
  | Hartree multipole update                   :        0.001 s           0.001 s
  | Hartree multipole summation                :        0.017 s           0.017 s
  | Integration                                :        0.028 s           0.028 s
  | Solution of K.-S. eqns.                    :        0.000 s           0.000 s
  | Total energy evaluation                    :        0.000 s           0.000 s

  Partial memory accounting:
  | Current value for overall tracked memory usage on task 0  :           0.019 MB
  | Peak value for overall tracked memory usage on task 0     :           0.084 MB after allocating wave
  | Largest tracked array allocation on task 0 so far         :           0.019 MB  when allocating H_times_psi
  Note:  These values currently only include a subset of arrays which are explicitly tracked.
  The "true" memory usage will be greater.
------------------------------------------------------------

------------------------------------------------------------
          Begin self-consistency iteration #    8

  Date     :  20190509, Time     :  114718.439
------------------------------------------------------------
  Evaluating new KS density.
  Integration grid: deviation in total charge (<rho> - N_e) =  -1.065814E-14
  Pulay mixing of updated and previous charge densities.

  Evaluating partitioned Hartree potential by multipole expansion.
  | Analytical far-field extrapolation by fixed multipoles:
  | Hartree multipole sum: apparent total charge =   0.999325E+00
  Summing up the Hartree potential.
  Time summed over all CPUs for potential: real work        0.017 s, elapsed        0.017 s
  | RMS charge density error from multipole expansion :   0.925651E-02

  Integrating Hamiltonian matrix: batch-based integration.
  Time summed over all CPUs for integration: real work        0.028 s, elapsed        0.028 s

  Updating Kohn-Sham eigenvalues, eigenvectors, occupation numbers, and Fermi level.
  Solving generalized eigenproblem
  Updating Kohn-Sham eigenvalues and eigenfunctions.
  Solving real generalised eigenvalue problem by standard LAPACK (fast)

  Obtaining occupation numbers and chemical potential using ELSI.
  | Chemical potential (Fermi level):   -12.14101794eV
  Highest occupied state (VBM) at    -18.67362850 eV
  | Occupation number:      2.00000000

  Lowest unoccupied state (CBM) at    -8.19084673 eV
  | Occupation number:      0.00000000

  Overall HOMO-LUMO gap:     10.48278177 eV.

  Total energy components:
  | Sum of eigenvalues            :         -45.63665489 Ha       -1241.83656337 eV
  | XC energy correction          :          -8.80371505 Ha        -239.56127529 eV
  | XC potential correction       :          11.59576258 Ha         315.53675420 eV
  | Free-atom electrostatic energy:         -35.29706720 Ha        -960.48206722 eV
  | Hartree energy correction     :           1.96793058 Ha          53.55011564 eV
  | Entropy correction            :          -0.00000000 Ha          -0.00000000 eV
  | ---------------------------
  | Total energy                  :         -76.17374397 Ha       -2072.79303604 eV
  | Total energy, T -> 0          :         -76.17374397 Ha       -2072.79303604 eV  <-- do not rely on this value for anything but (periodic) metals
  | Electronic free energy        :         -76.17374397 Ha       -2072.79303604 eV

  Derived energy quantities:
  | Kinetic energy                :          75.82822103 Ha        2063.39087827 eV
  | Electrostatic energy          :        -143.19824995 Ha       -3896.62263902 eV
  | Energy correction for multipole
  | error in Hartree potential    :           0.00623063 Ha           0.16954410 eV
  | Sum of eigenvalues per atom                           :        -310.45914084 eV
  | Total energy (T->0) per atom                          :        -518.19825901 eV  <-- do not rely on this value for anything but (periodic) metals
  | Electronic free energy per atom                       :        -518.19825901 eV

  Self-consistency convergence accuracy:
  | Change of charge density      :  0.5253E-03
  | Change of sum of eigenvalues  :  0.5743E-01 eV
  | Change of total energy        :  0.5023E-05 eV

  End self-consistency iteration #     8       :  max(cpu_time)    wall_clock(cpu1)
  | Time for this iteration                    :        0.059 s           0.059 s
  | Charge density update                      :        0.011 s           0.011 s
  | Density mixing                             :        0.001 s           0.001 s
  | Hartree multipole update                   :        0.001 s           0.001 s
  | Hartree multipole summation                :        0.017 s           0.017 s
  | Integration                                :        0.028 s           0.028 s
  | Solution of K.-S. eqns.                    :        0.000 s           0.000 s
  | Total energy evaluation                    :        0.000 s           0.000 s

  Partial memory accounting:
  | Current value for overall tracked memory usage on task 0  :           0.020 MB
  | Peak value for overall tracked memory usage on task 0     :           0.084 MB after allocating wave
  | Largest tracked array allocation on task 0 so far         :           0.019 MB  when allocating H_times_psi
  Note:  These values currently only include a subset of arrays which are explicitly tracked.
  The "true" memory usage will be greater.
------------------------------------------------------------

------------------------------------------------------------
          Begin self-consistency iteration #    9

  Date     :  20190509, Time     :  114718.499
------------------------------------------------------------
  Evaluating new KS density.
  Integration grid: deviation in total charge (<rho> - N_e) =   2.486900E-14
  Pulay mixing of updated and previous charge densities.

  Evaluating partitioned Hartree potential by multipole expansion.
  | Analytical far-field extrapolation by fixed multipoles:
  | Hartree multipole sum: apparent total charge =   0.999549E+00
  Summing up the Hartree potential.
  Time summed over all CPUs for potential: real work        0.017 s, elapsed        0.017 s
  | RMS charge density error from multipole expansion :   0.925677E-02

  Integrating Hamiltonian matrix: batch-based integration.
  Time summed over all CPUs for integration: real work        0.030 s, elapsed        0.030 s

  Updating Kohn-Sham eigenvalues, eigenvectors, occupation numbers, and Fermi level.
  Solving generalized eigenproblem
  Updating Kohn-Sham eigenvalues and eigenfunctions.
  Solving real generalised eigenvalue problem by standard LAPACK (fast)

  Obtaining occupation numbers and chemical potential using ELSI.
  | Chemical potential (Fermi level):   -12.14012188eV
  Highest occupied state (VBM) at    -18.67257625 eV
  | Occupation number:      2.00000000

  Lowest unoccupied state (CBM) at    -8.19024238 eV
  | Occupation number:      0.00000000

  Overall HOMO-LUMO gap:     10.48233387 eV.

  Total energy components:
  | Sum of eigenvalues            :         -45.63658474 Ha       -1241.83465471 eV
  | XC energy correction          :          -8.80376378 Ha        -239.56260134 eV
  | XC potential correction       :          11.59582629 Ha         315.53848780 eV
  | Free-atom electrostatic energy:         -35.29706720 Ha        -960.48206722 eV
  | Hartree energy correction     :           1.96784578 Ha          53.54780808 eV
  | Entropy correction            :          -0.00000000 Ha          -0.00000000 eV
  | ---------------------------
  | Total energy                  :         -76.17374365 Ha       -2072.79302738 eV
  | Total energy, T -> 0          :         -76.17374365 Ha       -2072.79302738 eV  <-- do not rely on this value for anything but (periodic) metals
  | Electronic free energy        :         -76.17374365 Ha       -2072.79302738 eV

  Derived energy quantities:
  | Kinetic energy                :          75.82740339 Ha        2063.36862937 eV
  | Electrostatic energy          :        -143.19738326 Ha       -3896.59905541 eV
  | Energy correction for multipole
  | error in Hartree potential    :           0.00621406 Ha           0.16909313 eV
  | Sum of eigenvalues per atom                           :        -310.45866368 eV
  | Total energy (T->0) per atom                          :        -518.19825684 eV  <-- do not rely on this value for anything but (periodic) metals
  | Electronic free energy per atom                       :        -518.19825684 eV

  Self-consistency convergence accuracy:
  | Change of charge density      :  0.2096E-03
  | Change of sum of eigenvalues  :  0.1909E-02 eV
  | Change of total energy        :  0.8666E-05 eV

  End self-consistency iteration #     9       :  max(cpu_time)    wall_clock(cpu1)
  | Time for this iteration                    :        0.062 s           0.061 s
  | Charge density update                      :        0.012 s           0.012 s
  | Density mixing                             :        0.001 s           0.000 s
  | Hartree multipole update                   :        0.002 s           0.002 s
  | Hartree multipole summation                :        0.017 s           0.017 s
  | Integration                                :        0.030 s           0.030 s
  | Solution of K.-S. eqns.                    :        0.000 s           0.000 s
  | Total energy evaluation                    :        0.000 s           0.000 s

  Partial memory accounting:
  | Current value for overall tracked memory usage on task 0  :           0.020 MB
  | Peak value for overall tracked memory usage on task 0     :           0.085 MB after allocating wave
  | Largest tracked array allocation on task 0 so far         :           0.019 MB  when allocating H_times_psi
  Note:  These values currently only include a subset of arrays which are explicitly tracked.
  The "true" memory usage will be greater.
------------------------------------------------------------

------------------------------------------------------------
          Begin self-consistency iteration #   10

  Date     :  20190509, Time     :  114718.560
------------------------------------------------------------
  Evaluating new KS density.
  Integration grid: deviation in total charge (<rho> - N_e) =  -1.776357E-14
  Pulay mixing of updated and previous charge densities.

  Evaluating partitioned Hartree potential by multipole expansion.
  | Analytical far-field extrapolation by fixed multipoles:
  | Hartree multipole sum: apparent total charge =   0.999556E+00
  Summing up the Hartree potential.
  Time summed over all CPUs for potential: real work        0.017 s, elapsed        0.017 s
  | RMS charge density error from multipole expansion :   0.925688E-02

  Integrating Hamiltonian matrix: batch-based integration.
  Time summed over all CPUs for integration: real work        0.028 s, elapsed        0.028 s

  Updating Kohn-Sham eigenvalues, eigenvectors, occupation numbers, and Fermi level.
  Solving generalized eigenproblem
  Updating Kohn-Sham eigenvalues and eigenfunctions.
  Solving real generalised eigenvalue problem by standard LAPACK (fast)

  Obtaining occupation numbers and chemical potential using ELSI.
  | Chemical potential (Fermi level):   -12.14020045eV
  Highest occupied state (VBM) at    -18.67278114 eV
  | Occupation number:      2.00000000

  Lowest unoccupied state (CBM) at    -8.19030005 eV
  | Occupation number:      0.00000000

  Overall HOMO-LUMO gap:     10.48248109 eV.

  Total energy components:
  | Sum of eigenvalues            :         -45.63667815 Ha       -1241.83719634 eV
  | XC energy correction          :          -8.80375437 Ha        -239.56234533 eV
  | XC potential correction       :          11.59581387 Ha         315.53814977 eV
  | Free-atom electrostatic energy:         -35.29706720 Ha        -960.48206722 eV
  | Hartree energy correction     :           1.96794220 Ha          53.55043193 eV
  | Entropy correction            :          -0.00000000 Ha          -0.00000000 eV
  | ---------------------------
  | Total energy                  :         -76.17374365 Ha       -2072.79302719 eV
  | Total energy, T -> 0          :         -76.17374365 Ha       -2072.79302719 eV  <-- do not rely on this value for anything but (periodic) metals
  | Electronic free energy        :         -76.17374365 Ha       -2072.79302719 eV

  Derived energy quantities:
  | Kinetic energy                :          75.82734590 Ha        2063.36706497 eV
  | Electrostatic energy          :        -143.19733518 Ha       -3896.59774684 eV
  | Energy correction for multipole
  | error in Hartree potential    :           0.00621378 Ha           0.16908554 eV
  | Sum of eigenvalues per atom                           :        -310.45929908 eV
  | Total energy (T->0) per atom                          :        -518.19825680 eV  <-- do not rely on this value for anything but (periodic) metals
  | Electronic free energy per atom                       :        -518.19825680 eV

  Self-consistency convergence accuracy:
  | Change of charge density      :  0.2320E-04
  | Change of sum of eigenvalues  : -0.2542E-02 eV
  | Change of total energy        :  0.1898E-06 eV

  End self-consistency iteration #    10       :  max(cpu_time)    wall_clock(cpu1)
  | Time for this iteration                    :        0.059 s           0.060 s
  | Charge density update                      :        0.011 s           0.012 s
  | Density mixing                             :        0.001 s           0.001 s
  | Hartree multipole update                   :        0.001 s           0.001 s
  | Hartree multipole summation                :        0.017 s           0.017 s
  | Integration                                :        0.028 s           0.028 s
  | Solution of K.-S. eqns.                    :        0.000 s           0.000 s
  | Total energy evaluation                    :        0.000 s           0.000 s

  Partial memory accounting:
  | Current value for overall tracked memory usage on task 0  :           0.020 MB
  | Peak value for overall tracked memory usage on task 0     :           0.085 MB after allocating wave
  | Largest tracked array allocation on task 0 so far         :           0.019 MB  when allocating H_times_psi
  Note:  These values currently only include a subset of arrays which are explicitly tracked.
  The "true" memory usage will be greater.
------------------------------------------------------------

------------------------------------------------------------
          Begin self-consistency iteration #   11

  Date     :  20190509, Time     :  114718.620
------------------------------------------------------------
  Evaluating new KS density.
  Integration grid: deviation in total charge (<rho> - N_e) =  -7.105427E-15
  Pulay mixing of updated and previous charge densities.

  Evaluating partitioned Hartree potential by multipole expansion.
  | Analytical far-field extrapolation by fixed multipoles:
  | Hartree multipole sum: apparent total charge =   0.999566E+00
  Summing up the Hartree potential.
  Time summed over all CPUs for potential: real work        0.017 s, elapsed        0.017 s
  | RMS charge density error from multipole expansion :   0.925691E-02

  Integrating Hamiltonian matrix: batch-based integration.
  Time summed over all CPUs for integration: real work        0.028 s, elapsed        0.028 s

  Updating Kohn-Sham eigenvalues, eigenvectors, occupation numbers, and Fermi level.
  Solving generalized eigenproblem
  Updating Kohn-Sham eigenvalues and eigenfunctions.
  Solving real generalised eigenvalue problem by standard LAPACK (fast)

  Obtaining occupation numbers and chemical potential using ELSI.
  | Chemical potential (Fermi level):   -12.14021146eV
  Highest occupied state (VBM) at    -18.67281656 eV
  | Occupation number:      2.00000000

  Lowest unoccupied state (CBM) at    -8.19031458 eV
  | Occupation number:      0.00000000

  Overall HOMO-LUMO gap:     10.48250198 eV.

  Total energy components:
  | Sum of eigenvalues            :         -45.63670224 Ha       -1241.83785184 eV
  | XC energy correction          :          -8.80375314 Ha        -239.56231177 eV
  | XC potential correction       :          11.59581224 Ha         315.53810540 eV
  | Free-atom electrostatic energy:         -35.29706720 Ha        -960.48206722 eV
  | Hartree energy correction     :           1.96796670 Ha          53.55109850 eV
  | Entropy correction            :          -0.00000000 Ha          -0.00000000 eV
  | ---------------------------
[...]
  | Largest tracked array allocation on task 0 so far         :           0.019 MB  when allocating H_times_psi
  Note:  These values currently only include a subset of arrays which are explicitly tracked.
  The "true" memory usage will be greater.
------------------------------------------------------------

------------------------------------------------------------
          Begin self-consistency iteration #   12

  Date     :  20190509, Time     :  114718.679
------------------------------------------------------------
  Evaluating new KS density.
  Integration grid: deviation in total charge (<rho> - N_e) =  -7.105427E-15
  Pulay mixing of updated and previous charge densities.

  Evaluating partitioned Hartree potential by multipole expansion.
  | Analytical far-field extrapolation by fixed multipoles:
  | Hartree multipole sum: apparent total charge =   0.999566E+00
  Summing up the Hartree potential.
  Time summed over all CPUs for potential: real work        0.017 s, elapsed        0.017 s
  | RMS charge density error from multipole expansion :   0.925692E-02

  Integrating Hamiltonian matrix: batch-based integration.
  Time summed over all CPUs for integration: real work        0.028 s, elapsed        0.028 s

  Updating Kohn-Sham eigenvalues, eigenvectors, occupation numbers, and Fermi level.
  Solving generalized eigenproblem
  Updating Kohn-Sham eigenvalues and eigenfunctions.
  Solving real generalised eigenvalue problem by standard LAPACK (fast)

  Obtaining occupation numbers and chemical potential using ELSI.
  | Chemical potential (Fermi level):   -12.14020660eV
  Highest occupied state (VBM) at    -18.67281093 eV
  | Occupation number:      2.00000000

  Lowest unoccupied state (CBM) at    -8.19031185 eV
  | Occupation number:      0.00000000

  Overall HOMO-LUMO gap:     10.48249908 eV.

  Total energy components:
  | Sum of eigenvalues            :         -45.63669936 Ha       -1241.83777370 eV
  | XC energy correction          :          -8.80375364 Ha        -239.56232531 eV
  | XC potential correction       :          11.59581289 Ha         315.53812327 eV
  | Free-atom electrostatic energy:         -35.29706720 Ha        -960.48206722 eV
  | Hartree energy correction     :           1.96796367 Ha          53.55101601 eV
  | Entropy correction            :          -0.00000000 Ha          -0.00000000 eV
  | ---------------------------
  | Total energy                  :         -76.17374364 Ha       -2072.79302694 eV
  | Total energy, T -> 0          :         -76.17374364 Ha       -2072.79302694 eV  <-- do not rely on this value for anything but (periodic) metals
  | Electronic free energy        :         -76.17374364 Ha       -2072.79302694 eV

  Derived energy quantities:
  | Kinetic energy                :          75.82731490 Ha        2063.36622127 eV
  | Electrostatic energy          :        -143.19730490 Ha       -3896.59692291 eV
  | Energy correction for multipole
  | error in Hartree potential    :           0.00621333 Ha           0.16907326 eV
  | Sum of eigenvalues per atom                           :        -310.45944343 eV
  | Total energy (T->0) per atom                          :        -518.19825674 eV  <-- do not rely on this value for anything but (periodic) metals
  | Electronic free energy per atom                       :        -518.19825674 eV

  Self-consistency convergence accuracy:
  | Change of charge density      :  0.6937E-06
  | Change of sum of eigenvalues  :  0.7814E-04 eV
  | Change of total energy        : -0.2388E-07 eV

  Electronic self-consistency reached - switching on the force computation.

  End self-consistency iteration #    12       :  max(cpu_time)    wall_clock(cpu1)
  | Time for this iteration                    :        0.061 s           0.061 s
  | Charge density & force component update    :        0.012 s           0.012 s
  | Density mixing                             :        0.001 s           0.001 s
  | Hartree multipole update                   :        0.001 s           0.002 s
  | Hartree multipole summation                :        0.018 s           0.017 s
  | Integration                                :        0.028 s           0.028 s
  | Solution of K.-S. eqns.                    :        0.000 s           0.000 s
  | Total energy evaluation                    :        0.000 s           0.000 s

  Partial memory accounting:
  | Current value for overall tracked memory usage on task 0  :           0.020 MB
  | Peak value for overall tracked memory usage on task 0     :           0.085 MB after allocating wave
  | Largest tracked array allocation on task 0 so far         :           0.019 MB  when allocating H_times_psi
  Note:  These values currently only include a subset of arrays which are explicitly tracked.
  The "true" memory usage will be greater.
------------------------------------------------------------

------------------------------------------------------------
          Begin self-consistency iteration #   13

  Date     :  20190509, Time     :  114718.740
------------------------------------------------------------
  Evaluating new KS density and force components.
  Integration grid: deviation in total charge (<rho> - N_e) =  -3.552714E-15
  Pulay mixing of updated and previous charge densities.

  Evaluating partitioned Hartree potential by multipole expansion.
  | Analytical far-field extrapolation by fixed multipoles:
  | Hartree multipole sum: apparent total charge =   0.999566E+00
  Summing up the Hartree potential.
  Time summed over all CPUs for potential: real work        0.051 s, elapsed        0.051 s
  | RMS charge density error from multipole expansion :   0.925692E-02

  Integrating Hamiltonian matrix: batch-based integration.
  Time summed over all CPUs for integration: real work        0.029 s, elapsed        0.029 s

  Updating Kohn-Sham eigenvalues, eigenvectors, occupation numbers, and Fermi level.
  Solving generalized eigenproblem
  Updating Kohn-Sham eigenvalues and eigenfunctions.
  Solving real generalised eigenvalue problem by standard LAPACK (fast)

  Obtaining occupation numbers and chemical potential using ELSI.
  | Chemical potential (Fermi level):   -12.14020622eV
  Highest occupied state (VBM) at    -18.67281035 eV
  | Occupation number:      2.00000000

  Lowest unoccupied state (CBM) at    -8.19031156 eV
  | Occupation number:      0.00000000

  Overall HOMO-LUMO gap:     10.48249879 eV.

  Total energy components:
  | Sum of eigenvalues            :         -45.63669909 Ha       -1241.83776638 eV
  | XC energy correction          :          -8.80375367 Ha        -239.56232621 eV
  | XC potential correction       :          11.59581294 Ha         315.53812446 eV
  | Free-atom electrostatic energy:         -35.29706720 Ha        -960.48206722 eV
  | Hartree energy correction     :           1.96796339 Ha          53.55100841 eV
  | Entropy correction            :          -0.00000000 Ha          -0.00000000 eV
  | ---------------------------
  | Total energy                  :         -76.17374364 Ha       -2072.79302694 eV
  | Total energy, T -> 0          :         -76.17374364 Ha       -2072.79302694 eV  <-- do not rely on this value for anything but (periodic) metals
  | Electronic free energy        :         -76.17374364 Ha       -2072.79302694 eV

  Derived energy quantities:
  | Kinetic energy                :          75.82731509 Ha        2063.36622640 eV
  | Electrostatic energy          :        -143.19730505 Ha       -3896.59692713 eV
  | Energy correction for multipole
  | error in Hartree potential    :           0.00621333 Ha           0.16907328 eV
  | Sum of eigenvalues per atom                           :        -310.45944160 eV
  | Total energy (T->0) per atom                          :        -518.19825674 eV  <-- do not rely on this value for anything but (periodic) metals
  | Electronic free energy per atom                       :        -518.19825674 eV

  atomic forces [eV/Ang]:
  -----------------------
  atom #    1
   Hellmann-Feynman              : -0.117156E-01  0.140296E-02 -0.883506E+01
   Ionic forces                  :  0.000000E+00  0.000000E+00  0.000000E+00
   Multipole                     :  0.214090E-02  0.230238E-04 -0.325368E+00
   Pulay                         : -0.464956E-02 -0.572546E-03  0.916031E+01
   ----------------------------------------------------------------
   Total forces(   1)            : -0.142243E-01  0.853436E-03 -0.125077E-03
  atom #    2
   Hellmann-Feynman              :  0.208850E+00 -0.114713E+00  0.136662E+00
   Ionic forces                  :  0.000000E+00  0.000000E+00  0.000000E+00
   Multipole                     :  0.499361E-01 -0.288571E-01  0.629137E-01
   Pulay                         : -0.257395E+00  0.148866E+00 -0.196382E+00
   ----------------------------------------------------------------
   Total forces(   2)            :  0.139104E-02  0.529606E-02  0.319345E-02
  atom #    3
   Hellmann-Feynman              : -0.205953E+00 -0.125500E+00  0.132136E+00
   Ionic forces                  :  0.000000E+00  0.000000E+00  0.000000E+00
   Multipole                     : -0.497947E-01 -0.287138E-01  0.626300E-01
   Pulay                         :  0.257434E+00  0.148417E+00 -0.196452E+00
   ----------------------------------------------------------------
   Total forces(   3)            :  0.168596E-02 -0.579650E-02 -0.168546E-02
  atom #    4
   Hellmann-Feynman              :  0.102892E-01  0.239437E+00  0.134260E+00
   Ionic forces                  :  0.000000E+00  0.000000E+00  0.000000E+00
   Multipole                     : -0.173348E-03  0.575293E-01  0.627248E-01
   Pulay                         :  0.103106E-02 -0.297156E+00 -0.196448E+00
   ----------------------------------------------------------------
   Total forces(   4)            :  0.111469E-01 -0.190115E-03  0.537112E-03


  Self-consistency convergence accuracy:
  | Change of charge density      :  0.3583E-07
  | Change of sum of eigenvalues  :  0.7318E-05 eV
  | Change of total energy        : -0.1282E-08 eV
  | Change of forces              :  0.4591E+01 eV/A

  Writing Kohn-Sham eigenvalues.

  State    Occupation    Eigenvalue [Ha]    Eigenvalue [eV]
      1       2.00000         -19.024223         -517.67545
      2       2.00000          -1.348550          -36.69591
      3       2.00000          -0.879887          -23.94294
      4       2.00000          -0.879476          -23.93176
      5       2.00000          -0.686213          -18.67281
      6       0.00000          -0.300988           -8.19031
      7       0.00000          -0.207098           -5.63542
      8       0.00000          -0.206963           -5.63174
      9       0.00000           0.016564            0.45074
     10       0.00000           0.052281            1.42264
     11       0.00000           0.052626            1.43204
     12       0.00000           0.240611            6.54735
     13       0.00000           0.467532           12.72218

  Highest occupied state (VBM) at    -18.67281035 eV
  | Occupation number:      2.00000000

  Lowest unoccupied state (CBM) at    -8.19031156 eV
  | Occupation number:      0.00000000

  Overall HOMO-LUMO gap:     10.48249879 eV.

  Self-consistency cycle converged.

  End self-consistency iteration #    13       :  max(cpu_time)    wall_clock(cpu1)
  | Time for this iteration                    :        0.124 s           0.123 s
  | Charge density & force component update    :        0.040 s           0.040 s
  | Density mixing                             :        0.001 s           0.001 s
  | Hartree multipole update                   :        0.001 s           0.002 s
  | Hartree multipole summation                :        0.052 s           0.051 s
  | Integration                                :        0.029 s           0.029 s
  | Solution of K.-S. eqns.                    :        0.000 s           0.000 s
  | Total energy evaluation                    :        0.000 s           0.000 s

  Partial memory accounting:
  | Current value for overall tracked memory usage on task 0  :           0.020 MB
  | Peak value for overall tracked memory usage on task 0     :           0.116 MB after allocating h_times_wave
  | Largest tracked array allocation on task 0 so far         :           0.058 MB  when allocating gradient_basis_wave
  Note:  These values currently only include a subset of arrays which are explicitly tracked.
  The "true" memory usage will be greater.
------------------------------------------------------------
  ------------------------------------------------------------
   Computing monopole / dipole moments for complete molecule:
  | Total electronic charge [e]         :          0.100000000091293E+02
  | Total ionic charge [e]              :          0.110000000000000E+02
  | Total charge [e]                    :          0.999999990870673E+00
 * Warning: The system has a total charge of      0.99999999 .
 * The dipole moment depends on the choice of the origin.
  | Total dipole moment [eAng]          :         -0.735474050038104E-03        -0.209328396459302E-04         0.587647365030101E+00
  | Absolute dipole moment              :          0.587647825646520E+00 eAng              /                   0.282215290154254E+01 Debye  .
  Removing unitary transformations (pure translations, rotations) from forces on atoms.
  Atomic forces before filtering:
  | Net force on center of mass :  -0.349123E-06  0.162881E-03  0.192003E-02 eV/A
  | Net torque on center of mass:   0.239979E-04  0.132559E-04 -0.721643E-06 eV
  Atomic forces after filtering:
  | Net force on center of mass :  -0.139380E-17 -0.522674E-18 -0.174225E-18 eV/A
  | Net torque on center of mass:   0.662657E-19  0.127511E-17 -0.295026E-17 eV

  Energy and forces in a compact form:
  | Total energy uncorrected      :         -0.207279302694267E+04 eV
  | Total energy corrected        :         -0.207279302694267E+04 eV  <-- do not rely on this value for anything but (periodic) metals
  | Electronic free energy        :         -0.207279302694267E+04 eV
  Total atomic forces (unitary forces cleaned) [eV/Ang]:
  |   1         -0.142221980923811E-01          0.809121690614201E-03         -0.605080299966164E-03
  |   2          0.139059813902063E-02          0.525675536820003E-02          0.272917502745853E-02
  |   3          0.168551671331279E-02         -0.583624196267962E-02         -0.216510223665742E-02
  |   4          0.111460832400477E-01         -0.229635096134615E-03          0.410075091650465E-04

  ------------------------------------ 
  Start decomposition of the XC Energy 
  ------------------------------------ 
  X and C from original XC functional choice 
  Hartree-Fock Energy :          0.000000000 Ha              0.000000000 eV
  X Energy            :         -8.140123989 Ha           -221.504043743 eV
  C Energy            :         -0.663629683 Ha            -18.058282469 eV
  Total XC Energy     :         -8.803753672 Ha           -239.562326212 eV
  ------------------------------------ 
  LDA X and C from self-consistent density 
  X Energy LDA        :         -8.140123989 Ha           -221.504043743 eV
  C Energy LDA        :         -0.663629683 Ha            -18.058282469 eV
  ------------------------------------ 
  End decomposition of the XC Energy 
  ------------------------------------ 

------------------------------------------------------------

------------------------------------------------------------------------------
  Final output of selected total energy values:

  The following output summarizes some interesting total energy values
  at the end of a run (AFTER all relaxation, molecular dynamics, etc.).

  | Total energy of the DFT / Hartree-Fock s.c.f. calculation      :          -2072.793026943 eV
  | Final zero-broadening corrected energy (caution - metals only) :          -2072.793026943 eV
  | For reference only, the value of 1 Hartree used in FHI-aims is :             27.211384500 eV

  Before relying on these values, please be sure to understand exactly which
  total energy value is referred to by a given number. Different objects may
  all carry the same name 'total energy'. Definitions:

  Total energy of the DFT / Hartree-Fock s.c.f. calculation:
  | Note that this energy does not include ANY quantities calculated after the
  | s.c.f. cycle, in particular not ANY RPA, MP2, etc. many-body perturbation terms.

  Final zero-broadening corrected energy:
  | For metallic systems only, a broadening of the occupation numbers at the Fermi
  | level can be extrapolated back to zero broadening by an electron-gas inspired
  | formula. For all systems that are not real metals, this value can be
  | meaningless and should be avoided.

------------------------------------------------------------------------------
  Methods described in the following list of references were used in this FHI-aims run.
  If you publish the results, please make sure to cite these reference if they apply.
  FHI-aims is an academic code, and for our developers (often, Ph.D. students
  and postdocs), scientific credit in the community is essential.
  Thank you for helping us!

  For any use of FHI-aims, please cite:

    Volker Blum, Ralf Gehrke, Felix Hanke, Paula Havu, Ville Havu,
    Xinguo Ren, Karsten Reuter, and Matthias Scheffler
    'Ab initio molecular simulations with numeric atom-centered orbitals'
    Computer Physics Communications 180, 2175-2196 (2009)
    http://dx.doi.org/10.1016/j.cpc.2009.06.022


  For the real-space grid partitioning and parallelization used in this calculation, please cite:

    Ville Havu, Volker Blum, Paula Havu, and Matthias Scheffler,
    'Efficient O(N) integration for all-electron electronic structure calculation'
    'using numerically tabulated basis functions'
    Journal of Computational Physics 228, 8367-8379 (2009).
    http://dx.doi.org/10.1016/j.jcp.2009.08.008

  Of course, there are many other important community references, e.g., those cited in the
  above references. Our list is limited to references that describe implementations in the
  FHI-aims code. The reason is purely practical (length of this list) - please credit others as well.

------------------------------------------------------------
          Leaving FHI-aims.
          Date     :  20190509, Time     :  114718.877

          Computational steps:
          | Number of self-consistency cycles          :           13
          | Number of SCF (re)initializations          :            1

          Detailed time accounting                     :  max(cpu_time)    wall_clock(cpu1)
          | Total time                                 :        0.986 s           0.986 s
          | Preparation time                           :        0.051 s           0.051 s
          | Boundary condition initalization           :        0.000 s           0.000 s
          | Grid partitioning                          :        0.014 s           0.014 s
          | Preloading free-atom quantities on grid    :        0.001 s           0.001 s
          | Free-atom superposition energy             :        0.013 s           0.013 s
          | Total time for integrations                :        0.412 s           0.413 s
          | Total time for solution of K.-S. equations :        0.003 s           0.002 s
          | Total time for density & force components  :        0.180 s           0.177 s
          | Total time for mixing                      :        0.009 s           0.009 s
          | Total time for Hartree multipole update    :        0.020 s           0.020 s
          | Total time for Hartree multipole sum       :        0.254 s           0.251 s
          | Total time for total energy evaluation     :        0.001 s           0.002 s

 This is a stub MPI_ALLREDUCE call.
 You should not be here. Check your
 setting on the use_mpi variable, or
 link against true MPI-libraries.
