------------------------------------------------------------
          Invoking FHI-aims ...
          Version 171221_1
          Compiled on 2019/05/06 at 14:26:40 on host ffph0xx.

          When using FHI-aims, please cite the following reference:

          Volker Blum, Ralf Gehrke, Felix Hanke, Paula Havu,
          Ville Havu, Xinguo Ren, Karsten Reuter, and Matthias Scheffler,
          'Ab Initio Molecular Simulations with Numeric Atom-Centered Orbitals',
          Computer Physics Communications 180, 2175-2196 (2009)

          For any questions about FHI-aims, please visit the aimsclub website
          with its forums and wiki. Contributions to both the forums and the
          wiki are warmly encouraged - they are for you, and everyone is welcome there.

------------------------------------------------------------



  Date     :  20190514, Time     :  124258.929
  Time zero on CPU 1             :   0.663000000000000E-03  s.
  Internal wall clock time zero  :           327069778.929  s.

  FHI-aims created a unique identifier for this run for later identification
  aims_uuid : 327A7956-5B6F-4E44-A082-D007E2199FDB


  Performing system and environment tests:
  *** Environment variable OMP_NUM_THREADS is not set
  *** For performance reasons you might want to set it to 1
  | Stacksize not measured: no C compiler

  Obtaining array dimensions for all initial allocations:
  
  -----------------------------------------------------------------------
  Parsing control.in (first pass over file, find array dimensions only).
  The contents of control.in will be repeated verbatim below
  unless switched off by setting 'verbatim_writeout .false.' .
  in the first line of control.in .
  -----------------------------------------------------------------------
  
  #--- method ---
  xc pw-lda
  spin none
  relativistic atomic_zora scalar
  #---
  
  #--- k-grid settings ---
  k_grid 12 12 12
  #---
  
  
  
  
  
  
  
  
  
  
  
  #-------------------------------------------------------------------------------
  #--- Species defaults for Si
  #-------------------------------------------------------------------------------
  
  ################################################################################
  #
  #  FHI-aims code project
  #  VB, Fritz-Haber Institut, 2009
  #
  #  Suggested "light" defaults for Si atom (to be pasted into control.in file)
  #  Be sure to double-check any results obtained with these settings for post-processing,
  #  e.g., with the "tight" defaults and larger basis sets.
  #
  ################################################################################
    species        Si
  #     global species definitions
      nucleus             14
      mass                28.0855
  #
      l_hartree           4
  #
      cut_pot             3.5          1.5  1.0
      basis_dep_cutoff    1e-4
  #
      radial_base         42 5.0
      radial_multiplier   1
      angular_grids       specified
        division   0.5866   50
        division   0.9616  110
        division   1.2249  194
        division   1.3795  302
  #      division   1.4810  434
  #      division   1.5529  590
  #      division   1.6284  770
  #      division   1.7077  974
  #      division   2.4068 1202
  #      outer_grid   974
        outer_grid 302
  ################################################################################
  #
  #  Definition of "minimal" basis
  #
  ################################################################################
  #     valence basis states
      valence      3  s   2.
      valence      3  p   2.
  #     ion occupancy
      ion_occ      3  s   1.
      ion_occ      3  p   1.
  ################################################################################
  #
  #  Suggested additional basis functions. For production calculations,
  #  uncomment them one after another (the most important basis functions are
  #  listed first).
  #
  #  Constructed for dimers: 1.75 A, 2.0 A, 2.25 A, 2.75 A, 3.75 A
  #
  ################################################################################
  #  "First tier" - improvements: -571.96 meV to -37.03 meV
       hydro 3 d 4.2
       hydro 2 p 1.4
  #     hydro 4 f 6.2
       ionic 3 s auto
  #  "Second tier" - improvements: -16.76 meV to -3.03 meV
  #     hydro 3 d 9
  #     hydro 5 g 9.4
  #     hydro 4 p 4
  #     hydro 1 s 0.65
  #  "Third tier" - improvements: -3.89 meV to -0.60 meV
  #     ionic 3 d auto
  #     hydro 3 s 2.6
  #     hydro 4 f 8.4
  #     hydro 3 d 3.4
  #     hydro 3 p 7.8
  #  "Fourth tier" - improvements: -0.33 meV to -0.11 meV
  #     hydro 2 p 1.6
  #     hydro 5 g 10.8
  #     hydro 5 f 11.2
  #     hydro 3 d 1
  #     hydro 4 s 4.5
  #  Further basis functions that fell out of the optimization - noise
  #  level... < -0.08 meV
  #     hydro 4 d 6.6
  #     hydro 5 g 16.4
  #     hydro 4 d 9
  
  -----------------------------------------------------------------------
  Completed first pass over input file control.in .
  -----------------------------------------------------------------------
  
  
  -----------------------------------------------------------------------
  Parsing geometry.in (first pass over file, find array dimensions only).
  The contents of geometry.in will be repeated verbatim below
  unless switched off by setting 'verbatim_writeout .false.' .
  in the first line of geometry.in .
  -----------------------------------------------------------------------
  
  lattice_vector   0.000000   3.300000   3.300000
  lattice_vector   3.300000   0.000000   3.300000
  lattice_vector   3.300000   3.300000   0.000000
  atom_frac   0.000000   0.000000   0.000000 Si
  atom_frac   0.250000   0.250000   0.250000 Si
  
  -----------------------------------------------------------------------
  Completed first pass over input file geometry.in .
  -----------------------------------------------------------------------
  

  Basic array size parameters:
  | Number of species                 :        1
  | Number of atoms                   :        2
  | Number of lattice vectors         :        3
  | Max. basis fn. angular momentum   :        2
  | Max. atomic/ionic basis occupied n:        3
  | Max. number of basis fn. types    :        3
  | Max. radial fns per species/type  :        5
  | Max. logarithmic grid size        :     1346
  | Max. radial integration grid size :       42
  | Max. angular integration grid size:      302
  | Max. angular grid division number :        8
  | Radial grid for Hartree potential :     1346
  | Number of spin channels           :        1

------------------------------------------------------------
          Reading file control.in.
------------------------------------------------------------
  XC: Using Perdew-Wang parametrisation of Ceperley-Alder LDA.
  Spin treatment: No spin polarisation.
  Scalar relativistic treatment of kinetic energy: on-site free-atom approximation to ZORA.
  Found k-point grid:        12        12        12

  Reading configuration options for species Si                  .
  | Found nuclear charge :  14.0000
  | Found atomic mass :    28.085500000000000      amu
  | Found l_max for Hartree potential  :   4
  | Found cutoff potl. onset [A], width [A], scale factor :    3.50000    1.50000    1.00000
  | Threshold for basis-dependent cutoff potential is   0.100000E-03
  | Found data for basic radial integration grid :    42 points, outermost radius =    5.000 A
  | Found multiplier for basic radial grid :   1
  | Found angular grid specification: user-specified.
  | Specified grid contains     5 separate shells.
  | Check grid settings after all constraints further below.
  | Found free-atom valence shell :  3 s   2.000
  | Found free-atom valence shell :  3 p   2.000
  | Found free-ion valence shell :  3 s   1.000
  | Found free-ion valence shell :  3 p   1.000
  | Found hydrogenic basis function :  3 d   4.200
  | Found hydrogenic basis function :  2 p   1.400
  | Found ionic basis function :  3 s , default cutoff radius.
  Species Si                  : Missing cutoff potential type.
  Defaulting to exp(1/x)/(1-x)^2 type cutoff potential.
  Species Si: No 'logarithmic' tag. Using default grid for free atom:
  | Default logarithmic grid data [bohr] : 0.1000E-03 0.1000E+03 0.1012E+01
  | Will include ionic basis functions of  2.0-fold positive Si                   ion.
  Species Si: On-site basis accuracy parameter (for Gram-Schmidt orthonormalisation) not specified.
  Using default value basis_acc =  0.1000000E-03.
  Species Si                  : Using default innermost maximum threshold i_radial=  2 for radial functions.
  Species Si                  : Default cutoff onset for free atom density etc. : 0.35000000E+01 AA.
  Species Si                  : Basic radial grid will be enhanced according to radial_multiplier =   1, to contain    42 grid points.

  Finished reading input file 'control.in'. Consistency checks are next.

  MPI_IN_PLACE appears to work with this MPI implementation.
  | Keeping use_mpi_in_place .true. (see manual).
  Target number of points in a grid batch is not set. Defaulting to  100
  Method for grid partitioning is not set. Defaulting to 'maxmin' partitioning.
  Batch size limit is not set. Defaulting to    200
  By default, will store active basis functions for each batch.
  If in need of memory, prune_basis_once .false. can be used to disable this option.
  communication_type for Hartree potential was not specified.
  Defaulting to calc_hartree .
 * Attention: 
 * You may want to set distributed_spline_storage to .true. in order to save memory.
 * This doesn't harm performance and is perfectly ok unless:
 * - you get error messages in postprocessing (about missing atoms in get_rho_multipole_spl)
 * - you need full spline storage in hirshfeld_analysis
  Defaulting to Pulay charge density mixer.
  Pulay mixer: Number of relevant iterations not set.
  Defaulting to    8 iterations.
  Pulay mixer: Number of initial linear mixing iterations not set.
  Defaulting to    0 iterations.
  Work space size for distributed Hartree potential not set.
  Defaulting to   0.200000E+03 MB.
  Mixing parameter for charge density mixing has not been set.
  Using default: charge_mix_param =     0.0500.
  The mixing parameter will be adjusted in iteration number     2 of the first full s.c.f. cycle only.
  Algorithm-dependent basis array size parameters:
  | n_max_pulay                         :        8
 * Notice: The s.c.f. convergence criterion sc_accuracy_rho was not provided.
 * We used to stop in this case, and ask the user to provide reasonable
 * scf convergence criteria. However, this led some users to employ criteria
 * that led to extremely long run times, e.g., for simple relaxation.
 * We now preset a default value for sc_accuracy_rho if it is not set.
 * You may still wish to check if this setting is too tight or too loose for your needs.
 * Based on n_atoms, FHI-aims chose sc_accuracy_rho =  0.100000E-05 .
  Maximum number of self-consistency iterations not provided.
  Presetting  1000 iterations.
  Presetting      1001 iterations before the initial mixing cycle
  is restarted anyway using the sc_init_iter criterion / keyword.
  Presetting a factor      1.000 between actual scf density residual
  and density convergence criterion sc_accuracy_rho below which sc_init_iter
  takes no effect.
 * No s.c.f. convergence criteria (sc_accuracy_*) were provided in control.in.
 * The run will proceed with a reasonable default guess, but please check whether.
 * the s.c.f. cycles seem to take too much or too little time.
  Calculation of forces was not defined in control.in. No forces will be calculated.
  Geometry relaxation not requested: no relaxation will be performed.
  No accuracy limit for integral partition fn. given. Defaulting to  0.1000E-14.
  No threshold value for u(r) in integrations given. Defaulting to  0.1000E-05.
  No occupation type (smearing scheme) given. Defaulting to Gaussian broadening, width =  0.1000E-01 eV.
  The width will be adjusted in iteration number     2 of the first full s.c.f. cycle only.
  S.C.F. convergence parameters will be adjusted in iteration number     2 of the first full s.c.f. cycle only.
  No accuracy for occupation numbers given. Defaulting to  0.1000E-12.
  No threshold value for occupation numbers given. Defaulting to  0.0000E+00.
  No accuracy for fermi level given. Defaulting to  0.1000E-19.
  Maximum # of iterations to find E_F not set. Defaulting to  200.
  Preferred method for the eigenvalue solver ('KS_method') not specified in 'control.in'.
  Defaulting to serial version, 'lapack_fast'.
  Will not use alltoall communication since running on < 1024 CPUs.
  Threshold for basis singularities not set.
  Default threshold for basis singularities:  0.1000E-04
  partition_type (choice of integration weights) for integrals was not specified.
  | Using a version of the partition function of Stratmann and coworkers ('stratmann_smoother').
  | At each grid point, the set of atoms used to build the partition table is smoothly restricted to
  | only those atoms whose free-atom density would be non-zero at that grid point.
  Partitioning for Hartree potential was not defined. Using partition_type for integrals.
  | Adjusted default value of keyword multip_moments_threshold to:       0.10000000E-11
  | This value may affect high angular momentum components of the Hartree potential in periodic systems.
  Angular momentum expansion for Kerker preconditioner not set explicitly.
  | Using default value of   0
  No explicit requirement for turning off preconditioner.
  | By default, it will be turned off when the charge convergence reaches
  | sc_accuracy_rho  =   0.100000E-05
  No special mixing parameter while Kerker preconditioner is on.
  Using default: charge_mix_param =     0.0500.
  No q(lm)/r^(l+1) cutoff set for long-range Hartree potential.
  | Using default value of  0.100000E-09 .
  | Verify using the multipole_threshold keyword.
  Defaulting to new monopole extrapolation.
  Density update method: automatic selection selected.
  Using density matrix based charge density update.
  Using density matrix based charge density update.
  Using packed matrix style: index .
  Defaulting to use time-reversal symmetry for k-point grid.
------------------------------------------------------------


------------------------------------------------------------
          Reading geometry description geometry.in.
------------------------------------------------------------
  Input structure read successfully.
  The structure contains        2 atoms,  and a total of         28.000 electrons.

  Input geometry:
  | Unit cell:
  |        0.00000000        3.30000000        3.30000000
  |        3.30000000        0.00000000        3.30000000
  |        3.30000000        3.30000000        0.00000000
  | Atomic structure:
  |       Atom                x [A]            y [A]            z [A]
  |    1: Species Si            0.00000000        0.00000000        0.00000000
  |    2: Species Si            1.65000000        1.65000000        1.65000000

  Lattice parameters for 3D lattice (in Angstroms) :     4.666905    4.666905    4.666905
  Angle(s) between unit vectors (in degrees)      :    60.000000   60.000000   60.000000

  |

  | The smallest distance between any two atoms is         2.85788383 AA.
  |
  | The first atom of this pair is atom number                      1 .
  | The second atom of this pair is atom number                     2 .
  | Wigner-Seitz cell of the first atom image           0     0     0 .
  | (The Wigner-Seitz cell of the second atom is 0 0 0  by definition.)

  Quantities derived from the lattice vectors:
  | Reciprocal lattice vector 1: -0.951998  0.951998  0.951998
  | Reciprocal lattice vector 2:  0.951998 -0.951998  0.951998
  | Reciprocal lattice vector 3:  0.951998  0.951998 -0.951998
  | Unit cell volume                               :   0.718740E+02  A^3

  Range separation radius for Ewald summation (hartree_convergence_parameter):      4.79638915 bohr.

  Fractional coordinates:
                         L1                L2                L3
       atom_frac         0.00000000        0.00000000        0.00000000  Si
       atom_frac         0.25000000        0.25000000        0.25000000  Si

  Number of empty states per atom not set in control.in - providing a guess from actual geometry.
  | Total number of empty states used during s.c.f. cycle:        6
  If you use a very high smearing, use empty_states (per atom!) in control.in to increase this value.

  Structure-dependent array size parameters: 
  | Maximum number of distinct radial functions  :        8
  | Maximum number of basis functions            :       36
  | Number of Kohn-Sham states (occupied + empty):       20
------------------------------------------------------------

------------------------------------------------------------
          Preparing all fixed parts of the calculation.
------------------------------------------------------------
  Determining machine precision:
     2.2250738585072014E-308
  Setting up grids for atomic and cluster calculations.

  Creating wave function, potential, and density for free atoms.

  Species: Si

  List of occupied orbitals and eigenvalues:
    n    l              occ      energy [Ha]    energy [eV]
    1    0           2.0000       -65.491668     -1782.1190
    2    0           2.0000        -5.087967      -138.4506
    3    0           2.0000        -0.391471       -10.6525
    2    1           6.0000        -3.502246       -95.3010
    3    1           2.0000        -0.143943        -3.9169

  Creating fixed part of basis set: Ionic, confined, hydrogenic.

  Si                   ion:

  List of free ionic orbitals and eigenvalues:
    n    l      energy [Ha]    energy [eV]
    1    0       -66.364436     -1805.8682
    2    0        -5.935799      -161.5213
    3    0        -1.078166       -29.3384
    2    1        -4.351123      -118.4001
    3    1        -0.781733       -21.2720


  List of ionic basis orbitals and eigenvalues:
    n    l      energy [Ha]    energy [eV]    outer radius [A]
    3    0        -1.078146       -29.3378       4.214062


  Si                   hydrogenic:

  List of hydrogenic basis orbitals: 
    n    l      effective z      eigenvalue [eV]  inner max. [A]     outer max. [A]     outer radius [A]   
    3    2         4.200000       -26.6624           1.139231           1.139231           4.534782
    2    1         1.400000        -6.4613           1.472672           1.472672           4.590560


  Adding cutoff potential to free-atom effective potential.
  Creating atomic-like basis functions for current effective potential.

  Species Si                  :

  List of atomic basis orbitals and eigenvalues:
    n    l      energy [Ha]    energy [eV]    outer radius [A]
    1    0       -65.491668     -1782.1190       0.789468
    2    0        -5.087967      -138.4506       2.815114
    3    0        -0.391471       -10.6525       4.534782
    2    1        -3.502246       -95.3010       3.259919
    3    1        -0.143943        -3.9169       4.590560

  Assembling full basis from fixed parts.
  | Species Si :   atomic orbital   1 s accepted.
  | Species Si :   atomic orbital   2 s accepted.
  | Species Si :    ionic orbital   3 s accepted.
  | Species Si :   atomic orbital   3 s accepted.
  | Species Si :   atomic orbital   2 p accepted.
  | Species Si :   atomic orbital   3 p accepted.
  | Species Si :    hydro orbital   2 p accepted.
  | Species Si :    hydro orbital   3 d accepted.

  Basis size parameters after reduction:
  | Total number of radial functions:        8
  | Total number of basis functions :       36

  Per-task memory consumption for arrays in subroutine allocate_ext:
  |           2.757868MB.
  Testing on-site integration grid accuracy.
  |  Species  Function  <phi|h_atom|phi> (log., in eV)  <phi|h_atom|phi> (rad., in eV)
           1        1              -1782.1189727076              -1782.1182429251
           1        2               -138.4506350693               -138.4506310079
           1        3                -10.3030408815                -10.3029120678
           1        4                  5.0238999146                  4.9457540310 ***
           1        5                -95.3009689499                -95.3009689315
           1        6                 -3.9266496564                 -3.9420918374
           1        7                  6.3453628447                  6.1632372158 ***
           1        8                  6.2883050744                  6.2861881409
 * Note: Onsite integrals marked "***" above are less accurate than
 * onsite_accuracy_threshold =    0.03000 eV. Usually, this is harmless.
 * When in doubt, tighten the "radial" and/or "radial_multiplier" flags to check.

  Preparing densities etc. for the partition functions (integrals / Hartree potential).

  Preparations completed.
  max(cpu_time)          :      0.090 s.
  Wall clock time (cpu1) :      0.091 s.
------------------------------------------------------------

------------------------------------------------------------
          Begin self-consistency loop: Initialization.

          Date     :  20190514, Time     :  124259.021
------------------------------------------------------------

  Initializing index lists of integration centers etc. from given atomic structure:
  Mapping all atomic coordinates to central unit cell.

  Initializing the k-points
          Using symmetry for reducing the k-points
  | k-points reduced from:     1728 to      868
  | Number of k-points                             :       868
  The eigenvectors in the calculations are COMPLEX.
  | K-points in task   0:       868
  | Number of basis functions in the Hamiltonian integrals :       794
  | Number of basis functions in a single unit cell        :        36
  | Number of centers in hartree potential         :       594
  | Number of centers in hartree multipole         :       190
  | Number of centers in electron density summation:       124
  | Number of centers in basis integrals           :       148
  | Number of centers in integrals                 :        57
  | Number of centers in hamiltonian               :       124
  | Consuming        949 KiB for k_phase.
  | Number of super-cells (origin) [n_cells]                     :        1331
  | Number of super-cells (after PM_index) [n_cells]             :          70
  | Number of super-cells in hamiltonian [n_cells_in_hamiltonian]:          70
  | Size of matrix packed + index [n_hamiltonian_matrix_size] :       25111
  Partitioning the integration grid into batches with maxmin method.
  | Maximal weight for a single point:     1.000
  | Minimal weight for a single point:     0.487
  | Number of batches:      128
  | Maximal batch size:      90
  | Minimal batch size:      85
  | Average batch size:      87.562
  | Standard deviation of batch sizes:       1.493
  Initializing partition tables, free-atom densities, potentials, etc. across the integration grid (initialize_grid_storage).
  | initialize_grid_storage: Actual outermost partition radius vs. multipole_radius_free
  | (-- VB: in principle, multipole_radius_free should be larger, hence this output)
  | Species        1: Confinement radius =              4.999999999999999 AA, multipole_radius_free =              5.000694715736543 AA.
  | Species        1: outer_partition_radius set to              5.000694715736543 AA .
  | Original list of interatomic distances with         148 x        148 entries is created.
  | Net number of integration points:    11208
  | of which are non-zero points    :    10424
  | Numerical average free-atom electrostatic potential    :     -7.32043511 eV
  Renormalizing the initial density to the exact electron count on the 3D integration grid.
  | Initial density: Formal number of electrons (from input files) :      28.0000000000
  | Integrated number of electrons on 3D grid     :      28.0012188608
  | Charge integration error                      :       0.0012188608
  | Normalization factor for density and gradient :       0.9999564712
  Obtaining max. number of non-zero basis functions in each batch (get_n_compute_maxes).
  | Maximal number of non-zero basis functions:      281 in task     0
  Allocating        9.999 MB for KS_eigenvector_complex
  Integrating Hamiltonian matrix: batch-based integration.
  Time summed over all CPUs for integration: real work        0.217 s, elapsed        0.217 s
  Integrating overlap matrix.
  Time summed over all CPUs for integration: real work        0.145 s, elapsed        0.145 s
  Decreasing sparse matrix size:
   Tolerance:   9.9999998245167004E-014
   Hamiltonian matrix
  | Array has    19481 nonzero elements out of    25111 elements
  | Sparsity factor is 0.224
   Overlap matrix
  | Array has    19324 nonzero elements out of    25111 elements
  | Sparsity factor is 0.230
  New size of hamiltonian matrix:       19739

  Updating Kohn-Sham eigenvalues, eigenvectors, occupation numbers, and Fermi level.
  Solving generalized eigenproblem
  Transforming overlap matrix and checking for singularities.
  Overlap matrix is nonsingular at first k-point:
  | Lowest eigenvalue:  0.322779E-01

  Obtaining occupation numbers and chemical potential using ELSI.
  | Chemical potential (Fermi level):    -5.44336582eV
  Writing Kohn-Sham eigenvalues.
  K-point:       1 at    0.000000    0.000000    0.000000 (in units of recip. lattice)

  State    Occupation    Eigenvalue [Ha]    Eigenvalue [eV]
      1       2.00000         -65.494846        -1782.20544
      2       2.00000         -65.494846        -1782.20544
      3       2.00000          -5.092251         -138.56721
      4       2.00000          -5.092239         -138.56686
      5       2.00000          -3.506513          -95.41706
      6       2.00000          -3.506513          -95.41706
      7       2.00000          -3.506513          -95.41706
      8       2.00000          -3.506466          -95.41578
      9       2.00000          -3.506466          -95.41578
     10       2.00000          -3.506466          -95.41578
     11       2.00000          -0.523204          -14.23712
     12       2.00000          -0.268331           -7.30167
     13       0.00000          -0.197320           -5.36934
     14       0.00000          -0.197320           -5.36934
     15       0.00000          -0.197320           -5.36934
     16       0.00000          -0.117314           -3.19227
     17       0.00000          -0.117314           -3.19227
     18       0.00000          -0.117314           -3.19227
     19       0.00000           0.096224            2.61840
     20       0.00000           0.096224            2.61840

  What follows are estimated values for band gap, HOMO, LUMO, etc.
  | They are estimated on a discrete k-point grid and not necessarily exact.
  | For converged numbers, create a DOS and/or band structure plot on a denser k-grid.

  Highest occupied state (VBM) at     -5.45355421 eV (relative to internal zero)
  | Occupation number:      1.85037462
  | K-point:      72 at    0.000000    0.916667    0.083333 (in units of recip. lattice)

  Lowest unoccupied state (CBM) at    -5.44213864 eV (relative to internal zero)
  | Occupation number:      0.86221904
  | K-point:       8 at    0.000000    0.083333    0.000000 (in units of recip. lattice)

  ESTIMATED overall HOMO-LUMO gap:      0.01141557 eV between HOMO at k-point 72 and LUMO at k-point 8
  | This appears to be an indirect band gap.
  | Smallest direct gap :      0.47203030 eV for k_point 17 at    0.000000    0.083333    0.000000 (in units of recip. lattice)
  However, this system has fractional occupation numbers. Since we use a finite k-point grid,
  this material is metallic within the approximate finite broadening function (occupation_type)
  applied to determine the occupation numbers.
  Calculating total energy contributions from superposition of free atom densities.

  Total energy components:
  | Sum of eigenvalues            :        -327.13823435 Ha       -8901.88427948 eV
  | XC energy correction          :         -39.42330829 Ha       -1072.76280017 eV
  | XC potential correction       :          52.08673225 Ha        1417.35209871 eV
  | Free-atom electrostatic energy:        -264.17060424 Ha       -7188.44788549 eV
  | Hartree energy correction     :          -0.00000000 Ha          -0.00000000 eV
  | Entropy correction            :          -0.00000120 Ha          -0.00003267 eV
  | ---------------------------
  | Total energy                  :        -578.64541462 Ha      -15745.74286644 eV
  | Total energy, T -> 0          :        -578.64541582 Ha      -15745.74289910 eV  <-- do not rely on this value for anything but (periodic) metals
  | Electronic free energy        :        -578.64541702 Ha      -15745.74293177 eV

  Derived energy quantities:
  | Kinetic energy                :         579.21477569 Ha       15761.23596931 eV
  | Electrostatic energy          :       -1118.43688202 Ha      -30434.21603557 eV
  | Energy correction for multipole
  | error in Hartree potential    :           0.00000000 Ha           0.00000000 eV
  | Sum of eigenvalues per atom                           :       -4450.94213974 eV
  | Total energy (T->0) per atom                          :       -7872.87144955 eV  <-- do not rely on this value for anything but (periodic) metals
  | Electronic free energy per atom                       :       -7872.87146588 eV
  Initialize hartree_potential_storage
  Max. number of atoms included in rho_multipole:            2

  End scf initialization - timings             :  max(cpu_time)    wall_clock(cpu1)
  | Time for scf. initialization               :        1.433 s           1.433 s
  | Boundary condition initialization          :        0.034 s           0.033 s
  | Integration                                :        0.363 s           0.362 s
  | Solution of K.-S. eqns.                    :        0.926 s           0.925 s
  | Grid partitioning                          :        0.021 s           0.020 s
  | Preloading free-atom quantities on grid    :        0.001 s           0.001 s
  | Free-atom superposition energy             :        0.020 s           0.020 s
  | Total energy evaluation                    :        0.000 s           0.001 s

  Partial memory accounting:
  | Current value for overall tracked memory usage on task 0  :          10.394 MB
  | Peak value for overall tracked memory usage on task 0     :          11.740 MB after allocating wave
  | Largest tracked array allocation on task 0 so far         :           9.999 MB  when allocating +KS_eigenvector_complex
  Note:  These values currently only include a subset of arrays which are explicitly tracked.
  The "true" memory usage will be greater.
------------------------------------------------------------

------------------------------------------------------------
          Begin self-consistency iteration #    1

  Date     :  20190514, Time     :  124300.454
------------------------------------------------------------
  Evaluating new KS density using the density matrix
  Evaluating density matrix
  Time summed over all CPUs for getting density from density matrix: real work        0.351 s, elapsed        0.351 s
  Integration grid: deviation in total charge (<rho> - N_e) =   8.302692E-12
  Pulay mixing of updated and previous charge densities.

  Evaluating partitioned Hartree potential by multipole expansion.
  | Analytical far-field extrapolation by fixed multipoles:
  | Hartree multipole sum: apparent total charge =   0.145163E-02
  Summing up the Hartree potential.
  | Estimated reciprocal-space cutoff momentum G_max:         1.92656146 bohr^-1 .
  | Reciprocal lattice points for long-range Hartree potential:      58
  Time summed over all CPUs for potential: real work        0.318 s, elapsed        0.318 s
  | RMS charge density error from multipole expansion :   0.146115E-03
  | Average real-space part of the electrostatic potential :     -0.00550768 eV

  Integrating Hamiltonian matrix: batch-based integration.
  Time summed over all CPUs for integration: real work        0.215 s, elapsed        0.215 s

  Updating Kohn-Sham eigenvalues, eigenvectors, occupation numbers, and Fermi level.
  Solving generalized eigenproblem

  Obtaining occupation numbers and chemical potential using ELSI.
  | Chemical potential (Fermi level):    -5.43971640eV
  Writing Kohn-Sham eigenvalues.
  K-point:       1 at    0.000000    0.000000    0.000000 (in units of recip. lattice)

  State    Occupation    Eigenvalue [Ha]    Eigenvalue [eV]
      1       2.00000         -65.497110        -1782.26704
      2       2.00000         -65.497110        -1782.26704
      3       2.00000          -5.093355         -138.59724
      4       2.00000          -5.093342         -138.59689
      5       2.00000          -3.507672          -95.44860
      6       2.00000          -3.507672          -95.44860
      7       2.00000          -3.507672          -95.44860
      8       2.00000          -3.507625          -95.44732
      9       2.00000          -3.507625          -95.44732
     10       2.00000          -3.507625          -95.44732
     11       2.00000          -0.523116          -14.23472
     12       2.00000          -0.268319           -7.30132
     13       0.00000          -0.197183           -5.36563
     14       0.00000          -0.197183           -5.36563
     15       0.00000          -0.197183           -5.36563
     16       0.00000          -0.117252           -3.19059
     17       0.00000          -0.117252           -3.19059
     18       0.00000          -0.117252           -3.19059
     19       0.00000           0.096336            2.62144
     20       0.00000           0.096336            2.62144

  What follows are estimated values for band gap, HOMO, LUMO, etc.
  | They are estimated on a discrete k-point grid and not necessarily exact.
  | For converged numbers, create a DOS and/or band structure plot on a denser k-grid.

  Highest occupied state (VBM) at     -5.44989784 eV (relative to internal zero)
  | Occupation number:      1.85009655
  | K-point:      72 at    0.000000    0.916667    0.083333 (in units of recip. lattice)

  Lowest unoccupied state (CBM) at    -5.43849109 eV (relative to internal zero)
  | Occupation number:      0.86242761
  | K-point:      75 at    0.083333    0.000000    0.000000 (in units of recip. lattice)

  ESTIMATED overall HOMO-LUMO gap:      0.01140674 eV between HOMO at k-point 72 and LUMO at k-point 75
  | This appears to be an indirect band gap.
  | Smallest direct gap :      0.47043610 eV for k_point 7 at    0.083333    0.000000    0.000000 (in units of recip. lattice)
  However, this system has fractional occupation numbers. Since we use a finite k-point grid,
  this material is metallic within the approximate finite broadening function (occupation_type)
  applied to determine the occupation numbers.

  Total energy components:
  | Sum of eigenvalues            :        -327.16483807 Ha       -8902.60820350 eV
  | XC energy correction          :         -39.42214212 Ha       -1072.73106693 eV
  | XC potential correction       :          52.08518368 Ha        1417.30995983 eV
  | Free-atom electrostatic energy:        -264.17060424 Ha       -7188.44788549 eV
  | Hartree energy correction     :           0.02711143 Ha           0.73773942 eV
  | Entropy correction            :          -0.00000120 Ha          -0.00003268 eV
  | ---------------------------
  | Total energy                  :        -578.64528932 Ha      -15745.73945667 eV
  | Total energy, T -> 0          :        -578.64529052 Ha      -15745.73948935 eV  <-- do not rely on this value for anything but (periodic) metals
  | Electronic free energy        :        -578.64529172 Ha      -15745.73952203 eV

  Derived energy quantities:
  | Kinetic energy                :         579.15419115 Ha       15759.58738021 eV
  | Electrostatic energy          :       -1118.37733835 Ha      -30432.59576996 eV
  | Energy correction for multipole
  | error in Hartree potential    :           0.00009977 Ha           0.00271476 eV
  | Sum of eigenvalues per atom                           :       -4451.30410175 eV
  | Total energy (T->0) per atom                          :       -7872.86974468 eV  <-- do not rely on this value for anything but (periodic) metals
  | Electronic free energy per atom                       :       -7872.86976102 eV

  Self-consistency convergence accuracy:
  | Change of charge density      :  0.5936E-01
  | Change of sum of eigenvalues  : -0.7239E+00 eV
  | Change of total energy        :  0.3410E-02 eV

  End self-consistency iteration #     1       :  max(cpu_time)    wall_clock(cpu1)
  | Time for this iteration                    :        1.403 s           1.402 s
  | Charge density update                      :        0.389 s           0.388 s
  | Density mixing & preconditioning           :        0.037 s           0.037 s
  | Hartree multipole update                   :        0.001 s           0.001 s
  | Hartree multipole summation                :        0.322 s           0.321 s
  | Integration                                :        0.216 s           0.216 s
  | Solution of K.-S. eqns.                    :        0.439 s           0.439 s
  | Total energy evaluation                    :        0.000 s           0.000 s

  Partial memory accounting:
  | Current value for overall tracked memory usage on task 0  :          10.394 MB
  | Peak value for overall tracked memory usage on task 0     :          11.740 MB after allocating wave
  | Largest tracked array allocation on task 0 so far         :           9.999 MB  when allocating +KS_eigenvector_complex
  Note:  These values currently only include a subset of arrays which are explicitly tracked.
  The "true" memory usage will be greater.
------------------------------------------------------------

------------------------------------------------------------
          Begin self-consistency iteration #    2

  Date     :  20190514, Time     :  124301.856
------------------------------------------------------------
  Evaluating new KS density using the density matrix
  Evaluating density matrix
  Time summed over all CPUs for getting density from density matrix: real work        0.352 s, elapsed        0.352 s
  Integration grid: deviation in total charge (<rho> - N_e) =   8.263612E-12
  Pulay mixing of updated and previous charge densities.

  Evaluating partitioned Hartree potential by multipole expansion.
  | Analytical far-field extrapolation by fixed multipoles:
  | Hartree multipole sum: apparent total charge =   0.560982E-02
  Summing up the Hartree potential.
  Time summed over all CPUs for potential: real work        0.399 s, elapsed        0.399 s
  | RMS charge density error from multipole expansion :   0.290302E-02
  | Average real-space part of the electrostatic potential :     -0.02172821 eV

  Integrating Hamiltonian matrix: batch-based integration.
  Time summed over all CPUs for integration: real work        0.216 s, elapsed        0.216 s

  Updating Kohn-Sham eigenvalues, eigenvectors, occupation numbers, and Fermi level.
  Solving generalized eigenproblem

  Obtaining occupation numbers and chemical potential using ELSI.
  | Chemical potential (Fermi level):    -5.32604239eV
  What follows are estimated values for band gap, HOMO, LUMO, etc.
  | They are estimated on a discrete k-point grid and not necessarily exact.
  | For converged numbers, create a DOS and/or band structure plot on a denser k-grid.

  Highest occupied state (VBM) at     -5.33048857 eV (relative to internal zero)
  | Occupation number:      1.47051044
  | K-point:     438 at    0.333333    0.333333    0.333333 (in units of recip. lattice)

  Lowest unoccupied state (CBM) at    -5.31996751 eV (relative to internal zero)
  | Occupation number:      0.39027575
  | K-point:       2 at    0.000000    0.000000    0.083333 (in units of recip. lattice)

  ESTIMATED overall HOMO-LUMO gap:      0.01052106 eV between HOMO at k-point 438 and LUMO at k-point 2
  | This appears to be an indirect band gap.
  | Smallest direct gap :      0.43894156 eV for k_point 7 at    0.000000    0.000000    0.083333 (in units of recip. lattice)
  However, this system has fractional occupation numbers. Since we use a finite k-point grid,
  this material is metallic within the approximate finite broadening function (occupation_type)
  applied to determine the occupation numbers.

  Checking to see if s.c.f. parameters should be adjusted.
  Adjusted the Pulay mixing parameter (charge_mix_param) for an expected low-gap system. New value:   0.020000 .
  Adjusted the occupation broadening width for an expected low-gap system. New value:      0.05000000 eV.

  Total energy components:
  | Sum of eigenvalues            :        -327.35856023 Ha       -8907.87965170 eV
  | XC energy correction          :         -39.40497152 Ha       -1072.26383135 eV
  | XC potential correction       :          52.06232401 Ha        1416.68791673 eV
  | Free-atom electrostatic energy:        -264.17060424 Ha       -7188.44788549 eV
  | Hartree energy correction     :           0.22763535 Ha           6.19427306 eV
  | Entropy correction            :          -0.00001076 Ha          -0.00029267 eV
  | ---------------------------
  | Total energy                  :        -578.64417662 Ha      -15745.70917874 eV
  | Total energy, T -> 0          :        -578.64418738 Ha      -15745.70947142 eV  <-- do not rely on this value for anything but (periodic) metals
  | Electronic free energy        :        -578.64419813 Ha      -15745.70976409 eV

  Derived energy quantities:
  | Kinetic energy                :         578.71628293 Ha       15747.67129118 eV
  | Electrostatic energy          :       -1117.95548803 Ha      -30421.11663858 eV
  | Energy correction for multipole
  | error in Hartree potential    :           0.00198910 Ha           0.05412616 eV
  | Sum of eigenvalues per atom                           :       -4453.93982585 eV
  | Total energy (T->0) per atom                          :       -7872.85473571 eV  <-- do not rely on this value for anything but (periodic) metals
  | Electronic free energy per atom                       :       -7872.85488205 eV

  Self-consistency convergence accuracy:
  | Change of charge density      :  0.5644E-01
  | Change of sum of eigenvalues  : -0.5271E+01 eV
  | Change of total energy        :  0.3028E-01 eV

  End self-consistency iteration #     2       :  max(cpu_time)    wall_clock(cpu1)
  | Time for this iteration                    :        1.479 s           1.479 s
  | Charge density update                      :        0.390 s           0.390 s
  | Density mixing & preconditioning           :        0.037 s           0.037 s
  | Hartree multipole update                   :        0.001 s           0.001 s
  | Hartree multipole summation                :        0.403 s           0.402 s
  | Integration                                :        0.215 s           0.216 s
  | Solution of K.-S. eqns.                    :        0.433 s           0.433 s
  | Total energy evaluation                    :        0.000 s           0.000 s

  Partial memory accounting:
  | Current value for overall tracked memory usage on task 0  :          10.395 MB
  | Peak value for overall tracked memory usage on task 0     :          11.740 MB after allocating wave
  | Largest tracked array allocation on task 0 so far         :           9.999 MB  when allocating +KS_eigenvector_complex
  Note:  These values currently only include a subset of arrays which are explicitly tracked.
  The "true" memory usage will be greater.
------------------------------------------------------------

------------------------------------------------------------
          Begin self-consistency iteration #    3

  Date     :  20190514, Time     :  124303.335
------------------------------------------------------------
  Evaluating new KS density using the density matrix
  Evaluating density matrix
  Time summed over all CPUs for getting density from density matrix: real work        0.350 s, elapsed        0.350 s
  Integration grid: deviation in total charge (<rho> - N_e) =   8.313350E-12
  Pulay mixing of updated and previous charge densities.

  Evaluating partitioned Hartree potential by multipole expansion.
  | Analytical far-field extrapolation by fixed multipoles:
  | Hartree multipole sum: apparent total charge =   0.552808E-02
  Summing up the Hartree potential.
  Time summed over all CPUs for potential: real work        0.410 s, elapsed        0.410 s
  | RMS charge density error from multipole expansion :   0.295482E-02
  | Average real-space part of the electrostatic potential :     -0.02217708 eV

  Integrating Hamiltonian matrix: batch-based integration.
  Time summed over all CPUs for integration: real work        0.217 s, elapsed        0.217 s

  Updating Kohn-Sham eigenvalues, eigenvectors, occupation numbers, and Fermi level.
  Solving generalized eigenproblem

  Obtaining occupation numbers and chemical potential using ELSI.
  | Chemical potential (Fermi level):    -5.32473330eV
  What follows are estimated values for band gap, HOMO, LUMO, etc.
  | They are estimated on a discrete k-point grid and not necessarily exact.
  | For converged numbers, create a DOS and/or band structure plot on a denser k-grid.

  Highest occupied state (VBM) at     -5.32931889 eV (relative to internal zero)
  | Occupation number:      1.10319630
  | K-point:      85 at    0.083333    0.083333    0.166667 (in units of recip. lattice)

  Lowest unoccupied state (CBM) at    -5.31848745 eV (relative to internal zero)
  | Occupation number:      0.85977599
  | K-point:     868 at    0.916667    0.916667    0.916667 (in units of recip. lattice)

  ESTIMATED overall HOMO-LUMO gap:      0.01083144 eV between HOMO at k-point 85 and LUMO at k-point 868
  | This appears to be an indirect band gap.
  | Smallest direct gap :      0.43830024 eV for k_point 183 at    0.916667    0.916667    0.916667 (in units of recip. lattice)
  However, this system has fractional occupation numbers. Since we use a finite k-point grid,
  this material is metallic within the approximate finite broadening function (occupation_type)
  applied to determine the occupation numbers.

  Total energy components:
  | Sum of eigenvalues            :        -327.36457785 Ha       -8908.04339961 eV
  | XC energy correction          :         -39.40463706 Ha       -1072.25473016 eV
  | XC potential correction       :          52.06187851 Ha        1416.67579380 eV
  | Free-atom electrostatic energy:        -264.17060424 Ha       -7188.44788549 eV
  | Hartree energy correction     :           0.23376979 Ha           6.36119954 eV
  | Entropy correction            :          -0.00001075 Ha          -0.00029239 eV
  | ---------------------------
  | Total energy                  :        -578.64417086 Ha      -15745.70902192 eV
  | Total energy, T -> 0          :        -578.64418160 Ha      -15745.70931431 eV  <-- do not rely on this value for anything but (periodic) metals
  | Electronic free energy        :        -578.64419235 Ha      -15745.70960670 eV

  Derived energy quantities:
  | Kinetic energy                :         578.70787814 Ha       15747.44258529 eV
  | Electrostatic energy          :       -1117.94741194 Ha      -30420.89687705 eV
  | Energy correction for multipole
  | error in Hartree potential    :           0.00202326 Ha           0.05505579 eV
  | Sum of eigenvalues per atom                           :       -4454.02169980 eV
  | Total energy (T->0) per atom                          :       -7872.85465715 eV  <-- do not rely on this value for anything but (periodic) metals
  | Electronic free energy per atom                       :       -7872.85480335 eV

  Self-consistency convergence accuracy:
  | Change of charge density      :  0.8047E-02
  | Change of sum of eigenvalues  : -0.1637E+00 eV
  | Change of total energy        :  0.1568E-03 eV

  End self-consistency iteration #     3       :  max(cpu_time)    wall_clock(cpu1)
  | Time for this iteration                    :        1.494 s           1.495 s
  | Charge density update                      :        0.390 s           0.390 s
  | Density mixing & preconditioning           :        0.037 s           0.038 s
  | Hartree multipole update                   :        0.001 s           0.001 s
  | Hartree multipole summation                :        0.413 s           0.413 s
  | Integration                                :        0.217 s           0.217 s
  | Solution of K.-S. eqns.                    :        0.435 s           0.435 s
  | Total energy evaluation                    :        0.000 s           0.001 s

  Partial memory accounting:
  | Current value for overall tracked memory usage on task 0  :          10.396 MB
  | Peak value for overall tracked memory usage on task 0     :          11.740 MB after allocating wave
  | Largest tracked array allocation on task 0 so far         :           9.999 MB  when allocating +KS_eigenvector_complex
  Note:  These values currently only include a subset of arrays which are explicitly tracked.
  The "true" memory usage will be greater.
------------------------------------------------------------

------------------------------------------------------------
          Begin self-consistency iteration #    4

  Date     :  20190514, Time     :  124304.830
------------------------------------------------------------
  Evaluating new KS density using the density matrix
  Evaluating density matrix
  Time summed over all CPUs for getting density from density matrix: real work        0.354 s, elapsed        0.354 s
  Integration grid: deviation in total charge (<rho> - N_e) =   8.277823E-12
  Pulay mixing of updated and previous charge densities.

  Evaluating partitioned Hartree potential by multipole expansion.
  | Analytical far-field extrapolation by fixed multipoles:
  | Hartree multipole sum: apparent total charge =  -0.428941E-02
  Summing up the Hartree potential.
  Time summed over all CPUs for potential: real work        0.401 s, elapsed        0.401 s
  | RMS charge density error from multipole expansion :   0.328402E-02
  | Average real-space part of the electrostatic potential :     -0.03346746 eV

  Integrating Hamiltonian matrix: batch-based integration.
  Time summed over all CPUs for integration: real work        0.218 s, elapsed        0.218 s

  Updating Kohn-Sham eigenvalues, eigenvectors, occupation numbers, and Fermi level.
  Solving generalized eigenproblem

  Obtaining occupation numbers and chemical potential using ELSI.
  | Chemical potential (Fermi level):    -5.37305315eV
  What follows are estimated values for band gap, HOMO, LUMO, etc.
  | They are estimated on a discrete k-point grid and not necessarily exact.
  | For converged numbers, create a DOS and/or band structure plot on a denser k-grid.

  Highest occupied state (VBM) at     -5.37606796 eV (relative to internal zero)
  | Occupation number:      1.06795456
  | K-point:      35 at    0.000000    0.333333    0.000000 (in units of recip. lattice)

  Lowest unoccupied state (CBM) at    -5.36729520 eV (relative to internal zero)
  | Occupation number:      0.87062927
  | K-point:      75 at    0.083333    0.000000    0.000000 (in units of recip. lattice)

  ESTIMATED overall HOMO-LUMO gap:      0.00877275 eV between HOMO at k-point 35 and LUMO at k-point 75
  | This appears to be an indirect band gap.
  | Smallest direct gap :      0.43521743 eV for k_point 202 at    0.083333    0.000000    0.000000 (in units of recip. lattice)
  However, this system has fractional occupation numbers. Since we use a finite k-point grid,
  this material is metallic within the approximate finite broadening function (occupation_type)
  applied to determine the occupation numbers.

  Total energy components:
  | Sum of eigenvalues            :        -327.54329922 Ha       -8912.90665556 eV
  | XC energy correction          :         -39.39731799 Ha       -1072.05556811 eV
  | XC potential correction       :          52.05219756 Ha        1416.41236200 eV
  | Free-atom electrostatic energy:        -264.17060424 Ha       -7188.44788549 eV
  | Hartree energy correction     :           0.41496112 Ha          11.29166663 eV
  | Entropy correction            :          -0.00001077 Ha          -0.00029303 eV
  | ---------------------------
  | Total energy                  :        -578.64406276 Ha      -15745.70608053 eV
  | Total energy, T -> 0          :        -578.64407353 Ha      -15745.70637356 eV  <-- do not rely on this value for anything but (periodic) metals
  | Electronic free energy        :        -578.64408430 Ha      -15745.70666658 eV

  Derived energy quantities:
  | Kinetic energy                :         578.65290279 Ha       15745.94662997 eV
  | Electrostatic energy          :       -1117.89964757 Ha      -30419.59714239 eV
  | Energy correction for multipole
  | error in Hartree potential    :           0.00215864 Ha           0.05873954 eV
  | Sum of eigenvalues per atom                           :       -4456.45332778 eV
  | Total energy (T->0) per atom                          :       -7872.85318678 eV  <-- do not rely on this value for anything but (periodic) metals
  | Electronic free energy per atom                       :       -7872.85333329 eV

  Self-consistency convergence accuracy:
  | Change of charge density      :  0.7857E-02
  | Change of sum of eigenvalues  : -0.4863E+01 eV
  | Change of total energy        :  0.2941E-02 eV

  End self-consistency iteration #     4       :  max(cpu_time)    wall_clock(cpu1)
  | Time for this iteration                    :        1.487 s           1.487 s
  | Charge density update                      :        0.393 s           0.392 s
  | Density mixing & preconditioning           :        0.036 s           0.037 s
  | Hartree multipole update                   :        0.001 s           0.000 s
  | Hartree multipole summation                :        0.405 s           0.405 s
  | Integration                                :        0.218 s           0.218 s
  | Solution of K.-S. eqns.                    :        0.435 s           0.435 s
  | Total energy evaluation                    :        0.000 s           0.000 s

  Partial memory accounting:
  | Current value for overall tracked memory usage on task 0  :          10.396 MB
  | Peak value for overall tracked memory usage on task 0     :          11.740 MB after allocating wave
  | Largest tracked array allocation on task 0 so far         :           9.999 MB  when allocating +KS_eigenvector_complex
  Note:  These values currently only include a subset of arrays which are explicitly tracked.
  The "true" memory usage will be greater.
------------------------------------------------------------

------------------------------------------------------------
          Begin self-consistency iteration #    5

  Date     :  20190514, Time     :  124306.317
------------------------------------------------------------
  Evaluating new KS density using the density matrix
  Evaluating density matrix
  Time summed over all CPUs for getting density from density matrix: real work        0.352 s, elapsed        0.352 s
  Integration grid: deviation in total charge (<rho> - N_e) =   8.334666E-12
  Pulay mixing of updated and previous charge densities.

  Evaluating partitioned Hartree potential by multipole expansion.
  | Analytical far-field extrapolation by fixed multipoles:
  | Hartree multipole sum: apparent total charge =  -0.470538E-02
  Summing up the Hartree potential.
  Time summed over all CPUs for potential: real work        0.399 s, elapsed        0.399 s
  | RMS charge density error from multipole expansion :   0.308979E-02
  | Average real-space part of the electrostatic potential :     -0.03274683 eV

  Integrating Hamiltonian matrix: batch-based integration.
  Time summed over all CPUs for integration: real work        0.220 s, elapsed        0.220 s

  Updating Kohn-Sham eigenvalues, eigenvectors, occupation numbers, and Fermi level.
  Solving generalized eigenproblem

  Obtaining occupation numbers and chemical potential using ELSI.
  | Chemical potential (Fermi level):    -5.38291003eV
  What follows are estimated values for band gap, HOMO, LUMO, etc.
  | They are estimated on a discrete k-point grid and not necessarily exact.
  | For converged numbers, create a DOS and/or band structure plot on a denser k-grid.

  Highest occupied state (VBM) at     -5.38942440 eV (relative to internal zero)
  | Occupation number:      1.14618609
  | K-point:     865 at    0.916667    0.833333    0.916667 (in units of recip. lattice)

  Lowest unoccupied state (CBM) at    -5.38227078 eV (relative to internal zero)
  | Occupation number:      0.98557459
  | K-point:     399 at    0.333333    0.000000    0.000000 (in units of recip. lattice)

  ESTIMATED overall HOMO-LUMO gap:      0.00715362 eV between HOMO at k-point 865 and LUMO at k-point 399
  | This appears to be an indirect band gap.
  | Smallest direct gap :      0.43776515 eV for k_point 17 at    0.333333    0.000000    0.000000 (in units of recip. lattice)
  However, this system has fractional occupation numbers. Since we use a finite k-point grid,
  this material is metallic within the approximate finite broadening function (occupation_type)
  applied to determine the occupation numbers.

  Total energy components:
  | Sum of eigenvalues            :        -327.53233020 Ha       -8912.60817326 eV
  | XC energy correction          :         -39.39817419 Ha       -1072.07886653 eV
  | XC potential correction       :          52.05334499 Ha        1416.44358498 eV
  | Free-atom electrostatic energy:        -264.17060424 Ha       -7188.44788549 eV
  | Hartree energy correction     :           0.40370901 Ha          10.98548101 eV
  | Entropy correction            :          -0.00001079 Ha          -0.00029353 eV
  | ---------------------------
  | Total energy                  :        -578.64405463 Ha      -15745.70585929 eV
  | Total energy, T -> 0          :        -578.64406542 Ha      -15745.70615281 eV  <-- do not rely on this value for anything but (periodic) metals
  | Electronic free energy        :        -578.64407621 Ha      -15745.70644634 eV

  Derived energy quantities:
  | Kinetic energy                :         578.68681163 Ha       15746.86933634 eV
  | Electrostatic energy          :       -1117.93269207 Ha      -30420.49632910 eV
  | Energy correction for multipole
  | error in Hartree potential    :           0.00202627 Ha           0.05513748 eV
  | Sum of eigenvalues per atom                           :       -4456.30408663 eV
  | Total energy (T->0) per atom                          :       -7872.85307641 eV  <-- do not rely on this value for anything but (periodic) metals
  | Electronic free energy per atom                       :       -7872.85322317 eV

  Self-consistency convergence accuracy:
  | Change of charge density      :  0.5244E-02
  | Change of sum of eigenvalues  :  0.2985E+00 eV
  | Change of total energy        :  0.2212E-03 eV

  End self-consistency iteration #     5       :  max(cpu_time)    wall_clock(cpu1)
  | Time for this iteration                    :        1.487 s           1.487 s
  | Charge density update                      :        0.392 s           0.392 s
  | Density mixing & preconditioning           :        0.037 s           0.037 s
  | Hartree multipole update                   :        0.001 s           0.001 s
  | Hartree multipole summation                :        0.403 s           0.402 s
  | Integration                                :        0.220 s           0.220 s
  | Solution of K.-S. eqns.                    :        0.435 s           0.435 s
  | Total energy evaluation                    :        0.000 s           0.000 s

  Partial memory accounting:
  | Current value for overall tracked memory usage on task 0  :          10.396 MB
  | Peak value for overall tracked memory usage on task 0     :          11.740 MB after allocating wave
  | Largest tracked array allocation on task 0 so far         :           9.999 MB  when allocating +KS_eigenvector_complex
  Note:  These values currently only include a subset of arrays which are explicitly tracked.
  The "true" memory usage will be greater.
------------------------------------------------------------

------------------------------------------------------------
          Begin self-consistency iteration #    6

  Date     :  20190514, Time     :  124307.804
------------------------------------------------------------
  Evaluating new KS density using the density matrix
  Evaluating density matrix
  Time summed over all CPUs for getting density from density matrix: real work        0.354 s, elapsed        0.354 s
  Integration grid: deviation in total charge (<rho> - N_e) =   8.391510E-12
  Pulay mixing of updated and previous charge densities.

  Evaluating partitioned Hartree potential by multipole expansion.
  | Analytical far-field extrapolation by fixed multipoles:
  | Hartree multipole sum: apparent total charge =   0.265193E-02
  Summing up the Hartree potential.
  Time summed over all CPUs for potential: real work        0.403 s, elapsed        0.403 s
  | RMS charge density error from multipole expansion :   0.316086E-02
  | Average real-space part of the electrostatic potential :     -0.03816166 eV

  Integrating Hamiltonian matrix: batch-based integration.
  Time summed over all CPUs for integration: real work        0.217 s, elapsed        0.217 s

  Updating Kohn-Sham eigenvalues, eigenvectors, occupation numbers, and Fermi level.
  Solving generalized eigenproblem

  Obtaining occupation numbers and chemical potential using ELSI.
  | Chemical potential (Fermi level):    -5.36187835eV
  What follows are estimated values for band gap, HOMO, LUMO, etc.
  | They are estimated on a discrete k-point grid and not necessarily exact.
  | For converged numbers, create a DOS and/or band structure plot on a denser k-grid.

  Highest occupied state (VBM) at     -5.36269242 eV (relative to internal zero)
  | Occupation number:      1.01837000
  | K-point:     399 at    0.333333    0.000000    0.000000 (in units of recip. lattice)

  Lowest unoccupied state (CBM) at    -5.35677362 eV (relative to internal zero)
  | Occupation number:      0.88519747
  | K-point:       2 at    0.000000    0.000000    0.083333 (in units of recip. lattice)

  ESTIMATED overall HOMO-LUMO gap:      0.00591881 eV between HOMO at k-point 399 and LUMO at k-point 2
  | This appears to be an indirect band gap.
  | Smallest direct gap :      0.43795325 eV for k_point 7 at    0.000000    0.000000    0.083333 (in units of recip. lattice)
  However, this system has fractional occupation numbers. Since we use a finite k-point grid,
  this material is metallic within the approximate finite broadening function (occupation_type)
  applied to determine the occupation numbers.

  Total energy components:
  | Sum of eigenvalues            :        -327.45383870 Ha       -8910.47231073 eV
  | XC energy correction          :         -39.40342230 Ha       -1072.22167473 eV
  | XC potential correction       :          52.06032631 Ha        1416.63355646 eV
  | Free-atom electrostatic energy:        -264.17060424 Ha       -7188.44788549 eV
  | Hartree energy correction     :           0.32347552 Ha           8.80221667 eV
  | Entropy correction            :          -0.00001078 Ha          -0.00029344 eV
  | ---------------------------
  | Total energy                  :        -578.64406340 Ha      -15745.70609782 eV
  | Total energy, T -> 0          :        -578.64407418 Ha      -15745.70639126 eV  <-- do not rely on this value for anything but (periodic) metals
  | Electronic free energy        :        -578.64408497 Ha      -15745.70668471 eV

  Derived energy quantities:
  | Kinetic energy                :         578.77300941 Ha       15749.21489719 eV
  | Electrostatic energy          :       -1118.01365051 Ha      -30422.69932028 eV
  | Energy correction for multipole
  | error in Hartree potential    :           0.00227421 Ha           0.06188431 eV
  | Sum of eigenvalues per atom                           :       -4455.23615537 eV
  | Total energy (T->0) per atom                          :       -7872.85319563 eV  <-- do not rely on this value for anything but (periodic) metals
  | Electronic free energy per atom                       :       -7872.85334235 eV

  Self-consistency convergence accuracy:
  | Change of charge density      :  0.2306E-02
  | Change of sum of eigenvalues  :  0.2136E+01 eV
  | Change of total energy        : -0.2385E-03 eV

  End self-consistency iteration #     6       :  max(cpu_time)    wall_clock(cpu1)
  | Time for this iteration                    :        1.494 s           1.494 s
  | Charge density update                      :        0.392 s           0.393 s
  | Density mixing & preconditioning           :        0.037 s           0.036 s
  | Hartree multipole update                   :        0.001 s           0.001 s
  | Hartree multipole summation                :        0.407 s           0.407 s
  | Integration                                :        0.217 s           0.217 s
  | Solution of K.-S. eqns.                    :        0.440 s           0.440 s
  | Total energy evaluation                    :        0.000 s           0.000 s

  Partial memory accounting:
  | Current value for overall tracked memory usage on task 0  :          10.397 MB
  | Peak value for overall tracked memory usage on task 0     :          11.740 MB after allocating wave
  | Largest tracked array allocation on task 0 so far         :           9.999 MB  when allocating +KS_eigenvector_complex
  Note:  These values currently only include a subset of arrays which are explicitly tracked.
  The "true" memory usage will be greater.
------------------------------------------------------------

------------------------------------------------------------
          Begin self-consistency iteration #    7

  Date     :  20190514, Time     :  124309.299
------------------------------------------------------------
  Evaluating new KS density using the density matrix
  Evaluating density matrix
  Time summed over all CPUs for getting density from density matrix: real work        0.354 s, elapsed        0.354 s
  Integration grid: deviation in total charge (<rho> - N_e) =   8.263612E-12
  Pulay mixing of updated and previous charge densities.

  Evaluating partitioned Hartree potential by multipole expansion.
  | Analytical far-field extrapolation by fixed multipoles:
  | Hartree multipole sum: apparent total charge =   0.232786E-02
  Summing up the Hartree potential.
  Time summed over all CPUs for potential: real work        0.403 s, elapsed        0.403 s
  | RMS charge density error from multipole expansion :   0.312745E-02
  | Average real-space part of the electrostatic potential :     -0.03809746 eV

  Integrating Hamiltonian matrix: batch-based integration.
  Time summed over all CPUs for integration: real work        0.216 s, elapsed        0.216 s

  Updating Kohn-Sham eigenvalues, eigenvectors, occupation numbers, and Fermi level.
  Solving generalized eigenproblem

  Obtaining occupation numbers and chemical potential using ELSI.
  | Chemical potential (Fermi level):    -5.36460695eV
  What follows are estimated values for band gap, HOMO, LUMO, etc.
  | They are estimated on a discrete k-point grid and not necessarily exact.
  | For converged numbers, create a DOS and/or band structure plot on a denser k-grid.

  Highest occupied state (VBM) at     -5.36473821 eV (relative to internal zero)
  | Occupation number:      1.00296214
  | K-point:     399 at    0.333333    0.000000    0.000000 (in units of recip. lattice)

  Lowest unoccupied state (CBM) at    -5.35969174 eV (relative to internal zero)
  | Occupation number:      0.88943175
  | K-point:       2 at    0.000000    0.000000    0.083333 (in units of recip. lattice)

  ESTIMATED overall HOMO-LUMO gap:      0.00504647 eV between HOMO at k-point 399 and LUMO at k-point 2
  | This appears to be an indirect band gap.
  | Smallest direct gap :      0.43835256 eV for k_point 7 at    0.000000    0.000000    0.083333 (in units of recip. lattice)
  However, this system has fractional occupation numbers. Since we use a finite k-point grid,
  this material is metallic within the approximate finite broadening function (occupation_type)
  applied to determine the occupation numbers.

  Total energy components:
  | Sum of eigenvalues            :        -327.45672675 Ha       -8910.55089882 eV
  | XC energy correction          :         -39.40319747 Ha       -1072.21555689 eV
  | XC potential correction       :          52.06002983 Ha        1416.62548880 eV
  | Free-atom electrostatic energy:        -264.17060424 Ha       -7188.44788549 eV
  | Hartree energy correction     :           0.32643664 Ha           8.88279285 eV
  | Entropy correction            :          -0.00001079 Ha          -0.00029351 eV
  | ---------------------------
  | Total energy                  :        -578.64406199 Ha      -15745.70605955 eV
  | Total energy, T -> 0          :        -578.64407278 Ha      -15745.70635306 eV  <-- do not rely on this value for anything but (periodic) metals
  | Electronic free energy        :        -578.64408357 Ha      -15745.70664656 eV

  Derived energy quantities:
  | Kinetic energy                :         578.77351617 Ha       15749.22868698 eV
  | Electrostatic energy          :       -1118.01438070 Ha      -30422.71918964 eV
  | Energy correction for multipole
  | error in Hartree potential    :           0.00224420 Ha           0.06106780 eV
  | Sum of eigenvalues per atom                           :       -4455.27544941 eV
  | Total energy (T->0) per atom                          :       -7872.85317653 eV  <-- do not rely on this value for anything but (periodic) metals
  | Electronic free energy per atom                       :       -7872.85332328 eV

  Self-consistency convergence accuracy:
  | Change of charge density      :  0.2304E-02
  | Change of sum of eigenvalues  : -0.7859E-01 eV
  | Change of total energy        :  0.3827E-04 eV

  End self-consistency iteration #     7       :  max(cpu_time)    wall_clock(cpu1)
  | Time for this iteration                    :        1.487 s           1.486 s
  | Charge density update                      :        0.392 s           0.392 s
  | Density mixing & preconditioning           :        0.036 s           0.036 s
  | Hartree multipole update                   :        0.001 s           0.001 s
  | Hartree multipole summation                :        0.406 s           0.406 s
  | Integration                                :        0.216 s           0.216 s
  | Solution of K.-S. eqns.                    :        0.435 s           0.435 s
  | Total energy evaluation                    :        0.000 s           0.000 s

  Partial memory accounting:
  | Current value for overall tracked memory usage on task 0  :          10.397 MB
  | Peak value for overall tracked memory usage on task 0     :          11.740 MB after allocating wave
  | Largest tracked array allocation on task 0 so far         :           9.999 MB  when allocating +KS_eigenvector_complex
  Note:  These values currently only include a subset of arrays which are explicitly tracked.
  The "true" memory usage will be greater.
------------------------------------------------------------

------------------------------------------------------------
          Begin self-consistency iteration #    8

  Date     :  20190514, Time     :  124310.785
------------------------------------------------------------
  Evaluating new KS density using the density matrix
  Evaluating density matrix
  Time summed over all CPUs for getting density from density matrix: real work        0.352 s, elapsed        0.352 s
  Integration grid: deviation in total charge (<rho> - N_e) =   8.402168E-12
  Pulay mixing of updated and previous charge densities.

  Evaluating partitioned Hartree potential by multipole expansion.
  | Analytical far-field extrapolation by fixed multipoles:
  | Hartree multipole sum: apparent total charge =   0.141099E-02
  Summing up the Hartree potential.
  Time summed over all CPUs for potential: real work        0.400 s, elapsed        0.400 s
  | RMS charge density error from multipole expansion :   0.314665E-02
  | Average real-space part of the electrostatic potential :     -0.04029621 eV

  Integrating Hamiltonian matrix: batch-based integration.
  Time summed over all CPUs for integration: real work        0.217 s, elapsed        0.217 s

  Updating Kohn-Sham eigenvalues, eigenvectors, occupation numbers, and Fermi level.
  Solving generalized eigenproblem

  Obtaining occupation numbers and chemical potential using ELSI.
  | Chemical potential (Fermi level):    -5.37105041eV
  What follows are estimated values for band gap, HOMO, LUMO, etc.
  | They are estimated on a discrete k-point grid and not necessarily exact.
  | For converged numbers, create a DOS and/or band structure plot on a denser k-grid.

  Highest occupied state (VBM) at     -5.37741022 eV (relative to internal zero)
  | Occupation number:      1.14275539
  | K-point:      85 at    0.083333    0.083333    0.166667 (in units of recip. lattice)

  Lowest unoccupied state (CBM) at    -5.37086304 eV (relative to internal zero)
  | Occupation number:      0.99577153
  | K-point:      35 at    0.000000    0.333333    0.000000 (in units of recip. lattice)

  ESTIMATED overall HOMO-LUMO gap:      0.00654719 eV between HOMO at k-point 85 and LUMO at k-point 35
  | This appears to be an indirect band gap.
  | Smallest direct gap :      0.43799769 eV for k_point 7 at    0.000000    0.333333    0.000000 (in units of recip. lattice)
  However, this system has fractional occupation numbers. Since we use a finite k-point grid,
  this material is metallic within the approximate finite broadening function (occupation_type)
  applied to determine the occupation numbers.

  Total energy components:
  | Sum of eigenvalues            :        -327.49126344 Ha       -8911.49068999 eV
  | XC energy correction          :         -39.40018368 Ha       -1072.13354761 eV
  | XC potential correction       :          52.05603482 Ha        1416.51677916 eV
  | Free-atom electrostatic energy:        -264.17060424 Ha       -7188.44788549 eV
  | Hartree energy correction     :           0.36196019 Ha           9.84943801 eV
  | Entropy correction            :          -0.00001079 Ha          -0.00029351 eV
  | ---------------------------
  | Total energy                  :        -578.64405635 Ha      -15745.70590593 eV
  | Total energy, T -> 0          :        -578.64406713 Ha      -15745.70619945 eV  <-- do not rely on this value for anything but (periodic) metals
  | Electronic free energy        :        -578.64407792 Ha      -15745.70649296 eV

  Derived energy quantities:
  | Kinetic energy                :         578.73398961 Ha       15748.15311440 eV
  | Electrostatic energy          :       -1117.97786227 Ha      -30421.72547273 eV
  | Energy correction for multipole
  | error in Hartree potential    :           0.00222506 Ha           0.06054687 eV
  | Sum of eigenvalues per atom                           :       -4455.74534500 eV
  | Total energy (T->0) per atom                          :       -7872.85309972 eV  <-- do not rely on this value for anything but (periodic) metals
  | Electronic free energy per atom                       :       -7872.85324648 eV

  Self-consistency convergence accuracy:
  | Change of charge density      :  0.2202E-02
  | Change of sum of eigenvalues  : -0.9398E+00 eV
  | Change of total energy        :  0.1536E-03 eV

  End self-consistency iteration #     8       :  max(cpu_time)    wall_clock(cpu1)
  | Time for this iteration                    :        1.481 s           1.482 s
  | Charge density update                      :        0.390 s           0.390 s
  | Density mixing & preconditioning           :        0.037 s           0.037 s
  | Hartree multipole update                   :        0.001 s           0.000 s
  | Hartree multipole summation                :        0.404 s           0.405 s
  | Integration                                :        0.218 s           0.217 s
  | Solution of K.-S. eqns.                    :        0.432 s           0.432 s
  | Total energy evaluation                    :        0.000 s           0.001 s

  Partial memory accounting:
  | Current value for overall tracked memory usage on task 0  :          10.397 MB
  | Peak value for overall tracked memory usage on task 0     :          11.740 MB after allocating wave
  | Largest tracked array allocation on task 0 so far         :           9.999 MB  when allocating +KS_eigenvector_complex
  Note:  These values currently only include a subset of arrays which are explicitly tracked.
  The "true" memory usage will be greater.
------------------------------------------------------------

------------------------------------------------------------
          Begin self-consistency iteration #    9

  Date     :  20190514, Time     :  124312.267
------------------------------------------------------------
  Evaluating new KS density using the density matrix
  Evaluating density matrix
  Time summed over all CPUs for getting density from density matrix: real work        0.349 s, elapsed        0.349 s
  Integration grid: deviation in total charge (<rho> - N_e) =   8.284928E-12
  Pulay mixing of updated and previous charge densities.

  Evaluating partitioned Hartree potential by multipole expansion.
  | Analytical far-field extrapolation by fixed multipoles:
  | Hartree multipole sum: apparent total charge =   0.132708E-02
  Summing up the Hartree potential.
  Time summed over all CPUs for potential: real work        0.401 s, elapsed        0.401 s
  | RMS charge density error from multipole expansion :   0.314362E-02
  | Average real-space part of the electrostatic potential :     -0.04082167 eV

  Integrating Hamiltonian matrix: batch-based integration.
  Time summed over all CPUs for integration: real work        0.214 s, elapsed        0.214 s

  Updating Kohn-Sham eigenvalues, eigenvectors, occupation numbers, and Fermi level.
  Solving generalized eigenproblem

  Obtaining occupation numbers and chemical potential using ELSI.
  | Chemical potential (Fermi level):    -5.37224021eV
  What follows are estimated values for band gap, HOMO, LUMO, etc.
  | They are estimated on a discrete k-point grid and not necessarily exact.
  | For converged numbers, create a DOS and/or band structure plot on a denser k-grid.

  Highest occupied state (VBM) at     -5.37863637 eV (relative to internal zero)
  | Occupation number:      1.14356245
  | K-point:      85 at    0.083333    0.083333    0.166667 (in units of recip. lattice)

  Lowest unoccupied state (CBM) at    -5.37194186 eV (relative to internal zero)
  | Occupation number:      0.99326700
  | K-point:      35 at    0.000000    0.333333    0.000000 (in units of recip. lattice)

  ESTIMATED overall HOMO-LUMO gap:      0.00669452 eV between HOMO at k-point 85 and LUMO at k-point 35
  | This appears to be an indirect band gap.
  | Smallest direct gap :      0.43798452 eV for k_point 202 at    0.000000    0.333333    0.000000 (in units of recip. lattice)
  However, this system has fractional occupation numbers. Since we use a finite k-point grid,
  this material is metallic within the approximate finite broadening function (occupation_type)
[...]
  | Largest tracked array allocation on task 0 so far         :           9.999 MB  when allocating +KS_eigenvector_complex
  Note:  These values currently only include a subset of arrays which are explicitly tracked.
  The "true" memory usage will be greater.
------------------------------------------------------------

------------------------------------------------------------
          Begin self-consistency iteration #   12

  Date     :  20190514, Time     :  124316.727
------------------------------------------------------------
  Evaluating new KS density using the density matrix
  Evaluating density matrix
  Time summed over all CPUs for getting density from density matrix: real work        0.349 s, elapsed        0.349 s
  Integration grid: deviation in total charge (<rho> - N_e) =   8.277823E-12
  Pulay mixing of updated and previous charge densities.

  Evaluating partitioned Hartree potential by multipole expansion.
  | Analytical far-field extrapolation by fixed multipoles:
  | Hartree multipole sum: apparent total charge =   0.123318E-02
  Summing up the Hartree potential.
  Time summed over all CPUs for potential: real work        0.400 s, elapsed        0.400 s
  | RMS charge density error from multipole expansion :   0.314620E-02
  | Average real-space part of the electrostatic potential :     -0.04052037 eV

  Integrating Hamiltonian matrix: batch-based integration.
  Time summed over all CPUs for integration: real work        0.216 s, elapsed        0.216 s

  Updating Kohn-Sham eigenvalues, eigenvectors, occupation numbers, and Fermi level.
  Solving generalized eigenproblem

  Obtaining occupation numbers and chemical potential using ELSI.
  | Chemical potential (Fermi level):    -5.37194832eV
  What follows are estimated values for band gap, HOMO, LUMO, etc.
  | They are estimated on a discrete k-point grid and not necessarily exact.
  | For converged numbers, create a DOS and/or band structure plot on a denser k-grid.

  Highest occupied state (VBM) at     -5.37831820 eV (relative to internal zero)
  | Occupation number:      1.14297886
  | K-point:      85 at    0.083333    0.083333    0.166667 (in units of recip. lattice)

  Lowest unoccupied state (CBM) at    -5.37173661 eV (relative to internal zero)
  | Occupation number:      0.99522207
  | K-point:     399 at    0.333333    0.000000    0.000000 (in units of recip. lattice)

  ESTIMATED overall HOMO-LUMO gap:      0.00658160 eV between HOMO at k-point 85 and LUMO at k-point 399
  | This appears to be an indirect band gap.
  | Smallest direct gap :      0.43794063 eV for k_point 7 at    0.333333    0.000000    0.000000 (in units of recip. lattice)
  However, this system has fractional occupation numbers. Since we use a finite k-point grid,
  this material is metallic within the approximate finite broadening function (occupation_type)
  applied to determine the occupation numbers.

  Total energy components:
  | Sum of eigenvalues            :        -327.49588961 Ha       -8911.61657445 eV
  | XC energy correction          :         -39.39979565 Ha       -1072.12298874 eV
  | XC potential correction       :          52.05552025 Ha        1416.50277693 eV
  | Free-atom electrostatic energy:        -264.17060424 Ha       -7188.44788549 eV
  | Hartree energy correction     :           0.36671325 Ha           9.97877517 eV
  | Entropy correction            :          -0.00001079 Ha          -0.00029351 eV
  | ---------------------------
  | Total energy                  :        -578.64405600 Ha      -15745.70589659 eV
  | Total energy, T -> 0          :        -578.64406679 Ha      -15745.70619011 eV  <-- do not rely on this value for anything but (periodic) metals
  | Electronic free energy        :        -578.64407758 Ha      -15745.70648362 eV

  Derived energy quantities:
  | Kinetic energy                :         578.72878235 Ha       15748.01141775 eV
  | Electrostatic energy          :       -1117.97304270 Ha      -30421.59432560 eV
  | Energy correction for multipole
  | error in Hartree potential    :           0.00221714 Ha           0.06033135 eV
  | Sum of eigenvalues per atom                           :       -4455.80828723 eV
  | Total energy (T->0) per atom                          :       -7872.85309505 eV  <-- do not rely on this value for anything but (periodic) metals
  | Electronic free energy per atom                       :       -7872.85324181 eV

  Self-consistency convergence accuracy:
  | Change of charge density      :  0.2691E-05
  | Change of sum of eigenvalues  : -0.3051E-03 eV
  | Change of total energy        :  0.3145E-07 eV

  End self-consistency iteration #    12       :  max(cpu_time)    wall_clock(cpu1)
  | Time for this iteration                    :        1.474 s           1.474 s
  | Charge density update                      :        0.387 s           0.386 s
  | Density mixing & preconditioning           :        0.035 s           0.036 s
  | Hartree multipole update                   :        0.001 s           0.000 s
  | Hartree multipole summation                :        0.403 s           0.404 s
  | Integration                                :        0.216 s           0.216 s
  | Solution of K.-S. eqns.                    :        0.432 s           0.432 s
  | Total energy evaluation                    :        0.000 s           0.000 s

  Partial memory accounting:
  | Current value for overall tracked memory usage on task 0  :          10.397 MB
  | Peak value for overall tracked memory usage on task 0     :          11.740 MB after allocating wave
  | Largest tracked array allocation on task 0 so far         :           9.999 MB  when allocating +KS_eigenvector_complex
  Note:  These values currently only include a subset of arrays which are explicitly tracked.
  The "true" memory usage will be greater.
------------------------------------------------------------

------------------------------------------------------------
          Begin self-consistency iteration #   13

  Date     :  20190514, Time     :  124318.201
------------------------------------------------------------
  Evaluating new KS density using the density matrix
  Evaluating density matrix
  Time summed over all CPUs for getting density from density matrix: real work        0.348 s, elapsed        0.348 s
  Integration grid: deviation in total charge (<rho> - N_e) =   8.249401E-12
  Pulay mixing of updated and previous charge densities.

  Evaluating partitioned Hartree potential by multipole expansion.
  | Analytical far-field extrapolation by fixed multipoles:
  | Hartree multipole sum: apparent total charge =   0.123345E-02
  Summing up the Hartree potential.
  Time summed over all CPUs for potential: real work        0.401 s, elapsed        0.401 s
  | RMS charge density error from multipole expansion :   0.314620E-02
  | Average real-space part of the electrostatic potential :     -0.04052184 eV

  Integrating Hamiltonian matrix: batch-based integration.
  Time summed over all CPUs for integration: real work        0.215 s, elapsed        0.215 s

  Updating Kohn-Sham eigenvalues, eigenvectors, occupation numbers, and Fermi level.
  Solving generalized eigenproblem

  Obtaining occupation numbers and chemical potential using ELSI.
  | Chemical potential (Fermi level):    -5.37194895eV
  What follows are estimated values for band gap, HOMO, LUMO, etc.
  | They are estimated on a discrete k-point grid and not necessarily exact.
  | For converged numbers, create a DOS and/or band structure plot on a denser k-grid.

  Highest occupied state (VBM) at     -5.37831886 eV (relative to internal zero)
  | Occupation number:      1.14297960
  | K-point:     174 at    0.083333    0.916667    0.000000 (in units of recip. lattice)

  Lowest unoccupied state (CBM) at    -5.37173712 eV (relative to internal zero)
  | Occupation number:      0.99521965
  | K-point:       4 at    0.000000    0.000000    0.333333 (in units of recip. lattice)

  ESTIMATED overall HOMO-LUMO gap:      0.00658174 eV between HOMO at k-point 174 and LUMO at k-point 4
  | This appears to be an indirect band gap.
  | Smallest direct gap :      0.43794067 eV for k_point 17 at    0.000000    0.000000    0.333333 (in units of recip. lattice)
  However, this system has fractional occupation numbers. Since we use a finite k-point grid,
  this material is metallic within the approximate finite broadening function (occupation_type)
  applied to determine the occupation numbers.

  Total energy components:
  | Sum of eigenvalues            :        -327.49589043 Ha       -8911.61659666 eV
  | XC energy correction          :         -39.39979555 Ha       -1072.12298600 eV
  | XC potential correction       :          52.05552012 Ha        1416.50277338 eV
  | Free-atom electrostatic energy:        -264.17060424 Ha       -7188.44788549 eV
  | Hartree energy correction     :           0.36671409 Ha           9.97879818 eV
  | Entropy correction            :          -0.00001079 Ha          -0.00029351 eV
  | ---------------------------
  | Total energy                  :        -578.64405600 Ha      -15745.70589659 eV
  | Total energy, T -> 0          :        -578.64406679 Ha      -15745.70619010 eV  <-- do not rely on this value for anything but (periodic) metals
  | Electronic free energy        :        -578.64407758 Ha      -15745.70648362 eV

  Derived energy quantities:
  | Kinetic energy                :         578.72878266 Ha       15748.01142609 eV
  | Electrostatic energy          :       -1117.97304311 Ha      -30421.59433668 eV
  | Energy correction for multipole
  | error in Hartree potential    :           0.00221712 Ha           0.06033103 eV
  | Sum of eigenvalues per atom                           :       -4455.80829833 eV
  | Total energy (T->0) per atom                          :       -7872.85309505 eV  <-- do not rely on this value for anything but (periodic) metals
  | Electronic free energy per atom                       :       -7872.85324181 eV

  Self-consistency convergence accuracy:
  | Change of charge density      :  0.1093E-06
  | Change of sum of eigenvalues  : -0.2220E-04 eV
  | Change of total energy        :  0.2401E-08 eV

  Preliminary charge convergence reached. Turning off preconditioner.

  Writing Kohn-Sham eigenvalues.
  K-point:       1 at    0.000000    0.000000    0.000000 (in units of recip. lattice)

  State    Occupation    Eigenvalue [Ha]    Eigenvalue [eV]
      1       2.00000         -65.518295        -1782.84353
      2       2.00000         -65.518295        -1782.84353
      3       2.00000          -5.109520         -139.03710
      4       2.00000          -5.109507         -139.03677
      5       2.00000          -3.524022          -95.89353
      6       2.00000          -3.524022          -95.89353
      7       2.00000          -3.524022          -95.89353
      8       2.00000          -3.523977          -95.89229
      9       2.00000          -3.523977          -95.89229
     10       2.00000          -3.523977          -95.89229
     11       2.00000          -0.521488          -14.19041
     12       2.00000          -0.268121           -7.29594
     13       0.02527          -0.194509           -5.29285
     14       0.02527          -0.194509           -5.29285
     15       0.02527          -0.194509           -5.29285
     16       0.00000          -0.116230           -3.16279
     17       0.00000          -0.116230           -3.16279
     18       0.00000          -0.116230           -3.16279
     19       0.00000           0.098048            2.66802
     20       0.00000           0.098048            2.66802

  What follows are estimated values for band gap, HOMO, LUMO, etc.
  | They are estimated on a discrete k-point grid and not necessarily exact.
  | For converged numbers, create a DOS and/or band structure plot on a denser k-grid.

  Highest occupied state (VBM) at     -5.37831886 eV (relative to internal zero)
  | Occupation number:      1.14297960
  | K-point:     174 at    0.083333    0.916667    0.000000 (in units of recip. lattice)

  Lowest unoccupied state (CBM) at    -5.37173712 eV (relative to internal zero)
  | Occupation number:      0.99521965
  | K-point:       4 at    0.000000    0.000000    0.333333 (in units of recip. lattice)

  ESTIMATED overall HOMO-LUMO gap:      0.00658174 eV between HOMO at k-point 174 and LUMO at k-point 4
  | This appears to be an indirect band gap.
  | Smallest direct gap :      0.43794067 eV for k_point 17 at    0.000000    0.000000    0.333333 (in units of recip. lattice)
  However, this system has fractional occupation numbers. Since we use a finite k-point grid,
  this material is metallic within the approximate finite broadening function (occupation_type)
  applied to determine the occupation numbers.

  Self-consistency cycle converged.

  End self-consistency iteration #    13       :  max(cpu_time)    wall_clock(cpu1)
  | Time for this iteration                    :        1.480 s           1.480 s
  | Charge density update                      :        0.386 s           0.386 s
  | Density mixing                             :        0.036 s           0.036 s
  | Hartree multipole update                   :        0.001 s           0.001 s
  | Hartree multipole summation                :        0.405 s           0.404 s
  | Integration                                :        0.215 s           0.215 s
  | Solution of K.-S. eqns.                    :        0.437 s           0.437 s
  | Total energy evaluation                    :        0.000 s           0.001 s

  Partial memory accounting:
  | Current value for overall tracked memory usage on task 0  :          10.397 MB
  | Peak value for overall tracked memory usage on task 0     :          11.740 MB after allocating wave
  | Largest tracked array allocation on task 0 so far         :           9.999 MB  when allocating +KS_eigenvector_complex
  Note:  These values currently only include a subset of arrays which are explicitly tracked.
  The "true" memory usage will be greater.
------------------------------------------------------------

  Energy and forces in a compact form:
  | Total energy uncorrected      :         -0.157457058965883E+05 eV
  | Total energy corrected        :         -0.157457061901031E+05 eV  <-- do not rely on this value for anything but (periodic) metals
  | Electronic free energy        :         -0.157457064836178E+05 eV

  ------------------------------------ 
  Start decomposition of the XC Energy 
  ------------------------------------ 
  X and C from original XC functional choice 
  Hartree-Fock Energy :          0.000000000 Ha              0.000000000 eV
  X Energy            :        -37.277413337 Ha          -1014.370027486 eV
  C Energy            :         -2.122382215 Ha            -57.752958517 eV
  Total XC Energy     :        -39.399795553 Ha          -1072.122986003 eV
  ------------------------------------ 
  LDA X and C from self-consistent density 
  X Energy LDA        :        -37.277413337 Ha          -1014.370027486 eV
  C Energy LDA        :         -2.122382215 Ha            -57.752958517 eV
  ------------------------------------ 
  End decomposition of the XC Energy 
  ------------------------------------ 

------------------------------------------------------------

------------------------------------------------------------------------------
  Final output of selected total energy values:

  The following output summarizes some interesting total energy values
  at the end of a run (AFTER all relaxation, molecular dynamics, etc.).

  | Total energy of the DFT / Hartree-Fock s.c.f. calculation      :         -15745.705896588 eV
  | Final zero-broadening corrected energy (caution - metals only) :         -15745.706190103 eV
  | For reference only, the value of 1 Hartree used in FHI-aims is :             27.211384500 eV

  Before relying on these values, please be sure to understand exactly which
  total energy value is referred to by a given number. Different objects may
  all carry the same name 'total energy'. Definitions:

  Total energy of the DFT / Hartree-Fock s.c.f. calculation:
  | Note that this energy does not include ANY quantities calculated after the
  | s.c.f. cycle, in particular not ANY RPA, MP2, etc. many-body perturbation terms.

  Final zero-broadening corrected energy:
  | For metallic systems only, a broadening of the occupation numbers at the Fermi
  | level can be extrapolated back to zero broadening by an electron-gas inspired
  | formula. For all systems that are not real metals, this value can be
  | meaningless and should be avoided.

------------------------------------------------------------------------------
  Methods described in the following list of references were used in this FHI-aims run.
  If you publish the results, please make sure to cite these reference if they apply.
  FHI-aims is an academic code, and for our developers (often, Ph.D. students
  and postdocs), scientific credit in the community is essential.
  Thank you for helping us!

  For any use of FHI-aims, please cite:

    Volker Blum, Ralf Gehrke, Felix Hanke, Paula Havu, Ville Havu,
    Xinguo Ren, Karsten Reuter, and Matthias Scheffler
    'Ab initio molecular simulations with numeric atom-centered orbitals'
    Computer Physics Communications 180, 2175-2196 (2009)
    http://dx.doi.org/10.1016/j.cpc.2009.06.022


  For the real-space grid partitioning and parallelization used in this calculation, please cite:

    Ville Havu, Volker Blum, Paula Havu, and Matthias Scheffler,
    'Efficient O(N) integration for all-electron electronic structure calculation'
    'using numerically tabulated basis functions'
    Journal of Computational Physics 228, 8367-8379 (2009).
    http://dx.doi.org/10.1016/j.jcp.2009.08.008

  Of course, there are many other important community references, e.g., those cited in the
  above references. Our list is limited to references that describe implementations in the
  FHI-aims code. The reason is purely practical (length of this list) - please credit others as well.

------------------------------------------------------------
          Leaving FHI-aims.
          Date     :  20190514, Time     :  124319.689

          Computational steps:
          | Number of self-consistency cycles          :           13
          | Number of SCF (re)initializations          :            1

          Detailed time accounting                     :  max(cpu_time)    wall_clock(cpu1)
          | Total time                                 :       20.760 s          20.760 s
          | Preparation time                           :        0.090 s           0.091 s
          | Boundary condition initalization           :        0.034 s           0.033 s
          | Grid partitioning                          :        0.021 s           0.020 s
          | Preloading free-atom quantities on grid    :        0.001 s           0.001 s
          | Free-atom superposition energy             :        0.020 s           0.020 s
          | Total time for integrations                :        3.199 s           3.200 s
          | Total time for solution of K.-S. equations :        6.577 s           6.576 s
          | Total time for density update              :        5.063 s           5.062 s
          | Total time for mixing & preconditioning    :        0.472 s           0.474 s
          | Total time for Hartree multipole update    :        0.010 s           0.009 s
          | Total time for Hartree multipole sum       :        5.187 s           5.186 s
          | Total time for total energy evaluation     :        0.004 s           0.005 s
          | Total time for scaled ZORA corrections     :        0.000 s           0.000 s

 This is a stub MPI_ALLREDUCE call.
 You should not be here. Check your
 setting on the use_mpi variable, or
 link against true MPI-libraries.
