------------------------------------------------------------
          Invoking FHI-aims ...
          Version 171221_1
          Compiled on 2019/05/06 at 14:26:40 on host ffph0xx.

          When using FHI-aims, please cite the following reference:

          Volker Blum, Ralf Gehrke, Felix Hanke, Paula Havu,
          Ville Havu, Xinguo Ren, Karsten Reuter, and Matthias Scheffler,
          'Ab Initio Molecular Simulations with Numeric Atom-Centered Orbitals',
          Computer Physics Communications 180, 2175-2196 (2009)

          For any questions about FHI-aims, please visit the aimsclub website
          with its forums and wiki. Contributions to both the forums and the
          wiki are warmly encouraged - they are for you, and everyone is welcome there.

------------------------------------------------------------



  Date     :  20190508, Time     :  152731.883
  Time zero on CPU 1             :   0.257800000000000E-02  s.
  Internal wall clock time zero  :           326561251.883  s.

  FHI-aims created a unique identifier for this run for later identification
  aims_uuid : 3A80C305-581F-47C7-A04A-1B9E37473EFB


  Performing system and environment tests:
  *** Environment variable OMP_NUM_THREADS is not set
  *** For performance reasons you might want to set it to 1
  | Stacksize not measured: no C compiler

  Obtaining array dimensions for all initial allocations:
  
  -----------------------------------------------------------------------
  Parsing control.in (first pass over file, find array dimensions only).
  The contents of control.in will be repeated verbatim below
  unless switched off by setting 'verbatim_writeout .false.' .
  in the first line of control.in .
  -----------------------------------------------------------------------
  
  #--- Specification of method ---
  xc pbe
  charge 0.0
  spin collinear
  default_initial_moment 2.0
  #---
  
  #--- iteration limit ---
  sc_iter_limit 100
  
  # other possible thresholds
  # sc_accuracy_eev ... for sum of Kohn-Sham eigen values
  # sc_accuracy_etot .. total energy
  # sc_accuracy_rho ... electron density
  #---
  
  #--- tasks (what to calculate) ---
  output dipole
  #---
  
  
  ################################################################################
  ############# Species Defaults ####################
  ################################################################################
  
  
  ################################################################################
  #
  #  FHI-aims code project
  # Volker Blum, Fritz Haber Institute Berlin, 2009
  #
  #  Suggested "tight" defaults for O atom (to be pasted into control.in file)
  #
  ################################################################################
    species        O
  #     global species definitions
      nucleus             8
      mass                15.9994
  #
      l_hartree           6
  #
      cut_pot             4.0  2.0  1.0
      basis_dep_cutoff    1e-4
  #
      radial_base         36 7.0
      radial_multiplier   2
       angular_grids specified
        division   0.1817   50
        division   0.3417  110
        division   0.4949  194
        division   0.6251  302
        division   0.8014  434
  #      division   0.8507  590
  #      division   0.8762  770
  #      division   0.9023  974
  #      division   1.2339 1202
  #      outer_grid 974
        outer_grid  434
  ################################################################################
  #
  #  Definition of "minimal" basis
  #
  ################################################################################
  #     valence basis states
      valence      2  s   2.
      valence      2  p   4.
  #     ion occupancy
      ion_occ      2  s   1.
      ion_occ      2  p   3.
  ################################################################################
  #
  #  Suggested additional basis functions. For production calculations,
  #  uncomment them one after another (the most important basis functions are
  #  listed first).
  #
  #  Constructed for dimers: 1.0 A, 1.208 A, 1.5 A, 2.0 A, 3.0 A
  #
  ################################################################################
  #  "First tier" - improvements: -699.05 meV to -159.38 meV
       hydro 2 p 1.8
       hydro 3 d 7.6
       hydro 3 s 6.4
  #  "Second tier" - improvements: -49.91 meV to -5.39 meV
       hydro 4 f 11.6
       hydro 3 p 6.2
       hydro 3 d 5.6
       hydro 5 g 17.6
       hydro 1 s 0.75
  #  "Third tier" - improvements: -2.83 meV to -0.50 meV
  #     ionic 2 p auto
  #     hydro 4 f 10.8
  #     hydro 4 d 4.7
  #     hydro 2 s 6.8
  #  "Fourth tier" - improvements: -0.40 meV to -0.12 meV
  #     hydro 3 p 5
  #     hydro 3 s 3.3
  #     hydro 5 g 15.6
  #     hydro 4 f 17.6
  #     hydro 4 d 14
  # Further basis functions - -0.08 meV and below
  #     hydro 3 s 2.1
  #     hydro 4 d 11.6
  #     hydro 3 p 16
  #     hydro 2 s 17.2
  ################################################################################
  #
  # For methods that use the localized form of the "resolution of identity" for
  # the two-electron Coulomb operator (RI_method LVL), particularly Hartree-Fock and
  # hybrid density functional calculations, the highest accuracy can be obtained by
  # uncommenting the line beginning with "for_aux"  below, thus adding an extra g radial
  # function to the construction of the product basis set for the expansion.
  # See Ref. New J. Phys. 17, 093020 (2015) for more information, particularly Figs. 1 and 6.
  #
  ################################################################################
  #
  # for_aux hydro 5 g 6.0
  
  -----------------------------------------------------------------------
  Completed first pass over input file control.in .
  -----------------------------------------------------------------------
  
  
  -----------------------------------------------------------------------
  Parsing geometry.in (first pass over file, find array dimensions only).
  The contents of geometry.in will be repeated verbatim below
  unless switched off by setting 'verbatim_writeout .false.' .
  in the first line of geometry.in .
  -----------------------------------------------------------------------
  
  # HF with variable bonding distance
  atom 0.0 0.0 0.0 O
  atom 0.0 0.0 1.2 O
  
  -----------------------------------------------------------------------
  Completed first pass over input file geometry.in .
  -----------------------------------------------------------------------
  

  Basic array size parameters:
  | Number of species                 :        1
  | Number of atoms                   :        2
  | Max. basis fn. angular momentum   :        4
  | Max. atomic/ionic basis occupied n:        2
  | Max. number of basis fn. types    :        2
  | Max. radial fns per species/type  :        8
  | Max. logarithmic grid size        :     1301
  | Max. radial integration grid size :       73
  | Max. angular integration grid size:      434
  | Max. angular grid division number :        8
  | Radial grid for Hartree potential :     1301
  | Number of spin channels           :        2

------------------------------------------------------------
          Reading file control.in.
------------------------------------------------------------
  XC: Using PBE gradient-corrected functionals.
  Charge =   0.000000E+00: Neutral system requested explicitly.
  Spin treatment: Spin density functional theory - collinear spins.
  Initial spin moment per atom:   2.0000
  Maximum number of s.-c. iterations  :   100
  Dipole moment will be written out.

  Reading configuration options for species O                   .
  | Found nuclear charge :   8.0000
  | Found atomic mass :    15.999400000000000      amu
  | Found l_max for Hartree potential  :   6
  | Found cutoff potl. onset [A], width [A], scale factor :    4.00000    2.00000    1.00000
  | Threshold for basis-dependent cutoff potential is   0.100000E-03
  | Found data for basic radial integration grid :    36 points, outermost radius =    7.000 A
  | Found multiplier for basic radial grid :   2
  | Found angular grid specification: user-specified.
  | Specified grid contains     6 separate shells.
  | Check grid settings after all constraints further below.
  | Found free-atom valence shell :  2 s   2.000
  | Found free-atom valence shell :  2 p   4.000
  | No ionic wave fns used. Skipping ion_occ.
  | No ionic wave fns used. Skipping ion_occ.
  | Found hydrogenic basis function :  2 p   1.800
  | Found hydrogenic basis function :  3 d   7.600
  | Found hydrogenic basis function :  3 s   6.400
  | Found hydrogenic basis function :  4 f  11.600
  | Found hydrogenic basis function :  3 p   6.200
  | Found hydrogenic basis function :  3 d   5.600
  | Found hydrogenic basis function :  5 g  17.600
  | Found hydrogenic basis function :  1 s   0.750
  Species O                   : Missing cutoff potential type.
  Defaulting to exp(1/x)/(1-x)^2 type cutoff potential.
  Species O : No 'logarithmic' tag. Using default grid for free atom:
  | Default logarithmic grid data [bohr] : 0.1000E-03 0.1000E+03 0.1012E+01
  Species O : On-site basis accuracy parameter (for Gram-Schmidt orthonormalisation) not specified.
  Using default value basis_acc =  0.1000000E-03.
  Species O                   : Using default innermost maximum threshold i_radial=  2 for radial functions.
  Species O                   : Default cutoff onset for free atom density etc. : 0.40000000E+01 AA.
  Species O                   : Basic radial grid will be enhanced according to radial_multiplier =   2, to contain    73 grid points.

  Finished reading input file 'control.in'. Consistency checks are next.

  MPI_IN_PLACE appears to work with this MPI implementation.
  | Keeping use_mpi_in_place .true. (see manual).
  Target number of points in a grid batch is not set. Defaulting to  100
  Method for grid partitioning is not set. Defaulting to 'maxmin' partitioning.
  Batch size limit is not set. Defaulting to    200
  By default, will store active basis functions for each batch.
  If in need of memory, prune_basis_once .false. can be used to disable this option.
  communication_type for Hartree potential was not specified.
  Defaulting to calc_hartree .
 * Attention: 
 * You may want to set distributed_spline_storage to .true. in order to save memory.
 * This doesn't harm performance and is perfectly ok unless:
 * - you get error messages in postprocessing (about missing atoms in get_rho_multipole_spl)
 * - you need full spline storage in hirshfeld_analysis
  Defaulting to Pulay charge density mixer.
  Pulay mixer: Number of relevant iterations not set.
  Defaulting to    8 iterations.
  Pulay mixer: Number of initial linear mixing iterations not set.
  Defaulting to    0 iterations.
  Work space size for distributed Hartree potential not set.
  Defaulting to   0.200000E+03 MB.
  Mixing parameter for charge density mixing has not been set.
  Using default: charge_mix_param =     0.0500.
  The mixing parameter will be adjusted in iteration number     2 of the first full s.c.f. cycle only.
  Mixing parameter for spin density mixing has not been set.
  Using charge_mix_param as default:     0.0500.
  Algorithm-dependent basis array size parameters:
  | n_max_pulay                         :        8
 * Notice: The s.c.f. convergence criterion sc_accuracy_rho was not provided.
 * We used to stop in this case, and ask the user to provide reasonable
 * scf convergence criteria. However, this led some users to employ criteria
 * that led to extremely long run times, e.g., for simple relaxation.
 * We now preset a default value for sc_accuracy_rho if it is not set.
 * You may still wish to check if this setting is too tight or too loose for your needs.
 * Based on n_atoms, FHI-aims chose sc_accuracy_rho =  0.100000E-05 .
  Presetting      1001 iterations before the initial mixing cycle
  is restarted anyway using the sc_init_iter criterion / keyword.
  Presetting a factor      1.000 between actual scf density residual
  and density convergence criterion sc_accuracy_rho below which sc_init_iter
  takes no effect.
 * No s.c.f. convergence criteria (sc_accuracy_*) were provided in control.in.
 * The run will proceed with a reasonable default guess, but please check whether.
 * the s.c.f. cycles seem to take too much or too little time.
  Calculation of forces was not defined in control.in. No forces will be calculated.
  Geometry relaxation not requested: no relaxation will be performed.
  No accuracy limit for integral partition fn. given. Defaulting to  0.1000E-14.
  No threshold value for u(r) in integrations given. Defaulting to  0.1000E-05.
  No occupation type (smearing scheme) given. Defaulting to Gaussian broadening, width =  0.1000E-01 eV.
  The width will be adjusted in iteration number     2 of the first full s.c.f. cycle only.
  S.C.F. convergence parameters will be adjusted in iteration number     2 of the first full s.c.f. cycle only.
  No accuracy for occupation numbers given. Defaulting to  0.1000E-12.
  No threshold value for occupation numbers given. Defaulting to  0.0000E+00.
  No accuracy for fermi level given. Defaulting to  0.1000E-19.
  Maximum # of iterations to find E_F not set. Defaulting to  200.
  Preferred method for the eigenvalue solver ('KS_method') not specified in 'control.in'.
  Defaulting to serial version, 'lapack_fast'.
  Will not use alltoall communication since running on < 1024 CPUs.
  Threshold for basis singularities not set.
  Default threshold for basis singularities:  0.1000E-04
  partition_type (choice of integration weights) for integrals was not specified.
  | Using a version of the partition function of Stratmann and coworkers ('stratmann_smoother').
  | At each grid point, the set of atoms used to build the partition table is smoothly restricted to
  | only those atoms whose free-atom density would be non-zero at that grid point.
  Partitioning for Hartree potential was not defined. Using partition_type for integrals.
  | Adjusted default value of keyword multip_moments_threshold to:       0.10000000E-11
  | This value may affect high angular momentum components of the Hartree potential in periodic systems.
  No q(lm)/r^(l+1) cutoff set for long-range Hartree potential.
  | Using default value of  0.100000E-09 .
  | Verify using the multipole_threshold keyword.
  Defaulting to new monopole extrapolation.
  Density update method: automatic selection selected.
------------------------------------------------------------


------------------------------------------------------------
          Reading geometry description geometry.in.
------------------------------------------------------------
 * Warning! You did not set the 'relativistic' flag in input file 'control.in'.
 * Since you are not attempting to treat any elements beyond Ca(Z=20), FHI-aims
 * will default to 'relativistic none'.
 * You must ensure that this is really what you want!!
 * For example, DO NOT compute total-energy differences between results from
 * different settings of the 'relativistic' flag.
  Input structure read successfully.
  The structure contains        2 atoms,  and a total of         16.000 electrons.

  Input geometry:
  | No unit cell requested.
  | Atomic structure:
  |       Atom                x [A]            y [A]            z [A]
  |    1: Species O             0.00000000        0.00000000        0.00000000
  |    2: Species O             0.00000000        0.00000000        1.20000000
  |

  | The smallest distance between any two atoms is         1.20000000 AA.
  |
  | The first atom of this pair is atom number                      1 .
  | The second atom of this pair is atom number                     2 .

  Initial moments and charges:
  |  Atom   Moment         Charge        Species
  |     1   0.200000E+01   0.000000E+00   O
  |     2   0.200000E+01   0.000000E+00   O

  Number of empty states per atom not set in control.in - providing a guess from actual geometry.
  | Total number of empty states used during s.c.f. cycle:        6
  If you use a very high smearing, use empty_states (per atom!) in control.in to increase this value.

  Structure-dependent array size parameters: 
  | Number of distinct atom types in initial rho :        1
  | Maximum number of distinct radial functions  :       11
  | Maximum number of basis functions            :       78
  | Number of Kohn-Sham states (occupied + empty):       14
------------------------------------------------------------

------------------------------------------------------------
          Preparing all fixed parts of the calculation.
------------------------------------------------------------
  Determining machine precision:
     2.2250738585072014E-308
  Setting up grids for atomic and cluster calculations.

  Creating wave function, potential, and density for free atoms.

  Species: O

  List of occupied orbitals and eigenvalues:
    n    l              occ      energy [Ha]    energy [eV]
    1    0           2.0000       -18.898576      -514.2564
    2    0           2.0000        -0.878795       -23.9132
    2    1           4.0000        -0.332075        -9.0362

  Spin-polarized or charged system:
  Charge density initialized according to selected moments and charges.

  Creating spin-polarized density from free atoms.

  Species: O
  Charge:   0.000000
  Moment:   2.000000

  List of occupied orbitals and eigenvalues:
    n    l      energy [Ha]    energy [eV]    occupation
  Spin-up
    1    0       -18.902870      -514.3733     1.00000000
    2    0        -0.924859       -25.1667     1.00000000
    2    1        -0.375913       -10.2291     3.00000000
  Spin-down
    1    0       -18.857549      -513.1400     1.00000000
    2    0        -0.805583       -21.9210     1.00000000
    2    1        -0.264264        -7.1910     1.00000000

  Creating fixed part of basis set: Ionic, confined, hydrogenic.

  O                    hydrogenic:

  List of hydrogenic basis orbitals: 
    n    l      effective z      eigenvalue [eV]  inner max. [A]     outer max. [A]     outer radius [A]   
    2    1         1.800000       -11.0118           1.178562           1.178562           5.432602
    3    2         7.600000       -87.3182           0.624125           0.624125           3.541477
    3    0         6.400000       -61.9209           0.061167           1.081902           4.306578
    4    3        11.600000      -114.4238           0.731631           0.731631           3.585037
    3    1         6.200000       -58.1113           0.255680           1.030270           4.306578
    3    2         5.600000       -47.4081           0.847233           0.847233           4.413171
    5    4        17.600000      -168.5799           0.749740           0.749740           3.372465
    1    0         0.750000        -7.6499           0.705284           0.705284           5.366593


  Adding cutoff potential to free-atom effective potential.
  Creating atomic-like basis functions for current effective potential.

  Species O                   :

  List of atomic basis orbitals and eigenvalues:
    n    l      energy [Ha]    energy [eV]    outer radius [A]
    1    0       -18.898576      -514.2564       1.415765
    2    0        -0.878795       -23.9132       5.048385
    2    1        -0.332075        -9.0362       5.301386

  Assembling full basis from fixed parts.
  | Species O :   atomic orbital   1 s accepted.
  | Species O :    hydro orbital   3 s accepted.
  | Species O :   atomic orbital   2 s accepted.
  | Species O :    hydro orbital   1 s accepted.
  | Species O :    hydro orbital   3 p accepted.
  | Species O :   atomic orbital   2 p accepted.
  | Species O :    hydro orbital   2 p accepted.
  | Species O :    hydro orbital   3 d accepted.
  | Species O :    hydro orbital   3 d accepted.
  | Species O :    hydro orbital   4 f accepted.
  | Species O :    hydro orbital   5 g accepted.

  Basis size parameters after reduction:
  | Total number of radial functions:       11
  | Total number of basis functions :       78

  Per-task memory consumption for arrays in subroutine allocate_ext:
  |           2.750028MB.
  Testing on-site integration grid accuracy.
  |  Species  Function  <phi|h_atom|phi> (log., in eV)  <phi|h_atom|phi> (rad., in eV)
           1        1               -514.2564144315               -514.2564099626
           1        2                 15.1726678541                 15.1726530877
           1        3                -21.5447785304                -21.5447874973
           1        4                 14.4944558459                 14.4944698284
           1        5                 20.8882174564                 20.8882178906
           1        6                 -2.4850315909                 -2.4850322289
           1        7                 13.8600193195                 13.8599826966
           1        8                 45.8243383616                 45.8243383675
           1        9                 52.1840606465                 52.1840622440
           1       10                 85.4074185510                 85.4074185819
           1       11                142.0983717302                142.0983717339

  Preparing densities etc. for the partition functions (integrals / Hartree potential).

  Preparations completed.
  max(cpu_time)          :      0.131 s.
  Wall clock time (cpu1) :      0.130 s.
------------------------------------------------------------

------------------------------------------------------------
          Begin self-consistency loop: Initialization.

          Date     :  20190508, Time     :  152732.015
------------------------------------------------------------

  Initializing index lists of integration centers etc. from given atomic structure:
  | Number of centers in hartree potential         :         2
  | Number of centers in hartree multipole         :         2
  | Number of centers in electron density summation:         2
  | Number of centers in basis integrals           :         2
  | Number of centers in integrals                 :         2
  | Number of centers in hamiltonian               :         2
  Partitioning the integration grid into batches with maxmin method.
  | Maximal weight for a single point:     1.000
  | Minimal weight for a single point:     0.000
  | Number of batches:      488
  | Maximal batch size:     161
  | Minimal batch size:      76
  | Average batch size:      82.533
  | Standard deviation of batch sizes:      17.105
  Initializing partition tables, free-atom densities, potentials, etc. across the integration grid (initialize_grid_storage).
  | initialize_grid_storage: Actual outermost partition radius vs. multipole_radius_free
  | (-- VB: in principle, multipole_radius_free should be larger, hence this output)
  | Species        1: Confinement radius =              6.000000000000000 AA, multipole_radius_free =              6.064445521808699 AA.
  | Species        1: outer_partition_radius set to              6.064445521808699 AA .
  | Original list of interatomic distances with           2 x          2 entries is created.
  | Net number of integration points:    40276
  | of which are non-zero points    :    38036
  Renormalizing the initial density to the exact electron count on the 3D integration grid.
  | Initial density: Formal number of electrons (from input files) :      16.0000000000
  | Integrated number of electrons on 3D grid     :      16.0000002012
  | Charge integration error                      :       0.0000002012
  | Normalization factor for density and gradient :       0.9999999874
  Obtaining max. number of non-zero basis functions in each batch (get_n_compute_maxes).
  | Maximal number of non-zero basis functions:       78 in task     0
  Selecting the method for density update.
  Loop over occupied states selected for charge density update.
  Allocating        0.017 MB for KS_eigenvector
  Integrating Hamiltonian matrix: batch-based integration.
  Time summed over all CPUs for integration: real work        0.255 s, elapsed        0.255 s
  Integrating overlap matrix.
  Time summed over all CPUs for integration: real work        0.070 s, elapsed        0.070 s

  Updating Kohn-Sham eigenvalues, eigenvectors, occupation numbers, and Fermi level.
  Solving generalized eigenproblem
  Updating Kohn-Sham eigenvalues and eigenfunctions.
  Transforming overlap matrix and checking for singularities.
  Overlap matrix is nonsingular:
  | Lowest eigenvalue:  0.268356E-03
  Solving real generalised eigenvalue problem by standard LAPACK (fast)
  Updating Kohn-Sham eigenvalues and eigenfunctions.
  Solving real generalised eigenvalue problem by standard LAPACK (fast)

  Obtaining occupation numbers and chemical potential using ELSI.
  | Chemical potential (Fermi level):    -6.36473275eV
  Writing Kohn-Sham eigenvalues.

  Spin-up eigenvalues:

  State    Occupation    Eigenvalue [Ha]    Eigenvalue [eV]
      1       1.00000         -18.958718         -515.89298
      2       1.00000         -18.958640         -515.89084
      3       1.00000          -1.259222          -34.26517
      4       1.00000          -0.816476          -22.21744
      5       1.00000          -0.578253          -15.73507
      6       1.00000          -0.542715          -14.76803
      7       1.00000          -0.542715          -14.76803
      8       1.00000          -0.294545           -8.01496
      9       1.00000          -0.294545           -8.01496
     10       0.00000           0.054654            1.48720
     11       0.00000           0.081483            2.21727
     12       0.00000           0.122345            3.32917
     13       0.00000           0.122345            3.32917
     14       0.00000           0.168065            4.57328

  Spin-down eigenvalues:

  State    Occupation    Eigenvalue [Ha]    Eigenvalue [eV]
      1       1.00000         -18.913111         -514.65193
      2       1.00000         -18.913034         -514.64983
      3       1.00000          -1.128462          -30.70703
      4       1.00000          -0.694316          -18.89329
      5       1.00000          -0.455247          -12.38791
      6       1.00000          -0.426884          -11.61610
      7       1.00000          -0.426884          -11.61610
      8       0.00000          -0.174090           -4.73723
      9       0.00000          -0.174090           -4.73723
     10       0.00000           0.099202            2.69943
     11       0.00000           0.104464            2.84260
     12       0.00000           0.144483            3.93158
     13       0.00000           0.144483            3.93158
     14       0.00000           0.215496            5.86395

  Current spin moment of the entire structure :
  | N = N_up - N_down :    2.00
  | S                 :    1.00
  | J                 :    3.00

  Highest occupied state (VBM) at     -8.01496493 eV
  | Occupation number:      1.00000000
  | Spin channel:        1

  Lowest unoccupied state (CBM) at    -4.73722983 eV
  | Occupation number:      0.00000000
  | Spin channel:        2

  Overall HOMO-LUMO gap:      3.27773509 eV.
  Calculating total energy contributions from superposition of free atom densities.

  Total energy components:
  | Sum of eigenvalues            :         -83.20376624 Ha       -2264.08967490 eV
  | XC energy correction          :         -16.91069945 Ha        -460.16354482 eV
  | XC potential correction       :          21.75315812 Ha         591.93354980 eV
  | Free-atom electrostatic energy:         -71.86435583 Ha       -1955.52861843 eV
  | Hartree energy correction     :          -0.00000000 Ha          -0.00000000 eV
  | Entropy correction            :          -0.00000000 Ha          -0.00000000 eV
  | ---------------------------
  | Total energy                  :        -150.22566339 Ha       -4087.84828835 eV
  | Total energy, T -> 0          :        -150.22566339 Ha       -4087.84828835 eV  <-- do not rely on this value for anything but (periodic) metals
  | Electronic free energy        :        -150.22566339 Ha       -4087.84828835 eV

  Derived energy quantities:
  | Kinetic energy                :         149.89087074 Ha        4078.73811666 eV
  | Electrostatic energy          :        -283.20583468 Ha       -7706.42286020 eV
  | Energy correction for multipole
  | error in Hartree potential    :           0.00000000 Ha           0.00000000 eV
  | Sum of eigenvalues per atom                           :       -1132.04483745 eV
  | Total energy (T->0) per atom                          :       -2043.92414418 eV  <-- do not rely on this value for anything but (periodic) metals
  | Electronic free energy per atom                       :       -2043.92414418 eV
  Initialize hartree_potential_storage
  Max. number of atoms included in rho_multipole:            2

  End scf initialization - timings             :  max(cpu_time)    wall_clock(cpu1)
  | Time for scf. initialization               :        0.440 s           0.439 s
  | Boundary condition initialization          :        0.000 s           0.000 s
  | Integration                                :        0.325 s           0.325 s
  | Solution of K.-S. eqns.                    :        0.005 s           0.005 s
  | Grid partitioning                          :        0.041 s           0.041 s
  | Preloading free-atom quantities on grid    :        0.003 s           0.003 s
  | Free-atom superposition energy             :        0.042 s           0.042 s
  | Total energy evaluation                    :        0.000 s           0.000 s

  Partial memory accounting:
  | Current value for overall tracked memory usage on task 0  :           0.140 MB
  | Peak value for overall tracked memory usage on task 0     :           0.645 MB after allocating wave
  | Largest tracked array allocation on task 0 so far         :           0.201 MB  when allocating H_times_psi
  Note:  These values currently only include a subset of arrays which are explicitly tracked.
  The "true" memory usage will be greater.
------------------------------------------------------------

------------------------------------------------------------
          Begin self-consistency iteration #    1

  Date     :  20190508, Time     :  152732.454
------------------------------------------------------------
  Evaluating new KS density.
  Integration grid: deviation in total charge (<rho> - N_e) =   7.105427E-14
  | <rho_up-rho_dn> = N_up-N_dn =      2.0000; <|rho_up-rho_dn|> =      2.0335
  Pulay mixing of updated and previous charge densities.

  Evaluating partitioned Hartree potential by multipole expansion.
  | Analytical far-field extrapolation by fixed multipoles:
  | Hartree multipole sum: apparent total charge =   0.165968E-06
  Summing up the Hartree potential.
  Time summed over all CPUs for potential: real work        0.030 s, elapsed        0.030 s
  | RMS charge density error from multipole expansion :   0.134957E-03

  Integrating Hamiltonian matrix: batch-based integration.
  Time summed over all CPUs for integration: real work        0.257 s, elapsed        0.257 s

  Updating Kohn-Sham eigenvalues, eigenvectors, occupation numbers, and Fermi level.
  Solving generalized eigenproblem
  Updating Kohn-Sham eigenvalues and eigenfunctions.
  Solving real generalised eigenvalue problem by standard LAPACK (fast)
  Updating Kohn-Sham eigenvalues and eigenfunctions.
  Solving real generalised eigenvalue problem by standard LAPACK (fast)

  Obtaining occupation numbers and chemical potential using ELSI.
  | Chemical potential (Fermi level):    -6.33404429eV
  Writing Kohn-Sham eigenvalues.

  Spin-up eigenvalues:

  State    Occupation    Eigenvalue [Ha]    Eigenvalue [eV]
      1       1.00000         -18.935445         -515.25967
      2       1.00000         -18.935366         -515.25752
      3       1.00000          -1.246615          -33.92213
      4       1.00000          -0.803387          -21.86128
      5       1.00000          -0.564101          -15.34997
      6       1.00000          -0.531390          -14.45986
      7       1.00000          -0.531390          -14.45986
      8       1.00000          -0.282156           -7.67786
      9       1.00000          -0.282156           -7.67786
     10       0.00000           0.060781            1.65393
     11       0.00000           0.083236            2.26496
     12       0.00000           0.123919            3.37202
     13       0.00000           0.123919            3.37202
     14       0.00000           0.177940            4.84198

  Spin-down eigenvalues:

  State    Occupation    Eigenvalue [Ha]    Eigenvalue [eV]
      1       1.00000         -18.890706         -514.04227
      2       1.00000         -18.890629         -514.04016
      3       1.00000          -1.120167          -30.48131
      4       1.00000          -0.684362          -18.62244
      5       1.00000          -0.445934          -12.13448
      6       1.00000          -0.418342          -11.38366
      7       1.00000          -0.418342          -11.38366
      8       0.00000          -0.164117           -4.46584
      9       0.00000          -0.164117           -4.46584
     10       0.00000           0.101072            2.75031
     11       0.00000           0.105643            2.87470
     12       0.00000           0.145685            3.96429
     13       0.00000           0.145685            3.96429
     14       0.00000           0.216092            5.88017

  Current spin moment of the entire structure :
  | N = N_up - N_down :    2.00
  | S                 :    1.00
  | J                 :    3.00

  Highest occupied state (VBM) at     -7.67786483 eV
  | Occupation number:      1.00000000
  | Spin channel:        1

  Lowest unoccupied state (CBM) at    -4.46584400 eV
  | Occupation number:      0.00000000
  | Spin channel:        2

  Overall HOMO-LUMO gap:      3.21202083 eV.

  Total energy components:
  | Sum of eigenvalues            :         -82.98048869 Ha       -2258.01398379 eV
  | XC energy correction          :         -16.91128861 Ha        -460.17957674 eV
  | XC potential correction       :          21.75339711 Ha         591.94005289 eV
  | Free-atom electrostatic energy:         -71.86435583 Ha       -1955.52861843 eV
  | Hartree energy correction     :          -0.22387555 Ha          -6.09196371 eV
  | Entropy correction            :          -0.00000000 Ha          -0.00000000 eV
  | ---------------------------
  | Total energy                  :        -150.22661158 Ha       -4087.87408979 eV
  | Total energy, T -> 0          :        -150.22661158 Ha       -4087.87408979 eV  <-- do not rely on this value for anything but (periodic) metals
  | Electronic free energy        :        -150.22661158 Ha       -4087.87408979 eV

  Derived energy quantities:
  | Kinetic energy                :         150.01084885 Ha        4082.00288728 eV
  | Electrostatic energy          :        -283.32617182 Ha       -7709.69740033 eV
  | Energy correction for multipole
  | error in Hartree potential    :          -0.00007192 Ha          -0.00195697 eV
  | Sum of eigenvalues per atom                           :       -1129.00699190 eV
  | Total energy (T->0) per atom                          :       -2043.93704489 eV  <-- do not rely on this value for anything but (periodic) metals
  | Electronic free energy per atom                       :       -2043.93704489 eV

  Self-consistency convergence accuracy:
  | Change of charge/spin density :  0.1721E+00  0.4069E+00
  | Change of sum of eigenvalues  :  0.6076E+01 eV
  | Change of total energy        : -0.2580E-01 eV

  End self-consistency iteration #     1       :  max(cpu_time)    wall_clock(cpu1)
  | Time for this iteration                    :        0.492 s           0.492 s
  | Charge density update                      :        0.195 s           0.195 s
  | Density mixing                             :        0.003 s           0.003 s
  | Hartree multipole update                   :        0.003 s           0.003 s
  | Hartree multipole summation                :        0.031 s           0.031 s
  | Integration                                :        0.258 s           0.257 s
  | Solution of K.-S. eqns.                    :        0.003 s           0.003 s
  | Total energy evaluation                    :        0.000 s           0.000 s

  Partial memory accounting:
  | Current value for overall tracked memory usage on task 0  :           0.140 MB
  | Peak value for overall tracked memory usage on task 0     :           0.693 MB after allocating wave
  | Largest tracked array allocation on task 0 so far         :           0.301 MB  when allocating gradient_basis_wave
  Note:  These values currently only include a subset of arrays which are explicitly tracked.
  The "true" memory usage will be greater.
------------------------------------------------------------

------------------------------------------------------------
          Begin self-consistency iteration #    2

  Date     :  20190508, Time     :  152732.946
------------------------------------------------------------
  Evaluating new KS density.
  Integration grid: deviation in total charge (<rho> - N_e) =  -1.243450E-14
  | <rho_up-rho_dn> = N_up-N_dn =      2.0000; <|rho_up-rho_dn|> =      2.0341
  Pulay mixing of updated and previous charge densities.

  Evaluating partitioned Hartree potential by multipole expansion.
  | Analytical far-field extrapolation by fixed multipoles:
  | Hartree multipole sum: apparent total charge =   0.259498E-07
  Summing up the Hartree potential.
  Time summed over all CPUs for potential: real work        0.041 s, elapsed        0.041 s
  | RMS charge density error from multipole expansion :   0.125121E-02

  Integrating Hamiltonian matrix: batch-based integration.
  Time summed over all CPUs for integration: real work        0.327 s, elapsed        0.327 s

  Updating Kohn-Sham eigenvalues, eigenvectors, occupation numbers, and Fermi level.
  Solving generalized eigenproblem
  Updating Kohn-Sham eigenvalues and eigenfunctions.
  Solving real generalised eigenvalue problem by standard LAPACK (fast)
  Updating Kohn-Sham eigenvalues and eigenfunctions.
  Solving real generalised eigenvalue problem by standard LAPACK (fast)

  Obtaining occupation numbers and chemical potential using ELSI.
  | Chemical potential (Fermi level):    -6.34836900eV
  Current spin moment of the entire structure :
  | N = N_up - N_down :    2.00
  | S                 :    1.00
  | J                 :    3.00

  Highest occupied state (VBM) at     -6.90554871 eV
  | Occupation number:      1.00000000
  | Spin channel:        1

  Lowest unoccupied state (CBM) at    -4.27455038 eV
  | Occupation number:      0.00000000
  | Spin channel:        2

  Overall HOMO-LUMO gap:      2.63099833 eV.

  Checking to see if s.c.f. parameters should be adjusted.
  The system likely has a gap. Increased the default Pulay mixing parameter (charge_mix_param). Value:   0.200000 .
  Kept the default occupation width. Value:   0.010000 eV.

  Total energy components:
  | Sum of eigenvalues            :         -82.67068872 Ha       -2249.58389762 eV
  | XC energy correction          :         -16.91573526 Ha        -460.30057613 eV
  | XC potential correction       :          21.75349982 Ha         591.94284795 eV
  | Free-atom electrostatic energy:         -71.86435583 Ha       -1955.52861843 eV
  | Hartree energy correction     :          -0.55452099 Ha         -15.08928379 eV
  | Entropy correction            :          -0.00000000 Ha          -0.00000000 eV
  | ---------------------------
  | Total energy                  :        -150.25180097 Ha       -4088.55952802 eV
  | Total energy, T -> 0          :        -150.25180097 Ha       -4088.55952802 eV  <-- do not rely on this value for anything but (periodic) metals
  | Electronic free energy        :        -150.25180097 Ha       -4088.55952802 eV

  Derived energy quantities:
  | Kinetic energy                :         150.14735837 Ha        4085.71750037 eV
  | Electrostatic energy          :        -283.48342409 Ha       -7713.97645227 eV
  | Energy correction for multipole
  | error in Hartree potential    :          -0.00049738 Ha          -0.01353433 eV
  | Sum of eigenvalues per atom                           :       -1124.79194881 eV
  | Total energy (T->0) per atom                          :       -2044.27976401 eV  <-- do not rely on this value for anything but (periodic) metals
  | Electronic free energy per atom                       :       -2044.27976401 eV

  Self-consistency convergence accuracy:
  | Change of charge/spin density :  0.1558E+00  0.3889E+00
  | Change of sum of eigenvalues  :  0.8430E+01 eV
  | Change of total energy        : -0.6854E+00 eV

  End self-consistency iteration #     2       :  max(cpu_time)    wall_clock(cpu1)
  | Time for this iteration                    :        0.570 s           0.570 s
  | Charge density update                      :        0.190 s           0.190 s
  | Density mixing                             :        0.007 s           0.007 s
  | Hartree multipole update                   :        0.002 s           0.002 s
  | Hartree multipole summation                :        0.041 s           0.041 s
  | Integration                                :        0.327 s           0.327 s
  | Solution of K.-S. eqns.                    :        0.003 s           0.003 s
  | Total energy evaluation                    :        0.000 s           0.000 s

  Partial memory accounting:
  | Current value for overall tracked memory usage on task 0  :           0.142 MB
  | Peak value for overall tracked memory usage on task 0     :           0.694 MB after allocating wave
  | Largest tracked array allocation on task 0 so far         :           0.301 MB  when allocating gradient_basis_wave
  Note:  These values currently only include a subset of arrays which are explicitly tracked.
  The "true" memory usage will be greater.
------------------------------------------------------------

------------------------------------------------------------
          Begin self-consistency iteration #    3

  Date     :  20190508, Time     :  152733.517
------------------------------------------------------------
  Evaluating new KS density.
  Integration grid: deviation in total charge (<rho> - N_e) =   6.750156E-14
  | <rho_up-rho_dn> = N_up-N_dn =      2.0000; <|rho_up-rho_dn|> =      2.0351
  Pulay mixing of updated and previous charge densities.

  Evaluating partitioned Hartree potential by multipole expansion.
  | Analytical far-field extrapolation by fixed multipoles:
  | Hartree multipole sum: apparent total charge =  -0.488298E-07
  Summing up the Hartree potential.
  Time summed over all CPUs for potential: real work        0.034 s, elapsed        0.035 s
  | RMS charge density error from multipole expansion :   0.196006E-02

  Integrating Hamiltonian matrix: batch-based integration.
  Time summed over all CPUs for integration: real work        0.268 s, elapsed        0.268 s

  Updating Kohn-Sham eigenvalues, eigenvectors, occupation numbers, and Fermi level.
  Solving generalized eigenproblem
  Updating Kohn-Sham eigenvalues and eigenfunctions.
  Solving real generalised eigenvalue problem by standard LAPACK (fast)
  Updating Kohn-Sham eigenvalues and eigenfunctions.
  Solving real generalised eigenvalue problem by standard LAPACK (fast)

  Obtaining occupation numbers and chemical potential using ELSI.
  | Chemical potential (Fermi level):    -6.32899918eV
  Current spin moment of the entire structure :
  | N = N_up - N_down :    2.00
  | S                 :    1.00
  | J                 :    3.00

  Highest occupied state (VBM) at     -6.42947308 eV
  | Occupation number:      1.00000000
  | Spin channel:        1

  Lowest unoccupied state (CBM) at    -4.13929322 eV
  | Occupation number:      0.00000000
  | Spin channel:        2

  Overall HOMO-LUMO gap:      2.29017986 eV.

  Total energy components:
  | Sum of eigenvalues            :         -82.46537936 Ha       -2243.99714576 eV
  | XC energy correction          :         -16.93180480 Ha        -460.73785081 eV
  | XC potential correction       :          21.77152597 Ha         592.43336441 eV
  | Free-atom electrostatic energy:         -71.86435583 Ha       -1955.52861843 eV
  | Hartree energy correction     :          -0.76945977 Ha         -20.93806570 eV
  | Entropy correction            :          -0.00000000 Ha          -0.00000000 eV
  | ---------------------------
  | Total energy                  :        -150.25947380 Ha       -4088.76831629 eV
  | Total energy, T -> 0          :        -150.25947380 Ha       -4088.76831629 eV  <-- do not rely on this value for anything but (periodic) metals
  | Electronic free energy        :        -150.25947380 Ha       -4088.76831629 eV

  Derived energy quantities:
  | Kinetic energy                :         150.22888780 Ha        4087.93602889 eV
  | Electrostatic energy          :        -283.55655679 Ha       -7715.96649438 eV
  | Energy correction for multipole
  | error in Hartree potential    :          -0.00081656 Ha          -0.02221972 eV
  | Sum of eigenvalues per atom                           :       -1121.99857288 eV
  | Total energy (T->0) per atom                          :       -2044.38415815 eV  <-- do not rely on this value for anything but (periodic) metals
  | Electronic free energy per atom                       :       -2044.38415815 eV

  Self-consistency convergence accuracy:
  | Change of charge/spin density :  0.4110E-01  0.1614E+00
  | Change of sum of eigenvalues  :  0.5587E+01 eV
  | Change of total energy        : -0.2088E+00 eV

  End self-consistency iteration #     3       :  max(cpu_time)    wall_clock(cpu1)
  | Time for this iteration                    :        0.503 s           0.502 s
  | Charge density update                      :        0.189 s           0.189 s
  | Density mixing                             :        0.005 s           0.004 s
  | Hartree multipole update                   :        0.002 s           0.003 s
  | Hartree multipole summation                :        0.035 s           0.035 s
  | Integration                                :        0.269 s           0.269 s
  | Solution of K.-S. eqns.                    :        0.003 s           0.002 s
  | Total energy evaluation                    :        0.000 s           0.000 s

  Partial memory accounting:
  | Current value for overall tracked memory usage on task 0  :           0.142 MB
  | Peak value for overall tracked memory usage on task 0     :           0.695 MB after allocating wave
  | Largest tracked array allocation on task 0 so far         :           0.301 MB  when allocating gradient_basis_wave
  Note:  These values currently only include a subset of arrays which are explicitly tracked.
  The "true" memory usage will be greater.
------------------------------------------------------------

------------------------------------------------------------
          Begin self-consistency iteration #    4

  Date     :  20190508, Time     :  152734.019
------------------------------------------------------------
  Evaluating new KS density.
  Integration grid: deviation in total charge (<rho> - N_e) =  -8.881784E-15
  | <rho_up-rho_dn> = N_up-N_dn =      2.0000; <|rho_up-rho_dn|> =      2.0405
  Pulay mixing of updated and previous charge densities.

  Evaluating partitioned Hartree potential by multipole expansion.
  | Analytical far-field extrapolation by fixed multipoles:
  | Hartree multipole sum: apparent total charge =  -0.209557E-07
  Summing up the Hartree potential.
  Time summed over all CPUs for potential: real work        0.030 s, elapsed        0.030 s
  | RMS charge density error from multipole expansion :   0.206356E-02

  Integrating Hamiltonian matrix: batch-based integration.
  Time summed over all CPUs for integration: real work        0.246 s, elapsed        0.246 s

  Updating Kohn-Sham eigenvalues, eigenvectors, occupation numbers, and Fermi level.
  Solving generalized eigenproblem
  Updating Kohn-Sham eigenvalues and eigenfunctions.
  Solving real generalised eigenvalue problem by standard LAPACK (fast)
  Updating Kohn-Sham eigenvalues and eigenfunctions.
  Solving real generalised eigenvalue problem by standard LAPACK (fast)

  Obtaining occupation numbers and chemical potential using ELSI.
  | Chemical potential (Fermi level):    -6.31024978eV
  Current spin moment of the entire structure :
  | N = N_up - N_down :    2.00
  | S                 :    1.00
  | J                 :    3.00

  Highest occupied state (VBM) at     -6.42848015 eV
  | Occupation number:      1.00000000
  | Spin channel:        1

  Lowest unoccupied state (CBM) at    -4.14735184 eV
  | Occupation number:      0.00000000
  | Spin channel:        2

  Overall HOMO-LUMO gap:      2.28112831 eV.

  Total energy components:
  | Sum of eigenvalues            :         -82.46435830 Ha       -2243.96936123 eV
  | XC energy correction          :         -16.92302885 Ha        -460.49904483 eV
  | XC potential correction       :          21.75981827 Ha         592.11478155 eV
  | Free-atom electrostatic energy:         -71.86435583 Ha       -1955.52861843 eV
  | Hartree energy correction     :          -0.76690132 Ha         -20.86844669 eV
  | Entropy correction            :          -0.00000000 Ha          -0.00000000 eV
  | ---------------------------
  | Total energy                  :        -150.25882603 Ha       -4088.75068963 eV
  | Total energy, T -> 0          :        -150.25882603 Ha       -4088.75068963 eV  <-- do not rely on this value for anything but (periodic) metals
  | Electronic free energy        :        -150.25882603 Ha       -4088.75068963 eV

  Derived energy quantities:
  | Kinetic energy                :         150.16449460 Ha        4086.18380081 eV
  | Electrostatic energy          :        -283.50029178 Ha       -7714.43544561 eV
  | Energy correction for multipole
  | error in Hartree potential    :          -0.00099044 Ha          -0.02695122 eV
  | Sum of eigenvalues per atom                           :       -1121.98468062 eV
  | Total energy (T->0) per atom                          :       -2044.37534482 eV  <-- do not rely on this value for anything but (periodic) metals
  | Electronic free energy per atom                       :       -2044.37534482 eV

  Self-consistency convergence accuracy:
  | Change of charge/spin density :  0.5022E-01  0.2539E-01
  | Change of sum of eigenvalues  :  0.2778E-01 eV
  | Change of total energy        :  0.1763E-01 eV

  End self-consistency iteration #     4       :  max(cpu_time)    wall_clock(cpu1)
  | Time for this iteration                    :        0.459 s           0.459 s
  | Charge density update                      :        0.169 s           0.170 s
  | Density mixing                             :        0.006 s           0.006 s
  | Hartree multipole update                   :        0.002 s           0.003 s
  | Hartree multipole summation                :        0.031 s           0.031 s
  | Integration                                :        0.247 s           0.246 s
  | Solution of K.-S. eqns.                    :        0.003 s           0.003 s
  | Total energy evaluation                    :        0.000 s           0.000 s

  Partial memory accounting:
  | Current value for overall tracked memory usage on task 0  :           0.142 MB
  | Peak value for overall tracked memory usage on task 0     :           0.695 MB after allocating wave
  | Largest tracked array allocation on task 0 so far         :           0.301 MB  when allocating gradient_basis_wave
  Note:  These values currently only include a subset of arrays which are explicitly tracked.
  The "true" memory usage will be greater.
------------------------------------------------------------

------------------------------------------------------------
          Begin self-consistency iteration #    5

  Date     :  20190508, Time     :  152734.478
------------------------------------------------------------
  Evaluating new KS density.
  Integration grid: deviation in total charge (<rho> - N_e) =   7.105427E-15
  | <rho_up-rho_dn> = N_up-N_dn =      2.0000; <|rho_up-rho_dn|> =      2.0419
  Pulay mixing of updated and previous charge densities.

  Evaluating partitioned Hartree potential by multipole expansion.
  | Analytical far-field extrapolation by fixed multipoles:
  | Hartree multipole sum: apparent total charge =  -0.208112E-07
  Summing up the Hartree potential.
  Time summed over all CPUs for potential: real work        0.027 s, elapsed        0.027 s
  | RMS charge density error from multipole expansion :   0.206107E-02

  Integrating Hamiltonian matrix: batch-based integration.
  Time summed over all CPUs for integration: real work        0.242 s, elapsed        0.242 s

  Updating Kohn-Sham eigenvalues, eigenvectors, occupation numbers, and Fermi level.
  Solving generalized eigenproblem
  Updating Kohn-Sham eigenvalues and eigenfunctions.
  Solving real generalised eigenvalue problem by standard LAPACK (fast)
  Updating Kohn-Sham eigenvalues and eigenfunctions.
  Solving real generalised eigenvalue problem by standard LAPACK (fast)

  Obtaining occupation numbers and chemical potential using ELSI.
  | Chemical potential (Fermi level):    -6.31170927eV
  Current spin moment of the entire structure :
  | N = N_up - N_down :    2.00
  | S                 :    1.00
  | J                 :    3.00

  Highest occupied state (VBM) at     -6.44019206 eV
  | Occupation number:      1.00000000
  | Spin channel:        1

  Lowest unoccupied state (CBM) at    -4.15757486 eV
  | Occupation number:      0.00000000
  | Spin channel:        2

  Overall HOMO-LUMO gap:      2.28261719 eV.

  Total energy components:
  | Sum of eigenvalues            :         -82.47290232 Ha       -2244.20185593 eV
  | XC energy correction          :         -16.92202747 Ha        -460.47179601 eV
  | XC potential correction       :          21.75850453 Ha         592.07903280 eV
  | Free-atom electrostatic energy:         -71.86435583 Ha       -1955.52861843 eV
  | Hartree energy correction     :          -0.75800939 Ha         -20.62648489 eV
  | Entropy correction            :          -0.00000000 Ha          -0.00000000 eV
  | ---------------------------
  | Total energy                  :        -150.25879049 Ha       -4088.74972247 eV
  | Total energy, T -> 0          :        -150.25879049 Ha       -4088.74972247 eV  <-- do not rely on this value for anything but (periodic) metals
  | Electronic free energy        :        -150.25879049 Ha       -4088.74972247 eV

  Derived energy quantities:
  | Kinetic energy                :         150.15707235 Ha        4085.98183103 eV
  | Electrostatic energy          :        -283.49383536 Ha       -7714.25975749 eV
  | Energy correction for multipole
  | error in Hartree potential    :          -0.00099116 Ha          -0.02697088 eV
  | Sum of eigenvalues per atom                           :       -1122.10092797 eV
  | Total energy (T->0) per atom                          :       -2044.37486124 eV  <-- do not rely on this value for anything but (periodic) metals
  | Electronic free energy per atom                       :       -2044.37486124 eV

  Self-consistency convergence accuracy:
  | Change of charge/spin density :  0.3016E-01  0.9086E-02
  | Change of sum of eigenvalues  : -0.2325E+00 eV
  | Change of total energy        :  0.9672E-03 eV

  End self-consistency iteration #     5       :  max(cpu_time)    wall_clock(cpu1)
  | Time for this iteration                    :        0.429 s           0.429 s
  | Charge density update                      :        0.149 s           0.149 s
  | Density mixing                             :        0.006 s           0.006 s
  | Hartree multipole update                   :        0.002 s           0.003 s
  | Hartree multipole summation                :        0.027 s           0.027 s
  | Integration                                :        0.242 s           0.242 s
  | Solution of K.-S. eqns.                    :        0.003 s           0.002 s
  | Total energy evaluation                    :        0.000 s           0.000 s

  Partial memory accounting:
  | Current value for overall tracked memory usage on task 0  :           0.142 MB
  | Peak value for overall tracked memory usage on task 0     :           0.695 MB after allocating wave
  | Largest tracked array allocation on task 0 so far         :           0.301 MB  when allocating gradient_basis_wave
  Note:  These values currently only include a subset of arrays which are explicitly tracked.
  The "true" memory usage will be greater.
------------------------------------------------------------

------------------------------------------------------------
          Begin self-consistency iteration #    6

  Date     :  20190508, Time     :  152734.908
------------------------------------------------------------
  Evaluating new KS density.
  Integration grid: deviation in total charge (<rho> - N_e) =  -5.506706E-14
  | <rho_up-rho_dn> = N_up-N_dn =      2.0000; <|rho_up-rho_dn|> =      2.0419
  Pulay mixing of updated and previous charge densities.

  Evaluating partitioned Hartree potential by multipole expansion.
  | Analytical far-field extrapolation by fixed multipoles:
  | Hartree multipole sum: apparent total charge =  -0.874927E-08
  Summing up the Hartree potential.
  Time summed over all CPUs for potential: real work        0.028 s, elapsed        0.028 s
  | RMS charge density error from multipole expansion :   0.201590E-02

  Integrating Hamiltonian matrix: batch-based integration.
  Time summed over all CPUs for integration: real work        0.253 s, elapsed        0.253 s

  Updating Kohn-Sham eigenvalues, eigenvectors, occupation numbers, and Fermi level.
  Solving generalized eigenproblem
  Updating Kohn-Sham eigenvalues and eigenfunctions.
  Solving real generalised eigenvalue problem by standard LAPACK (fast)
  Updating Kohn-Sham eigenvalues and eigenfunctions.
  Solving real generalised eigenvalue problem by standard LAPACK (fast)

  Obtaining occupation numbers and chemical potential using ELSI.
  | Chemical potential (Fermi level):    -6.33905651eV
  Current spin moment of the entire structure :
  | N = N_up - N_down :    2.00
  | S                 :    1.00
  | J                 :    3.00

  Highest occupied state (VBM) at     -6.65451102 eV
  | Occupation number:      1.00000000
  | Spin channel:        1

  Lowest unoccupied state (CBM) at    -4.34463465 eV
  | Occupation number:      0.00000000
  | Spin channel:        2

  Overall HOMO-LUMO gap:      2.30987636 eV.

  Total energy components:
  | Sum of eigenvalues            :         -82.62929161 Ha       -2248.45742509 eV
  | XC energy correction          :         -16.90360206 Ha        -459.97041497 eV
  | XC potential correction       :          21.73435568 Ha         591.42190920 eV
  | Free-atom electrostatic energy:         -71.86435583 Ha       -1955.52861843 eV
  | Hartree energy correction     :          -0.59545914 Ha         -16.20326754 eV
  | Entropy correction            :          -0.00000000 Ha          -0.00000000 eV
  | ---------------------------
  | Total energy                  :        -150.25835296 Ha       -4088.73781683 eV
  | Total energy, T -> 0          :        -150.25835296 Ha       -4088.73781683 eV  <-- do not rely on this value for anything but (periodic) metals
  | Electronic free energy        :        -150.25835296 Ha       -4088.73781683 eV

  Derived energy quantities:
  | Kinetic energy                :         150.01936978 Ha        4082.23475355 eV
  | Electrostatic energy          :        -283.37412069 Ha       -7711.00215540 eV
  | Energy correction for multipole
  | error in Hartree potential    :          -0.00100634 Ha          -0.02738387 eV
  | Sum of eigenvalues per atom                           :       -1124.22871254 eV
  | Total energy (T->0) per atom                          :       -2044.36890841 eV  <-- do not rely on this value for anything but (periodic) metals
  | Electronic free energy per atom                       :       -2044.36890841 eV

  Self-consistency convergence accuracy:
  | Change of charge/spin density :  0.2915E-01  0.8713E-02
  | Change of sum of eigenvalues  : -0.4256E+01 eV
  | Change of total energy        :  0.1191E-01 eV

  End self-consistency iteration #     6       :  max(cpu_time)    wall_clock(cpu1)
  | Time for this iteration                    :        0.443 s           0.443 s
  | Charge density update                      :        0.150 s           0.149 s
  | Density mixing                             :        0.007 s           0.008 s
  | Hartree multipole update                   :        0.002 s           0.002 s
  | Hartree multipole summation                :        0.028 s           0.028 s
  | Integration                                :        0.253 s           0.253 s
  | Solution of K.-S. eqns.                    :        0.003 s           0.003 s
  | Total energy evaluation                    :        0.000 s           0.000 s

  Partial memory accounting:
  | Current value for overall tracked memory usage on task 0  :           0.143 MB
  | Peak value for overall tracked memory usage on task 0     :           0.696 MB after allocating wave
  | Largest tracked array allocation on task 0 so far         :           0.301 MB  when allocating gradient_basis_wave
  Note:  These values currently only include a subset of arrays which are explicitly tracked.
  The "true" memory usage will be greater.
------------------------------------------------------------

------------------------------------------------------------
          Begin self-consistency iteration #    7

  Date     :  20190508, Time     :  152735.351
------------------------------------------------------------
  Evaluating new KS density.
  Integration grid: deviation in total charge (<rho> - N_e) =   4.263256E-14
  | <rho_up-rho_dn> = N_up-N_dn =      2.0000; <|rho_up-rho_dn|> =      2.0421
  Pulay mixing of updated and previous charge densities.

  Evaluating partitioned Hartree potential by multipole expansion.
  | Analytical far-field extrapolation by fixed multipoles:
  | Hartree multipole sum: apparent total charge =  -0.126666E-07
  Summing up the Hartree potential.
  Time summed over all CPUs for potential: real work        0.027 s, elapsed        0.027 s
  | RMS charge density error from multipole expansion :   0.201095E-02

  Integrating Hamiltonian matrix: batch-based integration.
  Time summed over all CPUs for integration: real work        0.252 s, elapsed        0.252 s

  Updating Kohn-Sham eigenvalues, eigenvectors, occupation numbers, and Fermi level.
  Solving generalized eigenproblem
  Updating Kohn-Sham eigenvalues and eigenfunctions.
  Solving real generalised eigenvalue problem by standard LAPACK (fast)
  Updating Kohn-Sham eigenvalues and eigenfunctions.
  Solving real generalised eigenvalue problem by standard LAPACK (fast)

  Obtaining occupation numbers and chemical potential using ELSI.
  | Chemical potential (Fermi level):    -6.35134243eV
  Current spin moment of the entire structure :
  | N = N_up - N_down :    2.00
  | S                 :    1.00
  | J                 :    3.00

  Highest occupied state (VBM) at     -6.71103031 eV
  | Occupation number:      1.00000000
  | Spin channel:        1

  Lowest unoccupied state (CBM) at    -4.39919001 eV
  | Occupation number:      0.00000000
  | Spin channel:        2

  Overall HOMO-LUMO gap:      2.31184031 eV.

  Total energy components:
  | Sum of eigenvalues            :         -82.67432906 Ha       -2249.68295631 eV
  | XC energy correction          :         -16.89799511 Ha        -459.81784209 eV
  | XC potential correction       :          21.72703425 Ha         591.22268303 eV
  | Free-atom electrostatic energy:         -71.86435583 Ha       -1955.52861843 eV
  | Hartree energy correction     :          -0.54865627 Ha         -14.92969668 eV
  | Entropy correction            :          -0.00000000 Ha          -0.00000000 eV
  | ---------------------------
  | Total energy                  :        -150.25830202 Ha       -4088.73643048 eV
  | Total energy, T -> 0          :        -150.25830202 Ha       -4088.73643048 eV  <-- do not rely on this value for anything but (periodic) metals
  | Electronic free energy        :        -150.25830202 Ha       -4088.73643048 eV

  Derived energy quantities:
  | Kinetic energy                :         149.97401776 Ha        4081.00066231 eV
  | Electrostatic energy          :        -283.33432467 Ha       -7709.91925070 eV
  | Energy correction for multipole
  | error in Hartree potential    :          -0.00101886 Ha          -0.02772468 eV
  | Sum of eigenvalues per atom                           :       -1124.84147815 eV
  | Total energy (T->0) per atom                          :       -2044.36821524 eV  <-- do not rely on this value for anything but (periodic) metals
  | Electronic free energy per atom                       :       -2044.36821524 eV

  Self-consistency convergence accuracy:
  | Change of charge/spin density :  0.1043E-01  0.2518E-02
  | Change of sum of eigenvalues  : -0.1226E+01 eV
  | Change of total energy        :  0.1386E-02 eV

  End self-consistency iteration #     7       :  max(cpu_time)    wall_clock(cpu1)
  | Time for this iteration                    :        0.445 s           0.445 s
  | Charge density update                      :        0.152 s           0.152 s
  | Density mixing                             :        0.008 s           0.008 s
  | Hartree multipole update                   :        0.002 s           0.003 s
  | Hartree multipole summation                :        0.027 s           0.027 s
  | Integration                                :        0.252 s           0.252 s
  | Solution of K.-S. eqns.                    :        0.003 s           0.003 s
  | Total energy evaluation                    :        0.000 s           0.000 s

  Partial memory accounting:
  | Current value for overall tracked memory usage on task 0  :           0.143 MB
  | Peak value for overall tracked memory usage on task 0     :           0.696 MB after allocating wave
  | Largest tracked array allocation on task 0 so far         :           0.301 MB  when allocating gradient_basis_wave
  Note:  These values currently only include a subset of arrays which are explicitly tracked.
  The "true" memory usage will be greater.
------------------------------------------------------------

------------------------------------------------------------
          Begin self-consistency iteration #    8

  Date     :  20190508, Time     :  152735.796
------------------------------------------------------------
  Evaluating new KS density.
  Integration grid: deviation in total charge (<rho> - N_e) =   2.131628E-14
  | <rho_up-rho_dn> = N_up-N_dn =      2.0000; <|rho_up-rho_dn|> =      2.0420
  Pulay mixing of updated and previous charge densities.

  Evaluating partitioned Hartree potential by multipole expansion.
  | Analytical far-field extrapolation by fixed multipoles:
  | Hartree multipole sum: apparent total charge =  -0.132957E-07
  Summing up the Hartree potential.
  Time summed over all CPUs for potential: real work        0.032 s, elapsed        0.032 s
  | RMS charge density error from multipole expansion :   0.201045E-02

  Integrating Hamiltonian matrix: batch-based integration.
  Time summed over all CPUs for integration: real work        0.270 s, elapsed        0.270 s

  Updating Kohn-Sham eigenvalues, eigenvectors, occupation numbers, and Fermi level.
  Solving generalized eigenproblem
  Updating Kohn-Sham eigenvalues and eigenfunctions.
  Solving real generalised eigenvalue problem by standard LAPACK (fast)
  Updating Kohn-Sham eigenvalues and eigenfunctions.
  Solving real generalised eigenvalue problem by standard LAPACK (fast)

  Obtaining occupation numbers and chemical potential using ELSI.
  | Chemical potential (Fermi level):    -6.35372381eV
  Current spin moment of the entire structure :
  | N = N_up - N_down :    2.00
  | S                 :    1.00
  | J                 :    3.00

  Highest occupied state (VBM) at     -6.72121345 eV
  | Occupation number:      1.00000000
  | Spin channel:        1

  Lowest unoccupied state (CBM) at    -4.40916352 eV
  | Occupation number:      0.00000000
  | Spin channel:        2

  Overall HOMO-LUMO gap:      2.31204994 eV.

  Total energy components:
  | Sum of eigenvalues            :         -82.68243898 Ha       -2249.90363839 eV
  | XC energy correction          :         -16.89698720 Ha        -459.79041546 eV
  | XC potential correction       :          21.72571762 Ha         591.18685567 eV
  | Free-atom electrostatic energy:         -71.86435583 Ha       -1955.52861843 eV
  | Hartree energy correction     :          -0.54023274 Ha         -14.70048093 eV
  | Entropy correction            :          -0.00000000 Ha          -0.00000000 eV
  | ---------------------------
  | Total energy                  :        -150.25829713 Ha       -4088.73629755 eV
  | Total energy, T -> 0          :        -150.25829713 Ha       -4088.73629755 eV  <-- do not rely on this value for anything but (periodic) metals
  | Electronic free energy        :        -150.25829713 Ha       -4088.73629755 eV

  Derived energy quantities:
  | Kinetic energy                :         149.96593890 Ha        4080.78082534 eV
  | Electrostatic energy          :        -283.32724884 Ha       -7709.72670742 eV
  | Energy correction for multipole
  | error in Hartree potential    :          -0.00102078 Ha          -0.02777683 eV
  | Sum of eigenvalues per atom                           :       -1124.95181919 eV
  | Total energy (T->0) per atom                          :       -2044.36814877 eV  <-- do not rely on this value for anything but (periodic) metals
  | Electronic free energy per atom                       :       -2044.36814877 eV

  Self-consistency convergence accuracy:
  | Change of charge/spin density :  0.4523E-02  0.1023E-02
  | Change of sum of eigenvalues  : -0.2207E+00 eV
  | Change of total energy        :  0.1329E-03 eV

  End self-consistency iteration #     8       :  max(cpu_time)    wall_clock(cpu1)
  | Time for this iteration                    :        0.481 s           0.481 s
  | Charge density update                      :        0.160 s           0.160 s
  | Density mixing                             :        0.014 s           0.013 s
  | Hartree multipole update                   :        0.003 s           0.003 s
  | Hartree multipole summation                :        0.032 s           0.032 s
  | Integration                                :        0.270 s           0.270 s
  | Solution of K.-S. eqns.                    :        0.003 s           0.003 s
  | Total energy evaluation                    :        0.000 s           0.000 s

  Partial memory accounting:
  | Current value for overall tracked memory usage on task 0  :           0.143 MB
  | Peak value for overall tracked memory usage on task 0     :           0.696 MB after allocating wave
  | Largest tracked array allocation on task 0 so far         :           0.301 MB  when allocating gradient_basis_wave
  Note:  These values currently only include a subset of arrays which are explicitly tracked.
  The "true" memory usage will be greater.
------------------------------------------------------------

------------------------------------------------------------
          Begin self-consistency iteration #    9

  Date     :  20190508, Time     :  152736.277
------------------------------------------------------------
  Evaluating new KS density.
  Integration grid: deviation in total charge (<rho> - N_e) =   2.131628E-14
  | <rho_up-rho_dn> = N_up-N_dn =      2.0000; <|rho_up-rho_dn|> =      2.0420
  Pulay mixing of updated and previous charge densities.

  Evaluating partitioned Hartree potential by multipole expansion.
  | Analytical far-field extrapolation by fixed multipoles:
  | Hartree multipole sum: apparent total charge =  -0.142777E-07
  Summing up the Hartree potential.
  Time summed over all CPUs for potential: real work        0.031 s, elapsed        0.031 s
  | RMS charge density error from multipole expansion :   0.200816E-02

  Integrating Hamiltonian matrix: batch-based integration.
  Time summed over all CPUs for integration: real work        0.266 s, elapsed        0.266 s

  Updating Kohn-Sham eigenvalues, eigenvectors, occupation numbers, and Fermi level.
  Solving generalized eigenproblem
  Updating Kohn-Sham eigenvalues and eigenfunctions.
  Solving real generalised eigenvalue problem by standard LAPACK (fast)
  Updating Kohn-Sham eigenvalues and eigenfunctions.
  Solving real generalised eigenvalue problem by standard LAPACK (fast)

  Obtaining occupation numbers and chemical potential using ELSI.
  | Chemical potential (Fermi level):    -6.36152739eV
  Current spin moment of the entire structure :
  | N = N_up - N_down :    2.00
  | S                 :    1.00
  | J                 :    3.00

  Highest occupied state (VBM) at     -6.75690750 eV
  | Occupation number:      1.00000000
  | Spin channel:        1

  Lowest unoccupied state (CBM) at    -4.44329505 eV
  | Occupation number:      0.00000000
  | Spin channel:        2

  Overall HOMO-LUMO gap:      2.31361245 eV.

  Total energy components:
  | Sum of eigenvalues            :         -82.71002903 Ha       -2250.65440191 eV
  | XC energy correction          :         -16.89359401 Ha        -459.69808209 eV
  | XC potential correction       :          21.72128221 Ha         591.06616213 eV
  | Free-atom electrostatic energy:         -71.86435583 Ha       -1955.52861843 eV
  | Hartree energy correction     :          -0.51159345 Ha         -13.92116603 eV
  | Entropy correction            :          -0.00000000 Ha          -0.00000000 eV
  | ---------------------------
  | Total energy                  :        -150.25829010 Ha       -4088.73610633 eV
  | Total energy, T -> 0          :        -150.25829010 Ha       -4088.73610633 eV  <-- do not rely on this value for anything but (periodic) metals
  | Electronic free energy        :        -150.25829010 Ha       -4088.73610633 eV

  Derived energy quantities:
  | Kinetic energy                :         149.93950887 Ha        4080.06162768 eV
  | Electrostatic energy          :        -283.30420497 Ha       -7709.09965193 eV
  | Energy correction for multipole
  | error in Hartree potential    :          -0.00102521 Ha          -0.02789739 eV
  | Sum of eigenvalues per atom                           :       -1125.32720096 eV
  | Total energy (T->0) per atom                          :       -2044.36805317 eV  <-- do not rely on this value for anything but (periodic) metals
  | Electronic free energy per atom                       :       -2044.36805317 eV

  Self-consistency convergence accuracy:
  | Change of charge/spin density :  0.3476E-02  0.7690E-03
  | Change of sum of eigenvalues  : -0.7508E+00 eV
  | Change of total energy        :  0.1912E-03 eV

  End self-consistency iteration #     9       :  max(cpu_time)    wall_clock(cpu1)
  | Time for this iteration                    :        0.479 s           0.479 s
  | Charge density update                      :        0.165 s           0.165 s
  | Density mixing                             :        0.013 s           0.013 s
  | Hartree multipole update                   :        0.002 s           0.002 s
  | Hartree multipole summation                :        0.032 s           0.031 s
  | Integration                                :        0.265 s           0.266 s
  | Solution of K.-S. eqns.                    :        0.003 s           0.002 s
  | Total energy evaluation                    :        0.000 s           0.000 s

  Partial memory accounting:
  | Current value for overall tracked memory usage on task 0  :           0.144 MB
  | Peak value for overall tracked memory usage on task 0     :           0.696 MB after allocating wave
  | Largest tracked array allocation on task 0 so far         :           0.301 MB  when allocating gradient_basis_wave
  Note:  These values currently only include a subset of arrays which are explicitly tracked.
  The "true" memory usage will be greater.
------------------------------------------------------------

------------------------------------------------------------
          Begin self-consistency iteration #   10

  Date     :  20190508, Time     :  152736.756
------------------------------------------------------------
  Evaluating new KS density.
  Integration grid: deviation in total charge (<rho> - N_e) =  -1.776357E-14
  | <rho_up-rho_dn> = N_up-N_dn =      2.0000; <|rho_up-rho_dn|> =      2.0420
  Pulay mixing of updated and previous charge densities.

  Evaluating partitioned Hartree potential by multipole expansion.
  | Analytical far-field extrapolation by fixed multipoles:
  | Hartree multipole sum: apparent total charge =  -0.143013E-07
  Summing up the Hartree potential.
  Time summed over all CPUs for potential: real work        0.029 s, elapsed        0.029 s
  | RMS charge density error from multipole expansion :   0.200809E-02

  Integrating Hamiltonian matrix: batch-based integration.
  Time summed over all CPUs for integration: real work        0.246 s, elapsed        0.247 s

  Updating Kohn-Sham eigenvalues, eigenvectors, occupation numbers, and Fermi level.
  Solving generalized eigenproblem
  Updating Kohn-Sham eigenvalues and eigenfunctions.
  Solving real generalised eigenvalue problem by standard LAPACK (fast)
  Updating Kohn-Sham eigenvalues and eigenfunctions.
  Solving real generalised eigenvalue problem by standard LAPACK (fast)

  Obtaining occupation numbers and chemical potential using ELSI.
  | Chemical potential (Fermi level):    -6.36153807eV
  Current spin moment of the entire structure :
  | N = N_up - N_down :    2.00
  | S                 :    1.00
  | J                 :    3.00

  Highest occupied state (VBM) at     -6.75705100 eV
  | Occupation number:      1.00000000
  | Spin channel:        1

  Lowest unoccupied state (CBM) at    -4.44337149 eV
  | Occupation number:      0.00000000
  | Spin channel:        2

  Overall HOMO-LUMO gap:      2.31367951 eV.

  Total energy components:
  | Sum of eigenvalues            :         -82.71015667 Ha       -2250.65787533 eV
  | XC energy correction          :         -16.89357968 Ha        -459.69769221 eV
  | XC potential correction       :          21.72126368 Ha         591.06565778 eV
  | Free-atom electrostatic energy:         -71.86435583 Ha       -1955.52861843 eV
  | Hartree energy correction     :          -0.51146160 Ha         -13.91757820 eV
  | Entropy correction            :          -0.00000000 Ha          -0.00000000 eV
  | ---------------------------
  | Total energy                  :        -150.25829011 Ha       -4088.73610639 eV
  | Total energy, T -> 0          :        -150.25829011 Ha       -4088.73610639 eV  <-- do not rely on this value for anything but (periodic) metals
  | Electronic free energy        :        -150.25829011 Ha       -4088.73610639 eV

  Derived energy quantities:
  | Kinetic energy                :         149.93934336 Ha        4080.05712380 eV
  | Electrostatic energy          :        -283.30405379 Ha       -7709.09553798 eV
  | Energy correction for multipole
  | error in Hartree potential    :          -0.00102547 Ha          -0.02790453 eV
  | Sum of eigenvalues per atom                           :       -1125.32893767 eV
[...]
  | Change of charge/spin density :  0.1539E-05  0.1210E-05
  | Change of sum of eigenvalues  :  0.1609E-03 eV
  | Change of total energy        : -0.4053E-09 eV

  End self-consistency iteration #    11       :  max(cpu_time)    wall_clock(cpu1)
  | Time for this iteration                    :        0.437 s           0.437 s
  | Charge density update                      :        0.151 s           0.151 s
  | Density mixing                             :        0.009 s           0.010 s
  | Hartree multipole update                   :        0.002 s           0.002 s
  | Hartree multipole summation                :        0.029 s           0.029 s
  | Integration                                :        0.242 s           0.242 s
  | Solution of K.-S. eqns.                    :        0.003 s           0.003 s
  | Total energy evaluation                    :        0.000 s           0.000 s

  Partial memory accounting:
  | Current value for overall tracked memory usage on task 0  :           0.144 MB
  | Peak value for overall tracked memory usage on task 0     :           0.696 MB after allocating wave
  | Largest tracked array allocation on task 0 so far         :           0.301 MB  when allocating gradient_basis_wave
  Note:  These values currently only include a subset of arrays which are explicitly tracked.
  The "true" memory usage will be greater.
------------------------------------------------------------

------------------------------------------------------------
          Begin self-consistency iteration #   12

  Date     :  20190508, Time     :  152737.654
------------------------------------------------------------
  Evaluating new KS density.
  Integration grid: deviation in total charge (<rho> - N_e) =   4.973799E-14
  | <rho_up-rho_dn> = N_up-N_dn =      2.0000; <|rho_up-rho_dn|> =      2.0420
  Pulay mixing of updated and previous charge densities.

  Evaluating partitioned Hartree potential by multipole expansion.
  | Analytical far-field extrapolation by fixed multipoles:
  | Hartree multipole sum: apparent total charge =  -0.143170E-07
  Summing up the Hartree potential.
  Time summed over all CPUs for potential: real work        0.026 s, elapsed        0.026 s
  | RMS charge density error from multipole expansion :   0.200809E-02

  Integrating Hamiltonian matrix: batch-based integration.
  Time summed over all CPUs for integration: real work        0.242 s, elapsed        0.242 s

  Updating Kohn-Sham eigenvalues, eigenvectors, occupation numbers, and Fermi level.
  Solving generalized eigenproblem
  Updating Kohn-Sham eigenvalues and eigenfunctions.
  Solving real generalised eigenvalue problem by standard LAPACK (fast)
  Updating Kohn-Sham eigenvalues and eigenfunctions.
  Solving real generalised eigenvalue problem by standard LAPACK (fast)

  Obtaining occupation numbers and chemical potential using ELSI.
  | Chemical potential (Fermi level):    -6.36153285eV
  Current spin moment of the entire structure :
  | N = N_up - N_down :    2.00
  | S                 :    1.00
  | J                 :    3.00

  Highest occupied state (VBM) at     -6.75701561 eV
  | Occupation number:      1.00000000
  | Spin channel:        1

  Lowest unoccupied state (CBM) at    -4.44333711 eV
  | Occupation number:      0.00000000
  | Spin channel:        2

  Overall HOMO-LUMO gap:      2.31367851 eV.

  Total energy components:
  | Sum of eigenvalues            :         -82.71013462 Ha       -2250.65727515 eV
  | XC energy correction          :         -16.89358234 Ha        -459.69776454 eV
  | XC potential correction       :          21.72126719 Ha         591.06575333 eV
  | Free-atom electrostatic energy:         -71.86435583 Ha       -1955.52861843 eV
  | Hartree energy correction     :          -0.51148451 Ha         -13.91820160 eV
  | Entropy correction            :          -0.00000000 Ha          -0.00000000 eV
  | ---------------------------
  | Total energy                  :        -150.25829011 Ha       -4088.73610639 eV
  | Total energy, T -> 0          :        -150.25829011 Ha       -4088.73610639 eV  <-- do not rely on this value for anything but (periodic) metals
  | Electronic free energy        :        -150.25829011 Ha       -4088.73610639 eV

  Derived energy quantities:
  | Kinetic energy                :         149.93935121 Ha        4080.05733742 eV
  | Electrostatic energy          :        -283.30405898 Ha       -7709.09567927 eV
  | Energy correction for multipole
  | error in Hartree potential    :          -0.00102548 Ha          -0.02790476 eV
  | Sum of eigenvalues per atom                           :       -1125.32863758 eV
  | Total energy (T->0) per atom                          :       -2044.36805320 eV  <-- do not rely on this value for anything but (periodic) metals
  | Electronic free energy per atom                       :       -2044.36805320 eV

  Self-consistency convergence accuracy:
  | Change of charge/spin density :  0.1042E-05  0.8723E-06
  | Change of sum of eigenvalues  :  0.4393E-03 eV
  | Change of total energy        :  0.8360E-09 eV

  End self-consistency iteration #    12       :  max(cpu_time)    wall_clock(cpu1)
  | Time for this iteration                    :        0.432 s           0.432 s
  | Charge density update                      :        0.149 s           0.149 s
  | Density mixing                             :        0.010 s           0.009 s
  | Hartree multipole update                   :        0.002 s           0.002 s
  | Hartree multipole summation                :        0.027 s           0.027 s
  | Integration                                :        0.241 s           0.242 s
  | Solution of K.-S. eqns.                    :        0.003 s           0.003 s
  | Total energy evaluation                    :        0.000 s           0.000 s

  Partial memory accounting:
  | Current value for overall tracked memory usage on task 0  :           0.144 MB
  | Peak value for overall tracked memory usage on task 0     :           0.696 MB after allocating wave
  | Largest tracked array allocation on task 0 so far         :           0.301 MB  when allocating gradient_basis_wave
  Note:  These values currently only include a subset of arrays which are explicitly tracked.
  The "true" memory usage will be greater.
------------------------------------------------------------

------------------------------------------------------------
          Begin self-consistency iteration #   13

  Date     :  20190508, Time     :  152738.086
------------------------------------------------------------
  Evaluating new KS density.
  Integration grid: deviation in total charge (<rho> - N_e) =   1.776357E-14
  | <rho_up-rho_dn> = N_up-N_dn =      2.0000; <|rho_up-rho_dn|> =      2.0420
  Pulay mixing of updated and previous charge densities.

  Evaluating partitioned Hartree potential by multipole expansion.
  | Analytical far-field extrapolation by fixed multipoles:
  | Hartree multipole sum: apparent total charge =  -0.143168E-07
  Summing up the Hartree potential.
  Time summed over all CPUs for potential: real work        0.027 s, elapsed        0.027 s
  | RMS charge density error from multipole expansion :   0.200809E-02

  Integrating Hamiltonian matrix: batch-based integration.
  Time summed over all CPUs for integration: real work        0.239 s, elapsed        0.239 s

  Updating Kohn-Sham eigenvalues, eigenvectors, occupation numbers, and Fermi level.
  Solving generalized eigenproblem
  Updating Kohn-Sham eigenvalues and eigenfunctions.
  Solving real generalised eigenvalue problem by standard LAPACK (fast)
  Updating Kohn-Sham eigenvalues and eigenfunctions.
  Solving real generalised eigenvalue problem by standard LAPACK (fast)

  Obtaining occupation numbers and chemical potential using ELSI.
  | Chemical potential (Fermi level):    -6.36153348eV
  Current spin moment of the entire structure :
  | N = N_up - N_down :    2.00
  | S                 :    1.00
  | J                 :    3.00

  Highest occupied state (VBM) at     -6.75701675 eV
  | Occupation number:      1.00000000
  | Spin channel:        1

  Lowest unoccupied state (CBM) at    -4.44333809 eV
  | Occupation number:      0.00000000
  | Spin channel:        2

  Overall HOMO-LUMO gap:      2.31367866 eV.

  Total energy components:
  | Sum of eigenvalues            :         -82.71013530 Ha       -2250.65729364 eV
  | XC energy correction          :         -16.89358227 Ha        -459.69776269 eV
  | XC potential correction       :          21.72126710 Ha         591.06575089 eV
  | Free-atom electrostatic energy:         -71.86435583 Ha       -1955.52861843 eV
  | Hartree energy correction     :          -0.51148381 Ha         -13.91818253 eV
  | Entropy correction            :          -0.00000000 Ha          -0.00000000 eV
  | ---------------------------
  | Total energy                  :        -150.25829011 Ha       -4088.73610639 eV
  | Total energy, T -> 0          :        -150.25829011 Ha       -4088.73610639 eV  <-- do not rely on this value for anything but (periodic) metals
  | Electronic free energy        :        -150.25829011 Ha       -4088.73610639 eV

  Derived energy quantities:
  | Kinetic energy                :         149.93935109 Ha        4080.05733423 eV
  | Electrostatic energy          :        -283.30405893 Ha       -7709.09567794 eV
  | Energy correction for multipole
  | error in Hartree potential    :          -0.00102548 Ha          -0.02790472 eV
  | Sum of eigenvalues per atom                           :       -1125.32864682 eV
  | Total energy (T->0) per atom                          :       -2044.36805320 eV  <-- do not rely on this value for anything but (periodic) metals
  | Electronic free energy per atom                       :       -2044.36805320 eV

  Self-consistency convergence accuracy:
  | Change of charge/spin density :  0.1658E-06  0.7446E-07
  | Change of sum of eigenvalues  : -0.1848E-04 eV
  | Change of total energy        : -0.1423E-09 eV

  Writing Kohn-Sham eigenvalues.

  Spin-up eigenvalues:

  State    Occupation    Eigenvalue [Ha]    Eigenvalue [eV]
      1       1.00000         -18.902497         -514.36311
      2       1.00000         -18.902411         -514.36076
      3       1.00000          -1.215932          -33.08719
      4       1.00000          -0.751019          -20.43626
      5       1.00000          -0.500858          -13.62905
      6       1.00000          -0.500858          -13.62905
      7       1.00000          -0.499437          -13.59037
      8       1.00000          -0.248316           -6.75702
      9       1.00000          -0.248316           -6.75702
     10       0.00000           0.079553            2.16475
     11       0.00000           0.094472            2.57071
     12       0.00000           0.131408            3.57579
     13       0.00000           0.131408            3.57579
     14       0.00000           0.209563            5.70250

  Spin-down eigenvalues:

  State    Occupation    Eigenvalue [Ha]    Eigenvalue [eV]
      1       1.00000         -18.875772         -513.63588
      2       1.00000         -18.875690         -513.63366
      3       1.00000          -1.172698          -31.91074
      4       1.00000          -0.685275          -18.64729
      5       1.00000          -0.465798          -12.67501
      6       1.00000          -0.432630          -11.77245
      7       1.00000          -0.432630          -11.77245
      8       0.00000          -0.163290           -4.44334
      9       0.00000          -0.163290           -4.44334
     10       0.00000           0.099749            2.71430
     11       0.00000           0.106496            2.89792
     12       0.00000           0.145306            3.95398
     13       0.00000           0.145306            3.95398
     14       0.00000           0.214267            5.83050

  Current spin moment of the entire structure :
  | N = N_up - N_down :    2.00
  | S                 :    1.00
  | J                 :    3.00

  Highest occupied state (VBM) at     -6.75701675 eV
  | Occupation number:      1.00000000
  | Spin channel:        1

  Lowest unoccupied state (CBM) at    -4.44333809 eV
  | Occupation number:      0.00000000
  | Spin channel:        2

  Overall HOMO-LUMO gap:      2.31367866 eV.

  Self-consistency cycle converged.

  End self-consistency iteration #    13       :  max(cpu_time)    wall_clock(cpu1)
  | Time for this iteration                    :        0.436 s           0.436 s
  | Charge density update                      :        0.155 s           0.155 s
  | Density mixing                             :        0.010 s           0.009 s
  | Hartree multipole update                   :        0.002 s           0.002 s
  | Hartree multipole summation                :        0.027 s           0.027 s
  | Integration                                :        0.239 s           0.239 s
  | Solution of K.-S. eqns.                    :        0.003 s           0.003 s
  | Total energy evaluation                    :        0.000 s           0.000 s

  Partial memory accounting:
  | Current value for overall tracked memory usage on task 0  :           0.144 MB
  | Peak value for overall tracked memory usage on task 0     :           0.696 MB after allocating wave
  | Largest tracked array allocation on task 0 so far         :           0.301 MB  when allocating gradient_basis_wave
  Note:  These values currently only include a subset of arrays which are explicitly tracked.
  The "true" memory usage will be greater.
------------------------------------------------------------
  ------------------------------------------------------------
   Computing monopole / dipole moments for complete molecule:
  | Total electronic charge [e]         :          0.159999999999995E+02
  | Total ionic charge [e]              :          0.160000000000000E+02
  | Total charge [e]                    :          0.500932628710871E-12
  | Total dipole moment [eAng]          :          0.527372681418805E-14        -0.154737178014093E-14         0.206801662372413E-13
  | Absolute dipole moment              :          0.213980333100170E-13 eAng              /                   0.102763116202685E-12 Debye  .

  Energy and forces in a compact form:
  | Total energy uncorrected      :         -0.408873610639326E+04 eV
  | Total energy corrected        :         -0.408873610639326E+04 eV  <-- do not rely on this value for anything but (periodic) metals
  | Electronic free energy        :         -0.408873610639326E+04 eV

  ------------------------------------ 
  Start decomposition of the XC Energy 
  ------------------------------------ 
  X and C from original XC functional choice 
  Hartree-Fock Energy :          0.000000000 Ha              0.000000000 eV
  X Energy            :        -16.364591236 Ha           -445.303184310 eV
  C Energy            :         -0.528991032 Ha            -14.394578382 eV
  Total XC Energy     :        -16.893582269 Ha           -459.697762691 eV
  ------------------------------------ 
  LDA X and C from self-consistent density 
  X Energy LDA        :        -14.862244520 Ha           -404.422250156 eV
  C Energy LDA        :         -1.104318501 Ha            -30.050035348 eV
  ------------------------------------ 
  End decomposition of the XC Energy 
  ------------------------------------ 

------------------------------------------------------------

------------------------------------------------------------------------------
  Final output of selected total energy values:

  The following output summarizes some interesting total energy values
  at the end of a run (AFTER all relaxation, molecular dynamics, etc.).

  | Total energy of the DFT / Hartree-Fock s.c.f. calculation      :          -4088.736106393 eV
  | Final zero-broadening corrected energy (caution - metals only) :          -4088.736106393 eV
  | For reference only, the value of 1 Hartree used in FHI-aims is :             27.211384500 eV

  Before relying on these values, please be sure to understand exactly which
  total energy value is referred to by a given number. Different objects may
  all carry the same name 'total energy'. Definitions:

  Total energy of the DFT / Hartree-Fock s.c.f. calculation:
  | Note that this energy does not include ANY quantities calculated after the
  | s.c.f. cycle, in particular not ANY RPA, MP2, etc. many-body perturbation terms.

  Final zero-broadening corrected energy:
  | For metallic systems only, a broadening of the occupation numbers at the Fermi
  | level can be extrapolated back to zero broadening by an electron-gas inspired
  | formula. For all systems that are not real metals, this value can be
  | meaningless and should be avoided.

------------------------------------------------------------------------------
  Methods described in the following list of references were used in this FHI-aims run.
  If you publish the results, please make sure to cite these reference if they apply.
  FHI-aims is an academic code, and for our developers (often, Ph.D. students
  and postdocs), scientific credit in the community is essential.
  Thank you for helping us!

  For any use of FHI-aims, please cite:

    Volker Blum, Ralf Gehrke, Felix Hanke, Paula Havu, Ville Havu,
    Xinguo Ren, Karsten Reuter, and Matthias Scheffler
    'Ab initio molecular simulations with numeric atom-centered orbitals'
    Computer Physics Communications 180, 2175-2196 (2009)
    http://dx.doi.org/10.1016/j.cpc.2009.06.022


  For the real-space grid partitioning and parallelization used in this calculation, please cite:

    Ville Havu, Volker Blum, Paula Havu, and Matthias Scheffler,
    'Efficient O(N) integration for all-electron electronic structure calculation'
    'using numerically tabulated basis functions'
    Journal of Computational Physics 228, 8367-8379 (2009).
    http://dx.doi.org/10.1016/j.jcp.2009.08.008

  Of course, there are many other important community references, e.g., those cited in the
  above references. Our list is limited to references that describe implementations in the
  FHI-aims code. The reason is purely practical (length of this list) - please credit others as well.

------------------------------------------------------------
          Leaving FHI-aims.
          Date     :  20190508, Time     :  152738.578

          Computational steps:
          | Number of self-consistency cycles          :           13
          | Number of SCF (re)initializations          :            1

          Detailed time accounting                     :  max(cpu_time)    wall_clock(cpu1)
          | Total time                                 :        6.694 s           6.695 s
          | Preparation time                           :        0.131 s           0.130 s
          | Boundary condition initalization           :        0.000 s           0.000 s
          | Grid partitioning                          :        0.041 s           0.041 s
          | Preloading free-atom quantities on grid    :        0.003 s           0.003 s
          | Free-atom superposition energy             :        0.042 s           0.042 s
          | Total time for integrations                :        3.675 s           3.677 s
          | Total time for solution of K.-S. equations :        0.041 s           0.040 s
          | Total time for density update              :        2.143 s           2.145 s
          | Total time for mixing                      :        0.106 s           0.105 s
          | Total time for Hartree multipole update    :        0.030 s           0.033 s
          | Total time for Hartree multipole sum       :        0.397 s           0.395 s
          | Total time for total energy evaluation     :        0.001 s           0.000 s

 This is a stub MPI_ALLREDUCE call.
 You should not be here. Check your
 setting on the use_mpi variable, or
 link against true MPI-libraries.
