------------------------------------------------------------
          Invoking FHI-aims ...
          Version 171221_1
          Compiled on 2019/05/06 at 14:26:40 on host ffph0xx.

          When using FHI-aims, please cite the following reference:

          Volker Blum, Ralf Gehrke, Felix Hanke, Paula Havu,
          Ville Havu, Xinguo Ren, Karsten Reuter, and Matthias Scheffler,
          'Ab Initio Molecular Simulations with Numeric Atom-Centered Orbitals',
          Computer Physics Communications 180, 2175-2196 (2009)

          For any questions about FHI-aims, please visit the aimsclub website
          with its forums and wiki. Contributions to both the forums and the
          wiki are warmly encouraged - they are for you, and everyone is welcome there.

------------------------------------------------------------



  Date     :  20190514, Time     :  123949.977
  Time zero on CPU 1             :   0.740000000000000E-03  s.
  Internal wall clock time zero  :           327069589.977  s.

  FHI-aims created a unique identifier for this run for later identification
  aims_uuid : 03741663-F633-437B-AA68-8F969D92A099


  Performing system and environment tests:
  *** Environment variable OMP_NUM_THREADS is not set
  *** For performance reasons you might want to set it to 1
  | Stacksize not measured: no C compiler

  Obtaining array dimensions for all initial allocations:
  
  -----------------------------------------------------------------------
  Parsing control.in (first pass over file, find array dimensions only).
  The contents of control.in will be repeated verbatim below
  unless switched off by setting 'verbatim_writeout .false.' .
  in the first line of control.in .
  -----------------------------------------------------------------------
  
  #--- method ---
  xc pw-lda
  spin none
  relativistic atomic_zora scalar
  #---
  
  #--- k-grid settings ---
  k_grid 12 12 12
  #---
  
  
  
  
  
  
  
  
  
  
  
  #-------------------------------------------------------------------------------
  #--- Species defaults for Si
  #-------------------------------------------------------------------------------
  
  ################################################################################
  #
  #  FHI-aims code project
  #  VB, Fritz-Haber Institut, 2009
  #
  #  Suggested "light" defaults for Si atom (to be pasted into control.in file)
  #  Be sure to double-check any results obtained with these settings for post-processing,
  #  e.g., with the "tight" defaults and larger basis sets.
  #
  ################################################################################
    species        Si
  #     global species definitions
      nucleus             14
      mass                28.0855
  #
      l_hartree           4
  #
      cut_pot             3.5          1.5  1.0
      basis_dep_cutoff    1e-4
  #
      radial_base         42 5.0
      radial_multiplier   1
      angular_grids       specified
        division   0.5866   50
        division   0.9616  110
        division   1.2249  194
        division   1.3795  302
  #      division   1.4810  434
  #      division   1.5529  590
  #      division   1.6284  770
  #      division   1.7077  974
  #      division   2.4068 1202
  #      outer_grid   974
        outer_grid 302
  ################################################################################
  #
  #  Definition of "minimal" basis
  #
  ################################################################################
  #     valence basis states
      valence      3  s   2.
      valence      3  p   2.
  #     ion occupancy
      ion_occ      3  s   1.
      ion_occ      3  p   1.
  ################################################################################
  #
  #  Suggested additional basis functions. For production calculations,
  #  uncomment them one after another (the most important basis functions are
  #  listed first).
  #
  #  Constructed for dimers: 1.75 A, 2.0 A, 2.25 A, 2.75 A, 3.75 A
  #
  ################################################################################
  #  "First tier" - improvements: -571.96 meV to -37.03 meV
       hydro 3 d 4.2
       hydro 2 p 1.4
  #     hydro 4 f 6.2
       ionic 3 s auto
  #  "Second tier" - improvements: -16.76 meV to -3.03 meV
  #     hydro 3 d 9
  #     hydro 5 g 9.4
  #     hydro 4 p 4
  #     hydro 1 s 0.65
  #  "Third tier" - improvements: -3.89 meV to -0.60 meV
  #     ionic 3 d auto
  #     hydro 3 s 2.6
  #     hydro 4 f 8.4
  #     hydro 3 d 3.4
  #     hydro 3 p 7.8
  #  "Fourth tier" - improvements: -0.33 meV to -0.11 meV
  #     hydro 2 p 1.6
  #     hydro 5 g 10.8
  #     hydro 5 f 11.2
  #     hydro 3 d 1
  #     hydro 4 s 4.5
  #  Further basis functions that fell out of the optimization - noise
  #  level... < -0.08 meV
  #     hydro 4 d 6.6
  #     hydro 5 g 16.4
  #     hydro 4 d 9
  
  -----------------------------------------------------------------------
  Completed first pass over input file control.in .
  -----------------------------------------------------------------------
  
  
  -----------------------------------------------------------------------
  Parsing geometry.in (first pass over file, find array dimensions only).
  The contents of geometry.in will be repeated verbatim below
  unless switched off by setting 'verbatim_writeout .false.' .
  in the first line of geometry.in .
  -----------------------------------------------------------------------
  
  lattice_vector   0.000000   2.900000   2.900000
  lattice_vector   2.900000   0.000000   2.900000
  lattice_vector   2.900000   2.900000   0.000000
  atom_frac   0.000000   0.000000   0.000000 Si
  atom_frac   0.250000   0.250000   0.250000 Si
  
  -----------------------------------------------------------------------
  Completed first pass over input file geometry.in .
  -----------------------------------------------------------------------
  

  Basic array size parameters:
  | Number of species                 :        1
  | Number of atoms                   :        2
  | Number of lattice vectors         :        3
  | Max. basis fn. angular momentum   :        2
  | Max. atomic/ionic basis occupied n:        3
  | Max. number of basis fn. types    :        3
  | Max. radial fns per species/type  :        5
  | Max. logarithmic grid size        :     1346
  | Max. radial integration grid size :       42
  | Max. angular integration grid size:      302
  | Max. angular grid division number :        8
  | Radial grid for Hartree potential :     1346
  | Number of spin channels           :        1

------------------------------------------------------------
          Reading file control.in.
------------------------------------------------------------
  XC: Using Perdew-Wang parametrisation of Ceperley-Alder LDA.
  Spin treatment: No spin polarisation.
  Scalar relativistic treatment of kinetic energy: on-site free-atom approximation to ZORA.
  Found k-point grid:        12        12        12

  Reading configuration options for species Si                  .
  | Found nuclear charge :  14.0000
  | Found atomic mass :    28.085500000000000      amu
  | Found l_max for Hartree potential  :   4
  | Found cutoff potl. onset [A], width [A], scale factor :    3.50000    1.50000    1.00000
  | Threshold for basis-dependent cutoff potential is   0.100000E-03
  | Found data for basic radial integration grid :    42 points, outermost radius =    5.000 A
  | Found multiplier for basic radial grid :   1
  | Found angular grid specification: user-specified.
  | Specified grid contains     5 separate shells.
  | Check grid settings after all constraints further below.
  | Found free-atom valence shell :  3 s   2.000
  | Found free-atom valence shell :  3 p   2.000
  | Found free-ion valence shell :  3 s   1.000
  | Found free-ion valence shell :  3 p   1.000
  | Found hydrogenic basis function :  3 d   4.200
  | Found hydrogenic basis function :  2 p   1.400
  | Found ionic basis function :  3 s , default cutoff radius.
  Species Si                  : Missing cutoff potential type.
  Defaulting to exp(1/x)/(1-x)^2 type cutoff potential.
  Species Si: No 'logarithmic' tag. Using default grid for free atom:
  | Default logarithmic grid data [bohr] : 0.1000E-03 0.1000E+03 0.1012E+01
  | Will include ionic basis functions of  2.0-fold positive Si                   ion.
  Species Si: On-site basis accuracy parameter (for Gram-Schmidt orthonormalisation) not specified.
  Using default value basis_acc =  0.1000000E-03.
  Species Si                  : Using default innermost maximum threshold i_radial=  2 for radial functions.
  Species Si                  : Default cutoff onset for free atom density etc. : 0.35000000E+01 AA.
  Species Si                  : Basic radial grid will be enhanced according to radial_multiplier =   1, to contain    42 grid points.

  Finished reading input file 'control.in'. Consistency checks are next.

  MPI_IN_PLACE appears to work with this MPI implementation.
  | Keeping use_mpi_in_place .true. (see manual).
  Target number of points in a grid batch is not set. Defaulting to  100
  Method for grid partitioning is not set. Defaulting to 'maxmin' partitioning.
  Batch size limit is not set. Defaulting to    200
  By default, will store active basis functions for each batch.
  If in need of memory, prune_basis_once .false. can be used to disable this option.
  communication_type for Hartree potential was not specified.
  Defaulting to calc_hartree .
 * Attention: 
 * You may want to set distributed_spline_storage to .true. in order to save memory.
 * This doesn't harm performance and is perfectly ok unless:
 * - you get error messages in postprocessing (about missing atoms in get_rho_multipole_spl)
 * - you need full spline storage in hirshfeld_analysis
  Defaulting to Pulay charge density mixer.
  Pulay mixer: Number of relevant iterations not set.
  Defaulting to    8 iterations.
  Pulay mixer: Number of initial linear mixing iterations not set.
  Defaulting to    0 iterations.
  Work space size for distributed Hartree potential not set.
  Defaulting to   0.200000E+03 MB.
  Mixing parameter for charge density mixing has not been set.
  Using default: charge_mix_param =     0.0500.
  The mixing parameter will be adjusted in iteration number     2 of the first full s.c.f. cycle only.
  Algorithm-dependent basis array size parameters:
  | n_max_pulay                         :        8
 * Notice: The s.c.f. convergence criterion sc_accuracy_rho was not provided.
 * We used to stop in this case, and ask the user to provide reasonable
 * scf convergence criteria. However, this led some users to employ criteria
 * that led to extremely long run times, e.g., for simple relaxation.
 * We now preset a default value for sc_accuracy_rho if it is not set.
 * You may still wish to check if this setting is too tight or too loose for your needs.
 * Based on n_atoms, FHI-aims chose sc_accuracy_rho =  0.100000E-05 .
  Maximum number of self-consistency iterations not provided.
  Presetting  1000 iterations.
  Presetting      1001 iterations before the initial mixing cycle
  is restarted anyway using the sc_init_iter criterion / keyword.
  Presetting a factor      1.000 between actual scf density residual
  and density convergence criterion sc_accuracy_rho below which sc_init_iter
  takes no effect.
 * No s.c.f. convergence criteria (sc_accuracy_*) were provided in control.in.
 * The run will proceed with a reasonable default guess, but please check whether.
 * the s.c.f. cycles seem to take too much or too little time.
  Calculation of forces was not defined in control.in. No forces will be calculated.
  Geometry relaxation not requested: no relaxation will be performed.
  No accuracy limit for integral partition fn. given. Defaulting to  0.1000E-14.
  No threshold value for u(r) in integrations given. Defaulting to  0.1000E-05.
  No occupation type (smearing scheme) given. Defaulting to Gaussian broadening, width =  0.1000E-01 eV.
  The width will be adjusted in iteration number     2 of the first full s.c.f. cycle only.
  S.C.F. convergence parameters will be adjusted in iteration number     2 of the first full s.c.f. cycle only.
  No accuracy for occupation numbers given. Defaulting to  0.1000E-12.
  No threshold value for occupation numbers given. Defaulting to  0.0000E+00.
  No accuracy for fermi level given. Defaulting to  0.1000E-19.
  Maximum # of iterations to find E_F not set. Defaulting to  200.
  Preferred method for the eigenvalue solver ('KS_method') not specified in 'control.in'.
  Defaulting to serial version, 'lapack_fast'.
  Will not use alltoall communication since running on < 1024 CPUs.
  Threshold for basis singularities not set.
  Default threshold for basis singularities:  0.1000E-04
  partition_type (choice of integration weights) for integrals was not specified.
  | Using a version of the partition function of Stratmann and coworkers ('stratmann_smoother').
  | At each grid point, the set of atoms used to build the partition table is smoothly restricted to
  | only those atoms whose free-atom density would be non-zero at that grid point.
  Partitioning for Hartree potential was not defined. Using partition_type for integrals.
  | Adjusted default value of keyword multip_moments_threshold to:       0.10000000E-11
  | This value may affect high angular momentum components of the Hartree potential in periodic systems.
  Angular momentum expansion for Kerker preconditioner not set explicitly.
  | Using default value of   0
  No explicit requirement for turning off preconditioner.
  | By default, it will be turned off when the charge convergence reaches
  | sc_accuracy_rho  =   0.100000E-05
  No special mixing parameter while Kerker preconditioner is on.
  Using default: charge_mix_param =     0.0500.
  No q(lm)/r^(l+1) cutoff set for long-range Hartree potential.
  | Using default value of  0.100000E-09 .
  | Verify using the multipole_threshold keyword.
  Defaulting to new monopole extrapolation.
  Density update method: automatic selection selected.
  Using density matrix based charge density update.
  Using density matrix based charge density update.
  Using packed matrix style: index .
  Defaulting to use time-reversal symmetry for k-point grid.
------------------------------------------------------------


------------------------------------------------------------
          Reading geometry description geometry.in.
------------------------------------------------------------
  Input structure read successfully.
  The structure contains        2 atoms,  and a total of         28.000 electrons.

  Input geometry:
  | Unit cell:
  |        0.00000000        2.90000000        2.90000000
  |        2.90000000        0.00000000        2.90000000
  |        2.90000000        2.90000000        0.00000000
  | Atomic structure:
  |       Atom                x [A]            y [A]            z [A]
  |    1: Species Si            0.00000000        0.00000000        0.00000000
  |    2: Species Si            1.45000000        1.45000000        1.45000000

  Lattice parameters for 3D lattice (in Angstroms) :     4.101219    4.101219    4.101219
  Angle(s) between unit vectors (in degrees)      :    60.000000   60.000000   60.000000

  |

  | The smallest distance between any two atoms is         2.51147367 AA.
  |
  | The first atom of this pair is atom number                      1 .
  | The second atom of this pair is atom number                     2 .
  | Wigner-Seitz cell of the first atom image           0     0     0 .
  | (The Wigner-Seitz cell of the second atom is 0 0 0  by definition.)

  Quantities derived from the lattice vectors:
  | Reciprocal lattice vector 1: -1.083308  1.083308  1.083308
  | Reciprocal lattice vector 2:  1.083308 -1.083308  1.083308
  | Reciprocal lattice vector 3:  1.083308  1.083308 -1.083308
  | Unit cell volume                               :   0.487780E+02  A^3

  Range separation radius for Ewald summation (hartree_convergence_parameter):      4.17840659 bohr.

  Fractional coordinates:
                         L1                L2                L3
       atom_frac         0.00000000        0.00000000        0.00000000  Si
       atom_frac         0.25000000        0.25000000        0.25000000  Si

  Number of empty states per atom not set in control.in - providing a guess from actual geometry.
  | Total number of empty states used during s.c.f. cycle:        6
  If you use a very high smearing, use empty_states (per atom!) in control.in to increase this value.

  Structure-dependent array size parameters: 
  | Maximum number of distinct radial functions  :        8
  | Maximum number of basis functions            :       36
  | Number of Kohn-Sham states (occupied + empty):       20
------------------------------------------------------------

------------------------------------------------------------
          Preparing all fixed parts of the calculation.
------------------------------------------------------------
  Determining machine precision:
     2.2250738585072014E-308
  Setting up grids for atomic and cluster calculations.

  Creating wave function, potential, and density for free atoms.

  Species: Si

  List of occupied orbitals and eigenvalues:
    n    l              occ      energy [Ha]    energy [eV]
    1    0           2.0000       -65.491668     -1782.1190
    2    0           2.0000        -5.087967      -138.4506
    3    0           2.0000        -0.391471       -10.6525
    2    1           6.0000        -3.502246       -95.3010
    3    1           2.0000        -0.143943        -3.9169

  Creating fixed part of basis set: Ionic, confined, hydrogenic.

  Si                   ion:

  List of free ionic orbitals and eigenvalues:
    n    l      energy [Ha]    energy [eV]
    1    0       -66.364436     -1805.8682
    2    0        -5.935799      -161.5213
    3    0        -1.078166       -29.3384
    2    1        -4.351123      -118.4001
    3    1        -0.781733       -21.2720


  List of ionic basis orbitals and eigenvalues:
    n    l      energy [Ha]    energy [eV]    outer radius [A]
    3    0        -1.078146       -29.3378       4.214062


  Si                   hydrogenic:

  List of hydrogenic basis orbitals: 
    n    l      effective z      eigenvalue [eV]  inner max. [A]     outer max. [A]     outer radius [A]   
    3    2         4.200000       -26.6624           1.139231           1.139231           4.534782
    2    1         1.400000        -6.4613           1.472672           1.472672           4.590560


  Adding cutoff potential to free-atom effective potential.
  Creating atomic-like basis functions for current effective potential.

  Species Si                  :

  List of atomic basis orbitals and eigenvalues:
    n    l      energy [Ha]    energy [eV]    outer radius [A]
    1    0       -65.491668     -1782.1190       0.789468
    2    0        -5.087967      -138.4506       2.815114
    3    0        -0.391471       -10.6525       4.534782
    2    1        -3.502246       -95.3010       3.259919
    3    1        -0.143943        -3.9169       4.590560

  Assembling full basis from fixed parts.
  | Species Si :   atomic orbital   1 s accepted.
  | Species Si :   atomic orbital   2 s accepted.
  | Species Si :    ionic orbital   3 s accepted.
  | Species Si :   atomic orbital   3 s accepted.
  | Species Si :   atomic orbital   2 p accepted.
  | Species Si :   atomic orbital   3 p accepted.
  | Species Si :    hydro orbital   2 p accepted.
  | Species Si :    hydro orbital   3 d accepted.

  Basis size parameters after reduction:
  | Total number of radial functions:        8
  | Total number of basis functions :       36

  Per-task memory consumption for arrays in subroutine allocate_ext:
  |           2.757868MB.
  Testing on-site integration grid accuracy.
  |  Species  Function  <phi|h_atom|phi> (log., in eV)  <phi|h_atom|phi> (rad., in eV)
           1        1              -1782.1189727076              -1782.1182429251
           1        2               -138.4506350693               -138.4506310079
           1        3                -10.3030408815                -10.3029120678
           1        4                  5.0238999146                  4.9457540310 ***
           1        5                -95.3009689499                -95.3009689315
           1        6                 -3.9266496564                 -3.9420918374
           1        7                  6.3453628447                  6.1632372158 ***
           1        8                  6.2883050744                  6.2861881409
 * Note: Onsite integrals marked "***" above are less accurate than
 * onsite_accuracy_threshold =    0.03000 eV. Usually, this is harmless.
 * When in doubt, tighten the "radial" and/or "radial_multiplier" flags to check.

  Preparing densities etc. for the partition functions (integrals / Hartree potential).

  Preparations completed.
  max(cpu_time)          :      0.091 s.
  Wall clock time (cpu1) :      0.091 s.
------------------------------------------------------------

------------------------------------------------------------
          Begin self-consistency loop: Initialization.

          Date     :  20190514, Time     :  123950.069
------------------------------------------------------------

  Initializing index lists of integration centers etc. from given atomic structure:
  Mapping all atomic coordinates to central unit cell.

  Initializing the k-points
          Using symmetry for reducing the k-points
  | k-points reduced from:     1728 to      868
  | Number of k-points                             :       868
  The eigenvectors in the calculations are COMPLEX.
  | K-points in task   0:       868
  | Number of basis functions in the Hamiltonian integrals :      1142
  | Number of basis functions in a single unit cell        :        36
  | Number of centers in hartree potential         :       708
  | Number of centers in hartree multipole         :       228
  | Number of centers in electron density summation:       190
  | Number of centers in basis integrals           :       191
  | Number of centers in integrals                 :       101
  | Number of centers in hamiltonian               :       190
  | Consuming       1519 KiB for k_phase.
  | Number of super-cells (origin) [n_cells]                     :        2197
  | Number of super-cells (after PM_index) [n_cells]             :         112
  | Number of super-cells in hamiltonian [n_cells_in_hamiltonian]:         112
  | Size of matrix packed + index [n_hamiltonian_matrix_size] :       37003
  Partitioning the integration grid into batches with maxmin method.
  | Maximal weight for a single point:     1.000
  | Minimal weight for a single point:     0.541
  | Number of batches:      128
  | Maximal batch size:      90
  | Minimal batch size:      85
  | Average batch size:      87.562
  | Standard deviation of batch sizes:       1.493
  Initializing partition tables, free-atom densities, potentials, etc. across the integration grid (initialize_grid_storage).
  | initialize_grid_storage: Actual outermost partition radius vs. multipole_radius_free
  | (-- VB: in principle, multipole_radius_free should be larger, hence this output)
  | Species        1: Confinement radius =              4.999999999999999 AA, multipole_radius_free =              5.000694715736543 AA.
  | Species        1: outer_partition_radius set to              5.000694715736543 AA .
  | Original list of interatomic distances with         191 x        191 entries is created.
  | Net number of integration points:    11208
  | of which are non-zero points    :     9948
  | Numerical average free-atom electrostatic potential    :    -10.78739991 eV
  Renormalizing the initial density to the exact electron count on the 3D integration grid.
  | Initial density: Formal number of electrons (from input files) :      28.0000000000
  | Integrated number of electrons on 3D grid     :      28.0029862917
  | Charge integration error                      :       0.0029862917
  | Normalization factor for density and gradient :       0.9998933581
  Obtaining max. number of non-zero basis functions in each batch (get_n_compute_maxes).
  | Maximal number of non-zero basis functions:      408 in task     0
  Allocating        9.999 MB for KS_eigenvector_complex
  Integrating Hamiltonian matrix: batch-based integration.
  Time summed over all CPUs for integration: real work        0.404 s, elapsed        0.404 s
  Integrating overlap matrix.
  Time summed over all CPUs for integration: real work        0.282 s, elapsed        0.282 s
  Decreasing sparse matrix size:
   Tolerance:   9.9999998245167004E-014
   Hamiltonian matrix
  | Array has    31170 nonzero elements out of    37003 elements
  | Sparsity factor is 0.158
   Overlap matrix
  | Array has    29072 nonzero elements out of    37003 elements
  | Sparsity factor is 0.214
  New size of hamiltonian matrix:       31427

  Updating Kohn-Sham eigenvalues, eigenvectors, occupation numbers, and Fermi level.
  Solving generalized eigenproblem
  Transforming overlap matrix and checking for singularities.
  Overlap matrix is nonsingular at first k-point:
  | Lowest eigenvalue:  0.904003E-02

  Obtaining occupation numbers and chemical potential using ELSI.
  | Chemical potential (Fermi level):    -5.09122172eV
  Writing Kohn-Sham eigenvalues.
  K-point:       1 at    0.000000    0.000000    0.000000 (in units of recip. lattice)

  State    Occupation    Eigenvalue [Ha]    Eigenvalue [eV]
      1       2.00000         -65.503935        -1782.45277
      2       2.00000         -65.503935        -1782.45277
      3       2.00000          -5.103348         -138.86917
      4       2.00000          -5.103237         -138.86614
      5       2.00000          -3.517610          -95.71904
      6       2.00000          -3.517610          -95.71904
      7       2.00000          -3.517610          -95.71904
      8       2.00000          -3.517330          -95.71141
      9       2.00000          -3.517330          -95.71141
     10       2.00000          -3.517330          -95.71141
     11       2.00000          -0.609884          -16.59578
     12       2.00000          -0.219021           -5.95986
     13       2.00000          -0.219021           -5.95986
     14       2.00000          -0.219021           -5.95986
     15       0.00000          -0.175519           -4.77613
     16       0.00000          -0.122603           -3.33620
     17       0.00000          -0.122603           -3.33620
     18       0.00000          -0.122603           -3.33620
     19       0.00000           0.076407            2.07913
     20       0.00000           0.076407            2.07913

  What follows are estimated values for band gap, HOMO, LUMO, etc.
  | They are estimated on a discrete k-point grid and not necessarily exact.
  | For converged numbers, create a DOS and/or band structure plot on a denser k-grid.

  Highest occupied state (VBM) at     -5.95986282 eV (relative to internal zero)
  | Occupation number:      2.00000000
  | K-point:       1 at    0.000000    0.000000    0.000000 (in units of recip. lattice)

  Lowest unoccupied state (CBM) at    -5.04950206 eV (relative to internal zero)
  | Occupation number:      0.00000000
  | K-point:       6 at    0.000000    0.000000    0.500000 (in units of recip. lattice)

  ESTIMATED overall HOMO-LUMO gap:      0.91036076 eV between HOMO at k-point 1 and LUMO at k-point 6
  | This appears to be an indirect band gap.
  | Smallest direct gap :      1.18373681 eV for k_point 1 at    0.000000    0.000000    0.500000 (in units of recip. lattice)
  The gap value is above 0.2 eV. Unless you are using a very sparse k-point grid,
  this system is most likely an insulator or a semiconductor.
  Calculating total energy contributions from superposition of free atom densities.

  Total energy components:
  | Sum of eigenvalues            :        -327.71159253 Ha       -8917.48614934 eV
  | XC energy correction          :         -39.56414497 Ha       -1076.59516132 eV
  | XC potential correction       :          52.27143845 Ha        1422.37821003 eV
  | Free-atom electrostatic energy:        -263.72077396 Ha       -7176.20738079 eV
  | Hartree energy correction     :          -0.00000000 Ha          -0.00000000 eV
  | Entropy correction            :          -0.00000000 Ha          -0.00000000 eV
  | ---------------------------
  | Total energy                  :        -578.72507301 Ha      -15747.91048143 eV
  | Total energy, T -> 0          :        -578.72507301 Ha      -15747.91048143 eV  <-- do not rely on this value for anything but (periodic) metals
  | Electronic free energy        :        -578.72507301 Ha      -15747.91048143 eV

  Derived energy quantities:
  | Kinetic energy                :         579.47073116 Ha       15768.20087203 eV
  | Electrostatic energy          :       -1118.63165919 Ha      -30439.51619214 eV
  | Energy correction for multipole
  | error in Hartree potential    :           0.00000000 Ha           0.00000000 eV
  | Sum of eigenvalues per atom                           :       -4458.74307467 eV
  | Total energy (T->0) per atom                          :       -7873.95524072 eV  <-- do not rely on this value for anything but (periodic) metals
  | Electronic free energy per atom                       :       -7873.95524072 eV
  Initialize hartree_potential_storage
  Max. number of atoms included in rho_multipole:            2

  End scf initialization - timings             :  max(cpu_time)    wall_clock(cpu1)
  | Time for scf. initialization               :        1.882 s           1.882 s
  | Boundary condition initialization          :        0.042 s           0.043 s
  | Integration                                :        0.686 s           0.686 s
  | Solution of K.-S. eqns.                    :        0.982 s           0.982 s
  | Grid partitioning                          :        0.026 s           0.026 s
  | Preloading free-atom quantities on grid    :        0.001 s           0.000 s
  | Free-atom superposition energy             :        0.027 s           0.027 s
  | Total energy evaluation                    :        0.000 s           0.000 s

  Partial memory accounting:
  | Current value for overall tracked memory usage on task 0  :          10.628 MB
  | Peak value for overall tracked memory usage on task 0     :          12.953 MB after allocating wave
  | Largest tracked array allocation on task 0 so far         :           9.999 MB  when allocating +KS_eigenvector_complex
  Note:  These values currently only include a subset of arrays which are explicitly tracked.
  The "true" memory usage will be greater.
------------------------------------------------------------

------------------------------------------------------------
          Begin self-consistency iteration #    1

  Date     :  20190514, Time     :  123951.951
------------------------------------------------------------
  Evaluating new KS density using the density matrix
  Evaluating density matrix
  Time summed over all CPUs for getting density from density matrix: real work        0.684 s, elapsed        0.684 s
  Integration grid: deviation in total charge (<rho> - N_e) =   8.277823E-12
  Pulay mixing of updated and previous charge densities.

  Evaluating partitioned Hartree potential by multipole expansion.
  | Analytical far-field extrapolation by fixed multipoles:
  | Hartree multipole sum: apparent total charge =   0.319697E-02
  Summing up the Hartree potential.
  | Estimated reciprocal-space cutoff momentum G_max:         2.22643472 bohr^-1 .
  | Reciprocal lattice points for long-range Hartree potential:      58
  Time summed over all CPUs for potential: real work        0.350 s, elapsed        0.350 s
  | RMS charge density error from multipole expansion :   0.358178E-03
  | Average real-space part of the electrostatic potential :     -0.00267581 eV

  Integrating Hamiltonian matrix: batch-based integration.
  Time summed over all CPUs for integration: real work        0.409 s, elapsed        0.409 s

  Updating Kohn-Sham eigenvalues, eigenvectors, occupation numbers, and Fermi level.
  Solving generalized eigenproblem

  Obtaining occupation numbers and chemical potential using ELSI.
  | Chemical potential (Fermi level):    -5.08253309eV
  Writing Kohn-Sham eigenvalues.
  K-point:       1 at    0.000000    0.000000    0.000000 (in units of recip. lattice)

  State    Occupation    Eigenvalue [Ha]    Eigenvalue [eV]
      1       2.00000         -65.506360        -1782.51876
      2       2.00000         -65.506360        -1782.51876
      3       2.00000          -5.103968         -138.88603
      4       2.00000          -5.103857         -138.88300
      5       2.00000          -3.518296          -95.73770
      6       2.00000          -3.518296          -95.73770
      7       2.00000          -3.518296          -95.73770
      8       2.00000          -3.518016          -95.73008
      9       2.00000          -3.518016          -95.73008
     10       2.00000          -3.518016          -95.73008
     11       2.00000          -0.609461          -16.58427
     12       2.00000          -0.218454           -5.94444
     13       2.00000          -0.218454           -5.94444
     14       2.00000          -0.218454           -5.94444
     15       0.00000          -0.175040           -4.76307
     16       0.00000          -0.122299           -3.32794
     17       0.00000          -0.122299           -3.32794
     18       0.00000          -0.122299           -3.32794
     19       0.00000           0.076774            2.08914
     20       0.00000           0.076774            2.08914

  What follows are estimated values for band gap, HOMO, LUMO, etc.
  | They are estimated on a discrete k-point grid and not necessarily exact.
  | For converged numbers, create a DOS and/or band structure plot on a denser k-grid.

  Highest occupied state (VBM) at     -5.94443539 eV (relative to internal zero)
  | Occupation number:      2.00000000
  | K-point:       1 at    0.000000    0.000000    0.000000 (in units of recip. lattice)

  Lowest unoccupied state (CBM) at    -5.04079386 eV (relative to internal zero)
  | Occupation number:      0.00000000
  | K-point:       6 at    0.000000    0.000000    0.500000 (in units of recip. lattice)

  ESTIMATED overall HOMO-LUMO gap:      0.90364153 eV between HOMO at k-point 1 and LUMO at k-point 6
  | This appears to be an indirect band gap.
  | Smallest direct gap :      1.18136279 eV for k_point 1 at    0.000000    0.000000    0.500000 (in units of recip. lattice)
  The gap value is above 0.2 eV. Unless you are using a very sparse k-point grid,
  this system is most likely an insulator or a semiconductor.

  Total energy components:
  | Sum of eigenvalues            :        -327.72839195 Ha       -8917.94328499 eV
  | XC energy correction          :         -39.56529256 Ha       -1076.62638864 eV
  | XC potential correction       :          52.27294436 Ha        1422.41918803 eV
  | Free-atom electrostatic energy:        -263.72077396 Ha       -7176.20738079 eV
  | Hartree energy correction     :           0.01678688 Ha           0.45679420 eV
  | Entropy correction            :          -0.00000000 Ha          -0.00000000 eV
  | ---------------------------
  | Total energy                  :        -578.72472723 Ha      -15747.90107219 eV
  | Total energy, T -> 0          :        -578.72472723 Ha      -15747.90107219 eV  <-- do not rely on this value for anything but (periodic) metals
  | Electronic free energy        :        -578.72472723 Ha      -15747.90107219 eV

  Derived energy quantities:
  | Kinetic energy                :         579.37385977 Ha       15765.56486736 eV
  | Electrostatic energy          :       -1118.53329443 Ha      -30436.83955091 eV
  | Energy correction for multipole
  | error in Hartree potential    :           0.00042183 Ha           0.01147868 eV
  | Sum of eigenvalues per atom                           :       -4458.97164249 eV
  | Total energy (T->0) per atom                          :       -7873.95053610 eV  <-- do not rely on this value for anything but (periodic) metals
  | Electronic free energy per atom                       :       -7873.95053610 eV

  Self-consistency convergence accuracy:
  | Change of charge density      :  0.8657E-01
  | Change of sum of eigenvalues  : -0.4571E+00 eV
  | Change of total energy        :  0.9409E-02 eV

  End self-consistency iteration #     1       :  max(cpu_time)    wall_clock(cpu1)
  | Time for this iteration                    :        2.038 s           2.038 s
  | Charge density update                      :        0.742 s           0.742 s
  | Density mixing & preconditioning           :        0.047 s           0.046 s
  | Hartree multipole update                   :        0.001 s           0.001 s
  | Hartree multipole summation                :        0.353 s           0.353 s
  | Integration                                :        0.409 s           0.409 s
  | Solution of K.-S. eqns.                    :        0.486 s           0.486 s
  | Total energy evaluation                    :        0.000 s           0.000 s

  Partial memory accounting:
  | Current value for overall tracked memory usage on task 0  :          10.628 MB
  | Peak value for overall tracked memory usage on task 0     :          12.953 MB after allocating wave
  | Largest tracked array allocation on task 0 so far         :           9.999 MB  when allocating +KS_eigenvector_complex
  Note:  These values currently only include a subset of arrays which are explicitly tracked.
  The "true" memory usage will be greater.
------------------------------------------------------------

------------------------------------------------------------
          Begin self-consistency iteration #    2

  Date     :  20190514, Time     :  123953.989
------------------------------------------------------------
  Evaluating new KS density using the density matrix
  Evaluating density matrix
  Time summed over all CPUs for getting density from density matrix: real work        0.685 s, elapsed        0.685 s
  Integration grid: deviation in total charge (<rho> - N_e) =   8.348877E-12
  Pulay mixing of updated and previous charge densities.

  Evaluating partitioned Hartree potential by multipole expansion.
  | Analytical far-field extrapolation by fixed multipoles:
  | Hartree multipole sum: apparent total charge =   0.696647E-02
  Summing up the Hartree potential.
  Time summed over all CPUs for potential: real work        0.430 s, elapsed        0.430 s
  | RMS charge density error from multipole expansion :   0.706224E-02
  | Average real-space part of the electrostatic potential :      0.18249539 eV

  Integrating Hamiltonian matrix: batch-based integration.
  Time summed over all CPUs for integration: real work        0.409 s, elapsed        0.409 s

  Updating Kohn-Sham eigenvalues, eigenvectors, occupation numbers, and Fermi level.
  Solving generalized eigenproblem

  Obtaining occupation numbers and chemical potential using ELSI.
  | Chemical potential (Fermi level):    -4.85475310eV
  What follows are estimated values for band gap, HOMO, LUMO, etc.
  | They are estimated on a discrete k-point grid and not necessarily exact.
  | For converged numbers, create a DOS and/or band structure plot on a denser k-grid.

  Highest occupied state (VBM) at     -5.54731234 eV (relative to internal zero)
  | Occupation number:      2.00000000
  | K-point:       1 at    0.000000    0.000000    0.000000 (in units of recip. lattice)

  Lowest unoccupied state (CBM) at    -4.81254558 eV (relative to internal zero)
  | Occupation number:      0.00000000
  | K-point:      48 at    0.000000    0.416667    0.416667 (in units of recip. lattice)

  ESTIMATED overall HOMO-LUMO gap:      0.73476676 eV between HOMO at k-point 1 and LUMO at k-point 48
  | This appears to be an indirect band gap.
  | Smallest direct gap :      1.18458379 eV for k_point 1 at    0.000000    0.416667    0.416667 (in units of recip. lattice)
  The gap value is above 0.2 eV. Unless you are using a very sparse k-point grid,
  this system is most likely an insulator or a semiconductor.

  Checking to see if s.c.f. parameters should be adjusted.
  The system likely has a gap. Increased the default Pulay mixing parameter (charge_mix_param). Value:   0.200000 .
  Kept the default occupation width. Value:   0.010000 eV.

  Total energy components:
  | Sum of eigenvalues            :        -327.32788675 Ha       -8907.04498395 eV
  | XC energy correction          :         -39.59531959 Ha       -1077.44346589 eV
  | XC potential correction       :          52.31238002 Ha        1423.49228682 eV
  | Free-atom electrostatic energy:        -263.72077396 Ha       -7176.20738079 eV
  | Hartree energy correction     :          -0.39012180 Ha         -10.61575422 eV
  | Entropy correction            :          -0.00000000 Ha          -0.00000000 eV
  | ---------------------------
  | Total energy                  :        -578.72172208 Ha      -15747.81929803 eV
  | Total energy, T -> 0          :        -578.72172208 Ha      -15747.81929803 eV  <-- do not rely on this value for anything but (periodic) metals
  | Electronic free energy        :        -578.72172208 Ha      -15747.81929803 eV

  Derived energy quantities:
  | Kinetic energy                :         579.26414030 Ha       15762.57924871 eV
  | Electrostatic energy          :       -1118.39054278 Ha      -30432.95508085 eV
  | Energy correction for multipole
  | error in Hartree potential    :           0.00831768 Ha           0.22633568 eV
  | Sum of eigenvalues per atom                           :       -4453.52249197 eV
  | Total energy (T->0) per atom                          :       -7873.90964901 eV  <-- do not rely on this value for anything but (periodic) metals
  | Electronic free energy per atom                       :       -7873.90964901 eV

  Self-consistency convergence accuracy:
  | Change of charge density      :  0.8225E-01
  | Change of sum of eigenvalues  :  0.1090E+02 eV
  | Change of total energy        :  0.8177E-01 eV

  End self-consistency iteration #     2       :  max(cpu_time)    wall_clock(cpu1)
  | Time for this iteration                    :        2.113 s           2.114 s
  | Charge density update                      :        0.741 s           0.742 s
  | Density mixing & preconditioning           :        0.045 s           0.044 s
  | Hartree multipole update                   :        0.001 s           0.001 s
  | Hartree multipole summation                :        0.433 s           0.433 s
  | Integration                                :        0.409 s           0.409 s
  | Solution of K.-S. eqns.                    :        0.484 s           0.484 s
  | Total energy evaluation                    :        0.000 s           0.000 s

  Partial memory accounting:
  | Current value for overall tracked memory usage on task 0  :          10.629 MB
  | Peak value for overall tracked memory usage on task 0     :          12.953 MB after allocating wave
  | Largest tracked array allocation on task 0 so far         :           9.999 MB  when allocating +KS_eigenvector_complex
  Note:  These values currently only include a subset of arrays which are explicitly tracked.
  The "true" memory usage will be greater.
------------------------------------------------------------

------------------------------------------------------------
          Begin self-consistency iteration #    3

  Date     :  20190514, Time     :  123956.103
------------------------------------------------------------
  Evaluating new KS density using the density matrix
  Evaluating density matrix
  Time summed over all CPUs for getting density from density matrix: real work        0.684 s, elapsed        0.684 s
  Integration grid: deviation in total charge (<rho> - N_e) =   8.242296E-12
  Pulay mixing of updated and previous charge densities.

  Evaluating partitioned Hartree potential by multipole expansion.
  | Analytical far-field extrapolation by fixed multipoles:
  | Hartree multipole sum: apparent total charge =   0.650819E-02
  Summing up the Hartree potential.
  Time summed over all CPUs for potential: real work        0.427 s, elapsed        0.427 s
  | RMS charge density error from multipole expansion :   0.708914E-02
  | Average real-space part of the electrostatic potential :      0.17760670 eV

  Integrating Hamiltonian matrix: batch-based integration.
  Time summed over all CPUs for integration: real work        0.410 s, elapsed        0.410 s

  Updating Kohn-Sham eigenvalues, eigenvectors, occupation numbers, and Fermi level.
  Solving generalized eigenproblem

  Obtaining occupation numbers and chemical potential using ELSI.
  | Chemical potential (Fermi level):    -4.85776624eV
  What follows are estimated values for band gap, HOMO, LUMO, etc.
  | They are estimated on a discrete k-point grid and not necessarily exact.
  | For converged numbers, create a DOS and/or band structure plot on a denser k-grid.

  Highest occupied state (VBM) at     -5.55739649 eV (relative to internal zero)
  | Occupation number:      2.00000000
  | K-point:       1 at    0.000000    0.000000    0.000000 (in units of recip. lattice)

  Lowest unoccupied state (CBM) at    -4.81555623 eV (relative to internal zero)
  | Occupation number:      0.00000000
  | K-point:      48 at    0.000000    0.416667    0.416667 (in units of recip. lattice)

  ESTIMATED overall HOMO-LUMO gap:      0.74184026 eV between HOMO at k-point 1 and LUMO at k-point 48
  | This appears to be an indirect band gap.
  | Smallest direct gap :      1.18168717 eV for k_point 1 at    0.000000    0.416667    0.416667 (in units of recip. lattice)
  The gap value is above 0.2 eV. Unless you are using a very sparse k-point grid,
  this system is most likely an insulator or a semiconductor.

  Total energy components:
  | Sum of eigenvalues            :        -327.35223637 Ha       -8907.70757076 eV
  | XC energy correction          :         -39.59421361 Ha       -1077.41337055 eV
  | XC potential correction       :          52.31092335 Ha        1423.45264888 eV
  | Free-atom electrostatic energy:        -263.72077396 Ha       -7176.20738079 eV
  | Hartree energy correction     :          -0.36536205 Ha          -9.94200730 eV
  | Entropy correction            :          -0.00000000 Ha          -0.00000000 eV
  | ---------------------------
  | Total energy                  :        -578.72166264 Ha      -15747.81768052 eV
  | Total energy, T -> 0          :        -578.72166264 Ha      -15747.81768052 eV  <-- do not rely on this value for anything but (periodic) metals
  | Electronic free energy        :        -578.72166264 Ha      -15747.81768052 eV

  Derived energy quantities:
  | Kinetic energy                :         579.25920086 Ha       15762.44483987 eV
  | Electrostatic energy          :       -1118.38664989 Ha      -30432.84914984 eV
  | Energy correction for multipole
  | error in Hartree potential    :           0.00837034 Ha           0.22776864 eV
  | Sum of eigenvalues per atom                           :       -4453.85378538 eV
  | Total energy (T->0) per atom                          :       -7873.90884026 eV  <-- do not rely on this value for anything but (periodic) metals
  | Electronic free energy per atom                       :       -7873.90884026 eV

  Self-consistency convergence accuracy:
  | Change of charge density      :  0.1286E-01
  | Change of sum of eigenvalues  : -0.6626E+00 eV
  | Change of total energy        :  0.1618E-02 eV

  End self-consistency iteration #     3       :  max(cpu_time)    wall_clock(cpu1)
  | Time for this iteration                    :        2.116 s           2.115 s
  | Charge density update                      :        0.741 s           0.741 s
  | Density mixing & preconditioning           :        0.045 s           0.045 s
  | Hartree multipole update                   :        0.001 s           0.001 s
  | Hartree multipole summation                :        0.431 s           0.431 s
  | Integration                                :        0.410 s           0.410 s
  | Solution of K.-S. eqns.                    :        0.487 s           0.487 s
  | Total energy evaluation                    :        0.000 s           0.000 s

  Partial memory accounting:
  | Current value for overall tracked memory usage on task 0  :          10.630 MB
  | Peak value for overall tracked memory usage on task 0     :          12.953 MB after allocating wave
  | Largest tracked array allocation on task 0 so far         :           9.999 MB  when allocating +KS_eigenvector_complex
  Note:  These values currently only include a subset of arrays which are explicitly tracked.
  The "true" memory usage will be greater.
------------------------------------------------------------

------------------------------------------------------------
          Begin self-consistency iteration #    4

  Date     :  20190514, Time     :  123958.219
------------------------------------------------------------
  Evaluating new KS density using the density matrix
  Evaluating density matrix
  Time summed over all CPUs for getting density from density matrix: real work        0.678 s, elapsed        0.678 s
  Integration grid: deviation in total charge (<rho> - N_e) =   8.178347E-12
  Pulay mixing of updated and previous charge densities.

  Evaluating partitioned Hartree potential by multipole expansion.
  | Analytical far-field extrapolation by fixed multipoles:
  | Hartree multipole sum: apparent total charge =   0.383062E-02
  Summing up the Hartree potential.
  Time summed over all CPUs for potential: real work        0.430 s, elapsed        0.430 s
  | RMS charge density error from multipole expansion :   0.752825E-02
  | Average real-space part of the electrostatic potential :      0.15666702 eV

  Integrating Hamiltonian matrix: batch-based integration.
  Time summed over all CPUs for integration: real work        0.409 s, elapsed        0.409 s

  Updating Kohn-Sham eigenvalues, eigenvectors, occupation numbers, and Fermi level.
  Solving generalized eigenproblem

  Obtaining occupation numbers and chemical potential using ELSI.
  | Chemical potential (Fermi level):    -4.87163150eV
  What follows are estimated values for band gap, HOMO, LUMO, etc.
  | They are estimated on a discrete k-point grid and not necessarily exact.
  | For converged numbers, create a DOS and/or band structure plot on a denser k-grid.

  Highest occupied state (VBM) at     -5.59981032 eV (relative to internal zero)
  | Occupation number:      2.00000000
  | K-point:       1 at    0.000000    0.000000    0.000000 (in units of recip. lattice)

  Lowest unoccupied state (CBM) at    -4.82973516 eV (relative to internal zero)
  | Occupation number:      0.00000000
  | K-point:      53 at    0.000000    0.500000    0.000000 (in units of recip. lattice)

  ESTIMATED overall HOMO-LUMO gap:      0.77007516 eV between HOMO at k-point 1 and LUMO at k-point 53
  | This appears to be an indirect band gap.
  | Smallest direct gap :      1.16419166 eV for k_point 1 at    0.000000    0.500000    0.000000 (in units of recip. lattice)
  The gap value is above 0.2 eV. Unless you are using a very sparse k-point grid,
  this system is most likely an insulator or a semiconductor.

  Total energy components:
  | Sum of eigenvalues            :        -327.48146769 Ha       -8911.22413400 eV
  | XC energy correction          :         -39.58906933 Ha       -1077.27338759 eV
  | XC potential correction       :          52.30413987 Ha        1423.26806101 eV
  | Free-atom electrostatic energy:        -263.72077396 Ha       -7176.20738079 eV
  | Hartree energy correction     :          -0.23426560 Ha          -6.37469141 eV
  | Entropy correction            :          -0.00000000 Ha          -0.00000000 eV
  | ---------------------------
  | Total energy                  :        -578.72143671 Ha      -15747.81153279 eV
  | Total energy, T -> 0          :        -578.72143671 Ha      -15747.81153279 eV  <-- do not rely on this value for anything but (periodic) metals
  | Electronic free energy        :        -578.72143671 Ha      -15747.81153279 eV

  Derived energy quantities:
  | Kinetic energy                :         579.22339229 Ha       15761.47043894 eV
  | Electrostatic energy          :       -1118.35575967 Ha      -30432.00858414 eV
  | Energy correction for multipole
  | error in Hartree potential    :           0.00899775 Ha           0.24484128 eV
  | Sum of eigenvalues per atom                           :       -4455.61206700 eV
  | Total energy (T->0) per atom                          :       -7873.90576639 eV  <-- do not rely on this value for anything but (periodic) metals
  | Electronic free energy per atom                       :       -7873.90576639 eV

  Self-consistency convergence accuracy:
  | Change of charge density      :  0.1138E-01
  | Change of sum of eigenvalues  : -0.3517E+01 eV
  | Change of total energy        :  0.6148E-02 eV

  End self-consistency iteration #     4       :  max(cpu_time)    wall_clock(cpu1)
  | Time for this iteration                    :        2.105 s           2.104 s
  | Charge density update                      :        0.734 s           0.733 s
  | Density mixing & preconditioning           :        0.045 s           0.046 s
  | Hartree multipole update                   :        0.001 s           0.001 s
  | Hartree multipole summation                :        0.434 s           0.434 s
  | Integration                                :        0.409 s           0.409 s
  | Solution of K.-S. eqns.                    :        0.481 s           0.481 s
  | Total energy evaluation                    :        0.000 s           0.000 s

  Partial memory accounting:
  | Current value for overall tracked memory usage on task 0  :          10.630 MB
  | Peak value for overall tracked memory usage on task 0     :          12.953 MB after allocating wave
  | Largest tracked array allocation on task 0 so far         :           9.999 MB  when allocating +KS_eigenvector_complex
  Note:  These values currently only include a subset of arrays which are explicitly tracked.
  The "true" memory usage will be greater.
------------------------------------------------------------

------------------------------------------------------------
          Begin self-consistency iteration #    5

  Date     :  20190514, Time     :  124000.323
------------------------------------------------------------
  Evaluating new KS density using the density matrix
  Evaluating density matrix
  Time summed over all CPUs for getting density from density matrix: real work        0.714 s, elapsed        0.714 s
  Integration grid: deviation in total charge (<rho> - N_e) =   8.263612E-12
  Pulay mixing of updated and previous charge densities.

  Evaluating partitioned Hartree potential by multipole expansion.
  | Analytical far-field extrapolation by fixed multipoles:
  | Hartree multipole sum: apparent total charge =   0.298772E-02
  Summing up the Hartree potential.
  Time summed over all CPUs for potential: real work        0.461 s, elapsed        0.461 s
  | RMS charge density error from multipole expansion :   0.752803E-02
  | Average real-space part of the electrostatic potential :      0.15583324 eV

  Integrating Hamiltonian matrix: batch-based integration.
  Time summed over all CPUs for integration: real work        0.410 s, elapsed        0.410 s

  Updating Kohn-Sham eigenvalues, eigenvectors, occupation numbers, and Fermi level.
  Solving generalized eigenproblem

  Obtaining occupation numbers and chemical potential using ELSI.
  | Chemical potential (Fermi level):    -4.87584248eV
  What follows are estimated values for band gap, HOMO, LUMO, etc.
  | They are estimated on a discrete k-point grid and not necessarily exact.
  | For converged numbers, create a DOS and/or band structure plot on a denser k-grid.

  Highest occupied state (VBM) at     -5.60459290 eV (relative to internal zero)
  | Occupation number:      2.00000000
  | K-point:       1 at    0.000000    0.000000    0.000000 (in units of recip. lattice)

  Lowest unoccupied state (CBM) at    -4.83408657 eV (relative to internal zero)
  | Occupation number:      0.00000000
  | K-point:      53 at    0.000000    0.500000    0.000000 (in units of recip. lattice)

  ESTIMATED overall HOMO-LUMO gap:      0.77050633 eV between HOMO at k-point 1 and LUMO at k-point 53
  | This appears to be an indirect band gap.
  | Smallest direct gap :      1.16153139 eV for k_point 1 at    0.000000    0.500000    0.000000 (in units of recip. lattice)
  The gap value is above 0.2 eV. Unless you are using a very sparse k-point grid,
  this system is most likely an insulator or a semiconductor.

  Total energy components:
  | Sum of eigenvalues            :        -327.50542772 Ha       -8911.87611951 eV
  | XC energy correction          :         -39.58725151 Ha       -1077.22392218 eV
  | XC potential correction       :          52.30172997 Ha        1423.20248419 eV
  | Free-atom electrostatic energy:        -263.72077396 Ha       -7176.20738079 eV
  | Hartree energy correction     :          -0.20969777 Ha          -5.70616675 eV
  | Entropy correction            :          -0.00000000 Ha          -0.00000000 eV
  | ---------------------------
  | Total energy                  :        -578.72142099 Ha      -15747.81110505 eV
  | Total energy, T -> 0          :        -578.72142099 Ha      -15747.81110505 eV  <-- do not rely on this value for anything but (periodic) metals
  | Electronic free energy        :        -578.72142099 Ha      -15747.81110505 eV

  Derived energy quantities:
  | Kinetic energy                :         579.20992214 Ha       15761.10389746 eV
  | Electrostatic energy          :       -1118.34409162 Ha      -30431.69108033 eV
  | Energy correction for multipole
  | error in Hartree potential    :           0.00899376 Ha           0.24473261 eV
  | Sum of eigenvalues per atom                           :       -4455.93805976 eV
  | Total energy (T->0) per atom                          :       -7873.90555252 eV  <-- do not rely on this value for anything but (periodic) metals
  | Electronic free energy per atom                       :       -7873.90555252 eV

  Self-consistency convergence accuracy:
  | Change of charge density      :  0.5048E-02
  | Change of sum of eigenvalues  : -0.6520E+00 eV
  | Change of total energy        :  0.4277E-03 eV

  End self-consistency iteration #     5       :  max(cpu_time)    wall_clock(cpu1)
  | Time for this iteration                    :        2.200 s           2.201 s
  | Charge density update                      :        0.772 s           0.772 s
  | Density mixing & preconditioning           :        0.068 s           0.068 s
  | Hartree multipole update                   :        0.001 s           0.001 s
  | Hartree multipole summation                :        0.464 s           0.464 s
  | Integration                                :        0.411 s           0.410 s
  | Solution of K.-S. eqns.                    :        0.485 s           0.485 s
  | Total energy evaluation                    :        0.000 s           0.000 s

  Partial memory accounting:
  | Current value for overall tracked memory usage on task 0  :          10.630 MB
  | Peak value for overall tracked memory usage on task 0     :          12.953 MB after allocating wave
  | Largest tracked array allocation on task 0 so far         :           9.999 MB  when allocating +KS_eigenvector_complex
  Note:  These values currently only include a subset of arrays which are explicitly tracked.
  The "true" memory usage will be greater.
------------------------------------------------------------

------------------------------------------------------------
          Begin self-consistency iteration #    6

  Date     :  20190514, Time     :  124002.524
------------------------------------------------------------
  Evaluating new KS density using the density matrix
  Evaluating density matrix
  Time summed over all CPUs for getting density from density matrix: real work        0.704 s, elapsed        0.704 s
  Integration grid: deviation in total charge (<rho> - N_e) =   8.334666E-12
  Pulay mixing of updated and previous charge densities.

  Evaluating partitioned Hartree potential by multipole expansion.
  | Analytical far-field extrapolation by fixed multipoles:
  | Hartree multipole sum: apparent total charge =   0.297004E-02
  Summing up the Hartree potential.
  Time summed over all CPUs for potential: real work        0.425 s, elapsed        0.425 s
  | RMS charge density error from multipole expansion :   0.753474E-02
  | Average real-space part of the electrostatic potential :      0.15538569 eV

  Integrating Hamiltonian matrix: batch-based integration.
  Time summed over all CPUs for integration: real work        0.408 s, elapsed        0.408 s

  Updating Kohn-Sham eigenvalues, eigenvectors, occupation numbers, and Fermi level.
  Solving generalized eigenproblem

  Obtaining occupation numbers and chemical potential using ELSI.
  | Chemical potential (Fermi level):    -4.87629520eV
  What follows are estimated values for band gap, HOMO, LUMO, etc.
  | They are estimated on a discrete k-point grid and not necessarily exact.
  | For converged numbers, create a DOS and/or band structure plot on a denser k-grid.

  Highest occupied state (VBM) at     -5.60498834 eV (relative to internal zero)
  | Occupation number:      2.00000000
  | K-point:       1 at    0.000000    0.000000    0.000000 (in units of recip. lattice)

  Lowest unoccupied state (CBM) at    -4.83455284 eV (relative to internal zero)
  | Occupation number:      0.00000000
  | K-point:       6 at    0.000000    0.000000    0.500000 (in units of recip. lattice)

  ESTIMATED overall HOMO-LUMO gap:      0.77043549 eV between HOMO at k-point 1 and LUMO at k-point 6
  | This appears to be an indirect band gap.
  | Smallest direct gap :      1.16108190 eV for k_point 1 at    0.000000    0.000000    0.500000 (in units of recip. lattice)
  The gap value is above 0.2 eV. Unless you are using a very sparse k-point grid,
  this system is most likely an insulator or a semiconductor.

  Total energy components:
  | Sum of eigenvalues            :        -327.50973656 Ha       -8911.99336891 eV
  | XC energy correction          :         -39.58682115 Ha       -1077.21221155 eV
  | XC potential correction       :          52.30115935 Ha        1423.18695689 eV
  | Free-atom electrostatic energy:        -263.72077396 Ha       -7176.20738079 eV
  | Hartree energy correction     :          -0.20524687 Ha          -5.58505140 eV
  | Entropy correction            :          -0.00000000 Ha          -0.00000000 eV
  | ---------------------------
  | Total energy                  :        -578.72141918 Ha      -15747.81105576 eV
  | Total energy, T -> 0          :        -578.72141918 Ha      -15747.81105576 eV  <-- do not rely on this value for anything but (periodic) metals
  | Electronic free energy        :        -578.72141918 Ha      -15747.81105576 eV

  Derived energy quantities:
  | Kinetic energy                :         579.20395091 Ha       15760.94141222 eV
  | Electrostatic energy          :       -1118.33854894 Ha      -30431.54025643 eV
  | Energy correction for multipole
  | error in Hartree potential    :           0.00899384 Ha           0.24473473 eV
  | Sum of eigenvalues per atom                           :       -4455.99668445 eV
  | Total energy (T->0) per atom                          :       -7873.90552788 eV  <-- do not rely on this value for anything but (periodic) metals
  | Electronic free energy per atom                       :       -7873.90552788 eV

  Self-consistency convergence accuracy:
  | Change of charge density      :  0.4130E-02
  | Change of sum of eigenvalues  : -0.1172E+00 eV
  | Change of total energy        :  0.4929E-04 eV

  End self-consistency iteration #     6       :  max(cpu_time)    wall_clock(cpu1)
  | Time for this iteration                    :        2.124 s           2.124 s
  | Charge density update                      :        0.761 s           0.761 s
  | Density mixing & preconditioning           :        0.044 s           0.044 s
  | Hartree multipole update                   :        0.001 s           0.000 s
  | Hartree multipole summation                :        0.429 s           0.429 s
  | Integration                                :        0.408 s           0.408 s
  | Solution of K.-S. eqns.                    :        0.481 s           0.481 s
  | Total energy evaluation                    :        0.001 s           0.001 s

  Partial memory accounting:
  | Current value for overall tracked memory usage on task 0  :          10.630 MB
  | Peak value for overall tracked memory usage on task 0     :          12.953 MB after allocating wave
  | Largest tracked array allocation on task 0 so far         :           9.999 MB  when allocating +KS_eigenvector_complex
  Note:  These values currently only include a subset of arrays which are explicitly tracked.
  The "true" memory usage will be greater.
------------------------------------------------------------

------------------------------------------------------------
          Begin self-consistency iteration #    7

  Date     :  20190514, Time     :  124004.648
------------------------------------------------------------
  Evaluating new KS density using the density matrix
  Evaluating density matrix
  Time summed over all CPUs for getting density from density matrix: real work        0.683 s, elapsed        0.683 s
  Integration grid: deviation in total charge (<rho> - N_e) =   8.387957E-12
  Pulay mixing of updated and previous charge densities.

  Evaluating partitioned Hartree potential by multipole expansion.
  | Analytical far-field extrapolation by fixed multipoles:
  | Hartree multipole sum: apparent total charge =   0.294747E-02
  Summing up the Hartree potential.
  Time summed over all CPUs for potential: real work        0.424 s, elapsed        0.424 s
  | RMS charge density error from multipole expansion :   0.752377E-02
  | Average real-space part of the electrostatic potential :      0.15379615 eV

  Integrating Hamiltonian matrix: batch-based integration.
  Time summed over all CPUs for integration: real work        0.404 s, elapsed        0.404 s

  Updating Kohn-Sham eigenvalues, eigenvectors, occupation numbers, and Fermi level.
  Solving generalized eigenproblem

  Obtaining occupation numbers and chemical potential using ELSI.
  | Chemical potential (Fermi level):    -4.87810277eV
  What follows are estimated values for band gap, HOMO, LUMO, etc.
  | They are estimated on a discrete k-point grid and not necessarily exact.
  | For converged numbers, create a DOS and/or band structure plot on a denser k-grid.

  Highest occupied state (VBM) at     -5.60725283 eV (relative to internal zero)
  | Occupation number:      2.00000000
  | K-point:       1 at    0.000000    0.000000    0.000000 (in units of recip. lattice)

  Lowest unoccupied state (CBM) at    -4.83636943 eV (relative to internal zero)
  | Occupation number:      0.00000000
  | K-point:      53 at    0.000000    0.500000    0.000000 (in units of recip. lattice)

  ESTIMATED overall HOMO-LUMO gap:      0.77088341 eV between HOMO at k-point 1 and LUMO at k-point 53
  | This appears to be an indirect band gap.
  | Smallest direct gap :      1.16031424 eV for k_point 1 at    0.000000    0.500000    0.000000 (in units of recip. lattice)
  The gap value is above 0.2 eV. Unless you are using a very sparse k-point grid,
  this system is most likely an insulator or a semiconductor.

  Total energy components:
  | Sum of eigenvalues            :        -327.51883854 Ha       -8912.24104659 eV
  | XC energy correction          :         -39.58592665 Ha       -1077.18787088 eV
  | XC potential correction       :          52.29997515 Ha        1423.15473314 eV
  | Free-atom electrostatic energy:        -263.72077396 Ha       -7176.20738079 eV
  | Hartree energy correction     :          -0.19585097 Ha          -5.32937615 eV
  | Entropy correction            :          -0.00000000 Ha          -0.00000000 eV
  | ---------------------------
  | Total energy                  :        -578.72141498 Ha      -15747.81094127 eV
  | Total energy, T -> 0          :        -578.72141498 Ha      -15747.81094127 eV  <-- do not rely on this value for anything but (periodic) metals
  | Electronic free energy        :        -578.72141498 Ha      -15747.81094127 eV

  Derived energy quantities:
  | Kinetic energy                :         579.19366533 Ha       15760.66152721 eV
  | Electrostatic energy          :       -1118.32915365 Ha      -30431.28459760 eV
  | Energy correction for multipole
  | error in Hartree potential    :           0.00896675 Ha           0.24399774 eV
  | Sum of eigenvalues per atom                           :       -4456.12052329 eV
  | Total energy (T->0) per atom                          :       -7873.90547064 eV  <-- do not rely on this value for anything but (periodic) metals
  | Electronic free energy per atom                       :       -7873.90547064 eV

  Self-consistency convergence accuracy:
  | Change of charge density      :  0.3880E-02
  | Change of sum of eigenvalues  : -0.2477E+00 eV
  | Change of total energy        :  0.1145E-03 eV

  End self-consistency iteration #     7       :  max(cpu_time)    wall_clock(cpu1)
  | Time for this iteration                    :        2.094 s           2.094 s
  | Charge density update                      :        0.739 s           0.739 s
  | Density mixing & preconditioning           :        0.044 s           0.044 s
  | Hartree multipole update                   :        0.001 s           0.001 s
  | Hartree multipole summation                :        0.428 s           0.428 s
  | Integration                                :        0.404 s           0.404 s
  | Solution of K.-S. eqns.                    :        0.477 s           0.477 s
  | Total energy evaluation                    :        0.000 s           0.000 s

  Partial memory accounting:
  | Current value for overall tracked memory usage on task 0  :          10.631 MB
  | Peak value for overall tracked memory usage on task 0     :          12.953 MB after allocating wave
  | Largest tracked array allocation on task 0 so far         :           9.999 MB  when allocating +KS_eigenvector_complex
  Note:  These values currently only include a subset of arrays which are explicitly tracked.
  The "true" memory usage will be greater.
------------------------------------------------------------

------------------------------------------------------------
          Begin self-consistency iteration #    8

  Date     :  20190514, Time     :  124006.742
------------------------------------------------------------
  Evaluating new KS density using the density matrix
  Evaluating density matrix
  Time summed over all CPUs for getting density from density matrix: real work        0.676 s, elapsed        0.676 s
  Integration grid: deviation in total charge (<rho> - N_e) =   8.370193E-12
  Pulay mixing of updated and previous charge densities.

  Evaluating partitioned Hartree potential by multipole expansion.
  | Analytical far-field extrapolation by fixed multipoles:
  | Hartree multipole sum: apparent total charge =   0.296114E-02
  Summing up the Hartree potential.
  Time summed over all CPUs for potential: real work        0.421 s, elapsed        0.421 s
  | RMS charge density error from multipole expansion :   0.750856E-02
  | Average real-space part of the electrostatic potential :      0.14984509 eV

  Integrating Hamiltonian matrix: batch-based integration.
  Time summed over all CPUs for integration: real work        0.410 s, elapsed        0.410 s

  Updating Kohn-Sham eigenvalues, eigenvectors, occupation numbers, and Fermi level.
  Solving generalized eigenproblem

  Obtaining occupation numbers and chemical potential using ELSI.
  | Chemical potential (Fermi level):    -4.88205057eV
  What follows are estimated values for band gap, HOMO, LUMO, etc.
  | They are estimated on a discrete k-point grid and not necessarily exact.
  | For converged numbers, create a DOS and/or band structure plot on a denser k-grid.

  Highest occupied state (VBM) at     -5.61217363 eV (relative to internal zero)
  | Occupation number:      2.00000000
  | K-point:       1 at    0.000000    0.000000    0.000000 (in units of recip. lattice)

  Lowest unoccupied state (CBM) at    -4.84033000 eV (relative to internal zero)
  | Occupation number:      0.00000000
  | K-point:     615 at    0.500000    0.000000    0.000000 (in units of recip. lattice)

  ESTIMATED overall HOMO-LUMO gap:      0.77184363 eV between HOMO at k-point 1 and LUMO at k-point 615
  | This appears to be an indirect band gap.
  | Smallest direct gap :      1.15855560 eV for k_point 1 at    0.500000    0.000000    0.000000 (in units of recip. lattice)
  The gap value is above 0.2 eV. Unless you are using a very sparse k-point grid,
  this system is most likely an insulator or a semiconductor.

  Total energy components:
  | Sum of eigenvalues            :        -327.53990709 Ha       -8912.81435092 eV
  | XC energy correction          :         -39.58385031 Ha       -1077.13137087 eV
  | XC potential correction       :          52.29722626 Ha        1423.07993195 eV
  | Free-atom electrostatic energy:        -263.72077396 Ha       -7176.20738079 eV
  | Hartree energy correction     :          -0.17410109 Ha          -4.73753184 eV
  | Entropy correction            :          -0.00000000 Ha          -0.00000000 eV
  | ---------------------------
  | Total energy                  :        -578.72140620 Ha      -15747.81070247 eV
  | Total energy, T -> 0          :        -578.72140620 Ha      -15747.81070247 eV  <-- do not rely on this value for anything but (periodic) metals
  | Electronic free energy        :        -578.72140620 Ha      -15747.81070247 eV

  Derived energy quantities:
  | Kinetic energy                :         579.16907454 Ha       15759.99237780 eV
  | Electrostatic energy          :       -1118.30663043 Ha      -30430.67170940 eV
  | Energy correction for multipole
  | error in Hartree potential    :           0.00891690 Ha           0.24264113 eV
  | Sum of eigenvalues per atom                           :       -4456.40717546 eV
  | Total energy (T->0) per atom                          :       -7873.90535124 eV  <-- do not rely on this value for anything but (periodic) metals
  | Electronic free energy per atom                       :       -7873.90535124 eV

  Self-consistency convergence accuracy:
  | Change of charge density      :  0.3360E-02
  | Change of sum of eigenvalues  : -0.5733E+00 eV
  | Change of total energy        :  0.2388E-03 eV

  End self-consistency iteration #     8       :  max(cpu_time)    wall_clock(cpu1)
  | Time for this iteration                    :        2.093 s           2.094 s
  | Charge density update                      :        0.732 s           0.732 s
  | Density mixing & preconditioning           :        0.043 s           0.043 s
  | Hartree multipole update                   :        0.001 s           0.001 s
  | Hartree multipole summation                :        0.424 s           0.424 s
  | Integration                                :        0.410 s           0.410 s
  | Solution of K.-S. eqns.                    :        0.483 s           0.483 s
  | Total energy evaluation                    :        0.000 s           0.001 s

  Partial memory accounting:
  | Current value for overall tracked memory usage on task 0  :          10.631 MB
  | Peak value for overall tracked memory usage on task 0     :          12.953 MB after allocating wave
  | Largest tracked array allocation on task 0 so far         :           9.999 MB  when allocating +KS_eigenvector_complex
  Note:  These values currently only include a subset of arrays which are explicitly tracked.
  The "true" memory usage will be greater.
------------------------------------------------------------

------------------------------------------------------------
          Begin self-consistency iteration #    9

  Date     :  20190514, Time     :  124008.836
------------------------------------------------------------
  Evaluating new KS density using the density matrix
  Evaluating density matrix
  Time summed over all CPUs for getting density from density matrix: real work        0.678 s, elapsed        0.678 s
  Integration grid: deviation in total charge (<rho> - N_e) =   8.419931E-12
  Pulay mixing of updated and previous charge densities.

  Evaluating partitioned Hartree potential by multipole expansion.
  | Analytical far-field extrapolation by fixed multipoles:
  | Hartree multipole sum: apparent total charge =   0.295946E-02
  Summing up the Hartree potential.
  Time summed over all CPUs for potential: real work        0.422 s, elapsed        0.422 s
  | RMS charge density error from multipole expansion :   0.748961E-02
  | Average real-space part of the electrostatic potential :      0.14587959 eV

  Integrating Hamiltonian matrix: batch-based integration.
  Time summed over all CPUs for integration: real work        0.409 s, elapsed        0.409 s

  Updating Kohn-Sham eigenvalues, eigenvectors, occupation numbers, and Fermi level.
  Solving generalized eigenproblem

  Obtaining occupation numbers and chemical potential using ELSI.
  | Chemical potential (Fermi level):    -4.88614656eV
  What follows are estimated values for band gap, HOMO, LUMO, etc.
  | They are estimated on a discrete k-point grid and not necessarily exact.
  | For converged numbers, create a DOS and/or band structure plot on a denser k-grid.

  Highest occupied state (VBM) at     -5.61728798 eV (relative to internal zero)
  | Occupation number:      2.00000000
  | K-point:       1 at    0.000000    0.000000    0.000000 (in units of recip. lattice)

  Lowest unoccupied state (CBM) at    -4.84441301 eV (relative to internal zero)
  | Occupation number:      0.00000000
  | K-point:       6 at    0.000000    0.000000    0.500000 (in units of recip. lattice)

  ESTIMATED overall HOMO-LUMO gap:      0.77287498 eV between HOMO at k-point 1 and LUMO at k-point 6
  | This appears to be an indirect band gap.
  | Smallest direct gap :      1.15681074 eV for k_point 1 at    0.000000    0.000000    0.500000 (in units of recip. lattice)
  The gap value is above 0.2 eV. Unless you are using a very sparse k-point grid,
  this system is most likely an insulator or a semiconductor.

  Total energy components:
  | Sum of eigenvalues            :        -327.56107243 Ha       -8913.39028918 eV
  | XC energy correction          :         -39.58176804 Ha       -1077.07470925 eV
  | XC potential correction       :          52.29446960 Ha        1423.00491940 eV
  | Free-atom electrostatic energy:        -263.72077396 Ha       -7176.20738079 eV
  | Hartree energy correction     :          -0.15225465 Ha          -4.14305986 eV
  | Entropy correction            :          -0.00000000 Ha          -0.00000000 eV
  | ---------------------------
  | Total energy                  :        -578.72139948 Ha      -15747.81051968 eV
  | Total energy, T -> 0          :        -578.72139948 Ha      -15747.81051968 eV  <-- do not rely on this value for anything but (periodic) metals
  | Electronic free energy        :        -578.72139948 Ha      -15747.81051968 eV

  Derived energy quantities:
[...]
  | Total energy evaluation                    :        0.000 s           0.000 s

  Partial memory accounting:
  | Current value for overall tracked memory usage on task 0  :          10.631 MB
  | Peak value for overall tracked memory usage on task 0     :          12.953 MB after allocating wave
  | Largest tracked array allocation on task 0 so far         :           9.999 MB  when allocating +KS_eigenvector_complex
  Note:  These values currently only include a subset of arrays which are explicitly tracked.
  The "true" memory usage will be greater.
------------------------------------------------------------

------------------------------------------------------------
          Begin self-consistency iteration #   10

  Date     :  20190514, Time     :  124010.935
------------------------------------------------------------
  Evaluating new KS density using the density matrix
  Evaluating density matrix
  Time summed over all CPUs for getting density from density matrix: real work        0.717 s, elapsed        0.717 s
  Integration grid: deviation in total charge (<rho> - N_e) =   8.288481E-12
  Pulay mixing of updated and previous charge densities.

  Evaluating partitioned Hartree potential by multipole expansion.
  | Analytical far-field extrapolation by fixed multipoles:
  | Hartree multipole sum: apparent total charge =   0.294646E-02
  Summing up the Hartree potential.
  Time summed over all CPUs for potential: real work        0.424 s, elapsed        0.424 s
  | RMS charge density error from multipole expansion :   0.748194E-02
  | Average real-space part of the electrostatic potential :      0.14325052 eV

  Integrating Hamiltonian matrix: batch-based integration.
  Time summed over all CPUs for integration: real work        0.406 s, elapsed        0.406 s

  Updating Kohn-Sham eigenvalues, eigenvectors, occupation numbers, and Fermi level.
  Solving generalized eigenproblem

  Obtaining occupation numbers and chemical potential using ELSI.
  | Chemical potential (Fermi level):    -4.88882746eV
  What follows are estimated values for band gap, HOMO, LUMO, etc.
  | They are estimated on a discrete k-point grid and not necessarily exact.
  | For converged numbers, create a DOS and/or band structure plot on a denser k-grid.

  Highest occupied state (VBM) at     -5.62058971 eV (relative to internal zero)
  | Occupation number:      2.00000000
  | K-point:       1 at    0.000000    0.000000    0.000000 (in units of recip. lattice)

  Lowest unoccupied state (CBM) at    -4.84710496 eV (relative to internal zero)
  | Occupation number:      0.00000000
  | K-point:       6 at    0.000000    0.000000    0.500000 (in units of recip. lattice)

  ESTIMATED overall HOMO-LUMO gap:      0.77348475 eV between HOMO at k-point 1 and LUMO at k-point 6
  | This appears to be an indirect band gap.
  | Smallest direct gap :      1.15555953 eV for k_point 1 at    0.000000    0.000000    0.500000 (in units of recip. lattice)
  The gap value is above 0.2 eV. Unless you are using a very sparse k-point grid,
  this system is most likely an insulator or a semiconductor.

  Total energy components:
  | Sum of eigenvalues            :        -327.57586703 Ha       -8913.79287057 eV
  | XC energy correction          :         -39.58031803 Ha       -1077.03525244 eV
  | XC potential correction       :          52.29254955 Ha        1422.95267231 eV
  | Free-atom electrostatic energy:        -263.72077396 Ha       -7176.20738079 eV
  | Hartree energy correction     :          -0.13698650 Ha          -3.72759221 eV
  | Entropy correction            :          -0.00000000 Ha          -0.00000000 eV
  | ---------------------------
  | Total energy                  :        -578.72139595 Ha      -15747.81042370 eV
  | Total energy, T -> 0          :        -578.72139595 Ha      -15747.81042370 eV  <-- do not rely on this value for anything but (periodic) metals
  | Electronic free energy        :        -578.72139595 Ha      -15747.81042370 eV

  Derived energy quantities:
  | Kinetic energy                :         579.12709021 Ha       15758.84992612 eV
  | Electrostatic energy          :       -1118.26816814 Ha      -30429.62509737 eV
  | Energy correction for multipole
  | error in Hartree potential    :           0.00883070 Ha           0.24029544 eV
  | Sum of eigenvalues per atom                           :       -4456.89643528 eV
  | Total energy (T->0) per atom                          :       -7873.90521185 eV  <-- do not rely on this value for anything but (periodic) metals
  | Electronic free energy per atom                       :       -7873.90521185 eV

  Self-consistency convergence accuracy:
  | Change of charge density      :  0.8749E-03
  | Change of sum of eigenvalues  : -0.4026E+00 eV
  | Change of total energy        :  0.9598E-04 eV

  End self-consistency iteration #    10       :  max(cpu_time)    wall_clock(cpu1)
  | Time for this iteration                    :        2.152 s           2.152 s
  | Charge density update                      :        0.791 s           0.791 s
  | Density mixing & preconditioning           :        0.045 s           0.045 s
  | Hartree multipole update                   :        0.001 s           0.001 s
  | Hartree multipole summation                :        0.428 s           0.427 s
  | Integration                                :        0.406 s           0.406 s
  | Solution of K.-S. eqns.                    :        0.482 s           0.482 s
  | Total energy evaluation                    :        0.000 s           0.000 s

  Partial memory accounting:
  | Current value for overall tracked memory usage on task 0  :          10.631 MB
  | Peak value for overall tracked memory usage on task 0     :          12.953 MB after allocating wave
  | Largest tracked array allocation on task 0 so far         :           9.999 MB  when allocating +KS_eigenvector_complex
  Note:  These values currently only include a subset of arrays which are explicitly tracked.
  The "true" memory usage will be greater.
------------------------------------------------------------

------------------------------------------------------------
          Begin self-consistency iteration #   11

  Date     :  20190514, Time     :  124013.087
------------------------------------------------------------
  Evaluating new KS density using the density matrix
  Evaluating density matrix
  Time summed over all CPUs for getting density from density matrix: real work        0.679 s, elapsed        0.679 s
  Integration grid: deviation in total charge (<rho> - N_e) =   8.334666E-12
  Pulay mixing of updated and previous charge densities.

  Evaluating partitioned Hartree potential by multipole expansion.
  | Analytical far-field extrapolation by fixed multipoles:
  | Hartree multipole sum: apparent total charge =   0.294245E-02
  Summing up the Hartree potential.
  Time summed over all CPUs for potential: real work        0.423 s, elapsed        0.423 s
  | RMS charge density error from multipole expansion :   0.748196E-02
  | Average real-space part of the electrostatic potential :      0.14325989 eV

  Integrating Hamiltonian matrix: batch-based integration.
  Time summed over all CPUs for integration: real work        0.405 s, elapsed        0.405 s

  Updating Kohn-Sham eigenvalues, eigenvectors, occupation numbers, and Fermi level.
  Solving generalized eigenproblem

  Obtaining occupation numbers and chemical potential using ELSI.
  | Chemical potential (Fermi level):    -4.88882980eV
  What follows are estimated values for band gap, HOMO, LUMO, etc.
  | They are estimated on a discrete k-point grid and not necessarily exact.
  | For converged numbers, create a DOS and/or band structure plot on a denser k-grid.

  Highest occupied state (VBM) at     -5.62059194 eV (relative to internal zero)
  | Occupation number:      2.00000000
  | K-point:       1 at    0.000000    0.000000    0.000000 (in units of recip. lattice)

  Lowest unoccupied state (CBM) at    -4.84710781 eV (relative to internal zero)
  | Occupation number:      0.00000000
  | K-point:      53 at    0.000000    0.500000    0.000000 (in units of recip. lattice)

  ESTIMATED overall HOMO-LUMO gap:      0.77348414 eV between HOMO at k-point 1 and LUMO at k-point 53
  | This appears to be an indirect band gap.
  | Smallest direct gap :      1.15555853 eV for k_point 1 at    0.000000    0.500000    0.000000 (in units of recip. lattice)
  The gap value is above 0.2 eV. Unless you are using a very sparse k-point grid,
  this system is most likely an insulator or a semiconductor.

  Total energy components:
  | Sum of eigenvalues            :        -327.57587502 Ha       -8913.79308798 eV
  | XC energy correction          :         -39.58031896 Ha       -1077.03527794 eV
  | XC potential correction       :          52.29255077 Ha        1422.95270543 eV
  | Free-atom electrostatic energy:        -263.72077396 Ha       -7176.20738079 eV
  | Hartree energy correction     :          -0.13697878 Ha          -3.72738236 eV
  | Entropy correction            :          -0.00000000 Ha          -0.00000000 eV
  | ---------------------------
  | Total energy                  :        -578.72139595 Ha      -15747.81042364 eV
  | Total energy, T -> 0          :        -578.72139595 Ha      -15747.81042364 eV  <-- do not rely on this value for anything but (periodic) metals
  | Electronic free energy        :        -578.72139595 Ha      -15747.81042364 eV

  Derived energy quantities:
  | Kinetic energy                :         579.12708616 Ha       15758.84981600 eV
  | Electrostatic energy          :       -1118.26816315 Ha      -30429.62496170 eV
  | Energy correction for multipole
  | error in Hartree potential    :           0.00883063 Ha           0.24029364 eV
  | Sum of eigenvalues per atom                           :       -4456.89654399 eV
  | Total energy (T->0) per atom                          :       -7873.90521182 eV  <-- do not rely on this value for anything but (periodic) metals
  | Electronic free energy per atom                       :       -7873.90521182 eV

  Self-consistency convergence accuracy:
  | Change of charge density      :  0.8262E-06
  | Change of sum of eigenvalues  : -0.2174E-03 eV
  | Change of total energy        :  0.5493E-07 eV

  Preliminary charge convergence reached. Turning off preconditioner.

  Writing Kohn-Sham eigenvalues.
  K-point:       1 at    0.000000    0.000000    0.000000 (in units of recip. lattice)

  State    Occupation    Eigenvalue [Ha]    Eigenvalue [eV]
      1       2.00000         -65.501529        -1782.38728
      2       2.00000         -65.501529        -1782.38728
      3       2.00000          -5.100656         -138.79592
      4       2.00000          -5.100547         -138.79294
      5       2.00000          -3.514581          -95.63661
      6       2.00000          -3.514581          -95.63661
      7       2.00000          -3.514581          -95.63661
      8       2.00000          -3.514306          -95.62913
      9       2.00000          -3.514306          -95.62913
     10       2.00000          -3.514306          -95.62913
     11       2.00000          -0.600639          -16.34422
     12       2.00000          -0.206553           -5.62059
     13       2.00000          -0.206553           -5.62059
     14       2.00000          -0.206553           -5.62059
     15       0.00000          -0.164087           -4.46503
     16       0.00000          -0.116092           -3.15903
     17       0.00000          -0.116092           -3.15903
     18       0.00000          -0.116092           -3.15903
     19       0.00000           0.083507            2.27235
     20       0.00000           0.083507            2.27235

  What follows are estimated values for band gap, HOMO, LUMO, etc.
  | They are estimated on a discrete k-point grid and not necessarily exact.
  | For converged numbers, create a DOS and/or band structure plot on a denser k-grid.

  Highest occupied state (VBM) at     -5.62059194 eV (relative to internal zero)
  | Occupation number:      2.00000000
  | K-point:       1 at    0.000000    0.000000    0.000000 (in units of recip. lattice)

  Lowest unoccupied state (CBM) at    -4.84710781 eV (relative to internal zero)
  | Occupation number:      0.00000000
  | K-point:      53 at    0.000000    0.500000    0.000000 (in units of recip. lattice)

  ESTIMATED overall HOMO-LUMO gap:      0.77348414 eV between HOMO at k-point 1 and LUMO at k-point 53
  | This appears to be an indirect band gap.
  | Smallest direct gap :      1.15555853 eV for k_point 1 at    0.000000    0.500000    0.000000 (in units of recip. lattice)
  The gap value is above 0.2 eV. Unless you are using a very sparse k-point grid,
  this system is most likely an insulator or a semiconductor.

  Self-consistency cycle converged.

  End self-consistency iteration #    11       :  max(cpu_time)    wall_clock(cpu1)
  | Time for this iteration                    :        2.095 s           2.096 s
  | Charge density update                      :        0.735 s           0.735 s
  | Density mixing                             :        0.044 s           0.044 s
  | Hartree multipole update                   :        0.001 s           0.001 s
  | Hartree multipole summation                :        0.426 s           0.426 s
  | Integration                                :        0.405 s           0.405 s
  | Solution of K.-S. eqns.                    :        0.484 s           0.484 s
  | Total energy evaluation                    :        0.000 s           0.000 s

  Partial memory accounting:
  | Current value for overall tracked memory usage on task 0  :          10.631 MB
  | Peak value for overall tracked memory usage on task 0     :          12.953 MB after allocating wave
  | Largest tracked array allocation on task 0 so far         :           9.999 MB  when allocating +KS_eigenvector_complex
  Note:  These values currently only include a subset of arrays which are explicitly tracked.
  The "true" memory usage will be greater.
------------------------------------------------------------

  Energy and forces in a compact form:
  | Total energy uncorrected      :         -0.157478104236420E+05 eV
  | Total energy corrected        :         -0.157478104236420E+05 eV  <-- do not rely on this value for anything but (periodic) metals
  | Electronic free energy        :         -0.157478104236420E+05 eV

  ------------------------------------ 
  Start decomposition of the XC Energy 
  ------------------------------------ 
  X and C from original XC functional choice 
  Hartree-Fock Energy :          0.000000000 Ha              0.000000000 eV
  X Energy            :        -37.443722714 Ha          -1018.895535874 eV
  C Energy            :         -2.136596249 Ha            -58.139742065 eV
  Total XC Energy     :        -39.580318963 Ha          -1077.035277939 eV
  ------------------------------------ 
  LDA X and C from self-consistent density 
  X Energy LDA        :        -37.443722714 Ha          -1018.895535874 eV
  C Energy LDA        :         -2.136596249 Ha            -58.139742065 eV
  ------------------------------------ 
  End decomposition of the XC Energy 
  ------------------------------------ 

------------------------------------------------------------

------------------------------------------------------------------------------
  Final output of selected total energy values:

  The following output summarizes some interesting total energy values
  at the end of a run (AFTER all relaxation, molecular dynamics, etc.).

  | Total energy of the DFT / Hartree-Fock s.c.f. calculation      :         -15747.810423642 eV
  | Final zero-broadening corrected energy (caution - metals only) :         -15747.810423642 eV
  | For reference only, the value of 1 Hartree used in FHI-aims is :             27.211384500 eV

  Before relying on these values, please be sure to understand exactly which
  total energy value is referred to by a given number. Different objects may
  all carry the same name 'total energy'. Definitions:

  Total energy of the DFT / Hartree-Fock s.c.f. calculation:
  | Note that this energy does not include ANY quantities calculated after the
  | s.c.f. cycle, in particular not ANY RPA, MP2, etc. many-body perturbation terms.

  Final zero-broadening corrected energy:
  | For metallic systems only, a broadening of the occupation numbers at the Fermi
  | level can be extrapolated back to zero broadening by an electron-gas inspired
  | formula. For all systems that are not real metals, this value can be
  | meaningless and should be avoided.

------------------------------------------------------------------------------
  Methods described in the following list of references were used in this FHI-aims run.
  If you publish the results, please make sure to cite these reference if they apply.
  FHI-aims is an academic code, and for our developers (often, Ph.D. students
  and postdocs), scientific credit in the community is essential.
  Thank you for helping us!

  For any use of FHI-aims, please cite:

    Volker Blum, Ralf Gehrke, Felix Hanke, Paula Havu, Ville Havu,
    Xinguo Ren, Karsten Reuter, and Matthias Scheffler
    'Ab initio molecular simulations with numeric atom-centered orbitals'
    Computer Physics Communications 180, 2175-2196 (2009)
    http://dx.doi.org/10.1016/j.cpc.2009.06.022


  For the real-space grid partitioning and parallelization used in this calculation, please cite:

    Ville Havu, Volker Blum, Paula Havu, and Matthias Scheffler,
    'Efficient O(N) integration for all-electron electronic structure calculation'
    'using numerically tabulated basis functions'
    Journal of Computational Physics 228, 8367-8379 (2009).
    http://dx.doi.org/10.1016/j.jcp.2009.08.008

  Of course, there are many other important community references, e.g., those cited in the
  above references. Our list is limited to references that describe implementations in the
  FHI-aims code. The reason is purely practical (length of this list) - please credit others as well.

------------------------------------------------------------
          Leaving FHI-aims.
          Date     :  20190514, Time     :  124015.191

          Computational steps:
          | Number of self-consistency cycles          :           11
          | Number of SCF (re)initializations          :            1

          Detailed time accounting                     :  max(cpu_time)    wall_clock(cpu1)
          | Total time                                 :       25.214 s          25.214 s
          | Preparation time                           :        0.091 s           0.091 s
          | Boundary condition initalization           :        0.042 s           0.043 s
          | Grid partitioning                          :        0.026 s           0.026 s
          | Preloading free-atom quantities on grid    :        0.001 s           0.000 s
          | Free-atom superposition energy             :        0.027 s           0.027 s
          | Total time for integrations                :        5.175 s           5.175 s
          | Total time for solution of K.-S. equations :        6.299 s           6.299 s
          | Total time for density update              :        8.223 s           8.222 s
          | Total time for mixing & preconditioning    :        0.512 s           0.511 s
          | Total time for Hartree multipole update    :        0.009 s           0.010 s
          | Total time for Hartree multipole sum       :        4.674 s           4.674 s
          | Total time for total energy evaluation     :        0.003 s           0.002 s
          | Total time for scaled ZORA corrections     :        0.000 s           0.000 s

 This is a stub MPI_ALLREDUCE call.
 You should not be here. Check your
 setting on the use_mpi variable, or
 link against true MPI-libraries.
