------------------------------------------------------------
          Invoking FHI-aims ...
          Version 171221_1
          Compiled on 2019/05/06 at 14:26:40 on host ffph0xx.

          When using FHI-aims, please cite the following reference:

          Volker Blum, Ralf Gehrke, Felix Hanke, Paula Havu,
          Ville Havu, Xinguo Ren, Karsten Reuter, and Matthias Scheffler,
          'Ab Initio Molecular Simulations with Numeric Atom-Centered Orbitals',
          Computer Physics Communications 180, 2175-2196 (2009)

          For any questions about FHI-aims, please visit the aimsclub website
          with its forums and wiki. Contributions to both the forums and the
          wiki are warmly encouraged - they are for you, and everyone is welcome there.

------------------------------------------------------------



  Date     :  20190508, Time     :  170410.428
  Time zero on CPU 1             :   0.715000000000000E-03  s.
  Internal wall clock time zero  :           326567050.428  s.

  FHI-aims created a unique identifier for this run for later identification
  aims_uuid : 5090D1A4-3E52-41C1-A795-51AB6C7CC70D


  Performing system and environment tests:
  *** Environment variable OMP_NUM_THREADS is not set
  *** For performance reasons you might want to set it to 1
  | Stacksize not measured: no C compiler

  Obtaining array dimensions for all initial allocations:
  
  -----------------------------------------------------------------------
  Parsing control.in (first pass over file, find array dimensions only).
  The contents of control.in will be repeated verbatim below
  unless switched off by setting 'verbatim_writeout .false.' .
  in the first line of control.in .
  -----------------------------------------------------------------------
  
  # Relaxation of the H3O+ molecule
  #--- Method ---
    xc  pw-lda
    charge 1.0 # this gives the cation
    spin none
  
  #######Iteration limit####################
    sc_iter_limit 100
  
  #######Relaxation######################
    ######################relax_geometry trm 1E-3
  
  #######Species#########################
  ################################################################################
  #
  #  FHI-aims code project
  #  VB, Fritz-Haber Institut, 2009
  #
  #  Suggested "light" defaults for H atom (to be pasted into control.in file)
  #  Be sure to double-check any results obtained with these settings for post-processing,
  #  e.g., with the "tight" defaults and larger basis sets.
  #
  ################################################################################
    species        H
  #     global species definitions
      nucleus             1
      mass                1.00794
  #
      l_hartree           4
  #
      cut_pot             3.5  1.5  1.0
      basis_dep_cutoff    1e-4
  #
      radial_base         24 5.0
      radial_multiplier   1
      angular_grids       specified
        division   0.2421   50
        division   0.3822  110
        division   0.4799  194
        division   0.5341  302
  #      division   0.5626  434
  #      division   0.5922  590
  #      division   0.6542  770
  #      division   0.6868 1202
  #      outer_grid  770
        outer_grid  302
  ################################################################################
  #
  #  Definition of "minimal" basis
  #
  ################################################################################
  #     valence basis states
      valence      1  s   1.
  #     ion occupancy
      ion_occ      1  s   0.5
  ################################################################################
  #
  #  Suggested additional basis functions. For production calculations,
  #  uncomment them one after another (the most important basis functions are
  #  listed first).
  #
  #  Basis constructed for dimers: 0.5 A, 0.7 A, 1.0 A, 1.5 A, 2.5 A
  #
  ################################################################################
  #  "First tier" - improvements: -1014.90 meV to -62.69 meV
       hydro 2 s 2.1
       hydro 2 p 3.5
  #  "Second tier" - improvements: -12.89 meV to -1.83 meV
  #     hydro 1 s 0.85
  #     hydro 2 p 3.7
  #     hydro 2 s 1.2
  #     hydro 3 d 7
  #  "Third tier" - improvements: -0.25 meV to -0.12 meV
  #     hydro 4 f 11.2
  #     hydro 3 p 4.8
  #     hydro 4 d 9
  #     hydro 3 s 3.2
  ################################################################################
  #
  #  FHI-aims code project
  #  VB, Fritz-Haber Institut, 2009
  #
  #  Suggested "light" defaults for O atom (to be pasted into control.in file)
  #  Be sure to double-check any results obtained with these settings for post-processing,
  #  e.g., with the "tight" defaults and larger basis sets.
  #
  ################################################################################
    species        O
  #     global species definitions
      nucleus             8
      mass                15.9994
  #
      l_hartree           4
  #
      cut_pot             3.5  1.5  1.0
      basis_dep_cutoff    1e-4
  #
      radial_base         36 5.0
      radial_multiplier   1
       angular_grids specified
        division   0.2659   50
        division   0.4451  110
        division   0.6052  194
        division   0.7543  302
  #      division   0.8014  434
  #      division   0.8507  590
  #      division   0.8762  770
  #      division   0.9023  974
  #      division   1.2339 1202
  #      outer_grid 974
        outer_grid 302
  ################################################################################
  #
  #  Definition of "minimal" basis
  #
  ################################################################################
  #     valence basis states
      valence      2  s   2.
      valence      2  p   4.
  #     ion occupancy
      ion_occ      2  s   1.
      ion_occ      2  p   3.
  ################################################################################
  #
  #  Suggested additional basis functions. For production calculations,
  #  uncomment them one after another (the most important basis functions are
  #  listed first).
  #
  #  Constructed for dimers: 1.0 A, 1.208 A, 1.5 A, 2.0 A, 3.0 A
  #
  ################################################################################
  #  "First tier" - improvements: -699.05 meV to -159.38 meV
       hydro 2 p 1.8
       hydro 3 d 7.6
       hydro 3 s 6.4
  #  "Second tier" - improvements: -49.91 meV to -5.39 meV
  #     hydro 4 f 11.6
  #     hydro 3 p 6.2
  #     hydro 3 d 5.6
  #     hydro 5 g 17.6
  #     hydro 1 s 0.75
  #  "Third tier" - improvements: -2.83 meV to -0.50 meV
  #     ionic 2 p auto
  #     hydro 4 f 10.8
  #     hydro 4 d 4.7
  #     hydro 2 s 6.8
  #  "Fourth tier" - improvements: -0.40 meV to -0.12 meV
  #     hydro 3 p 5
  #     hydro 3 s 3.3
  #     hydro 5 g 15.6
  #     hydro 4 f 17.6
  #     hydro 4 d 14
  # Further basis functions - -0.08 meV and below
  #     hydro 3 s 2.1
  #     hydro 4 d 11.6
  #     hydro 3 p 16
  #     hydro 2 s 17.2
  /afs/ictp.it/public/shared/smr2475/fhi-aims/species_defaults/light/01_H_default
  compute_forces .true.
  final_forces_cleaned .true.
  output dipole
  
  -----------------------------------------------------------------------
  Completed first pass over input file control.in .
  -----------------------------------------------------------------------
  
  
  -----------------------------------------------------------------------
  Parsing geometry.in (first pass over file, find array dimensions only).
  The contents of geometry.in will be repeated verbatim below
  unless switched off by setting 'verbatim_writeout .false.' .
  in the first line of geometry.in .
  -----------------------------------------------------------------------
  
  #
  # temporary structure-file for finite-difference calculation of forces
  # displacement   0.0020 of \# atom     3 direction     1
  #
  atom   -0.00000000   -0.00002910    0.00000000   O
  atom    0.85488761   -0.49352200   -0.00000000   H
  atom   -0.85488761   -0.49352200   -0.00000000   H
  atom   -0.00000000    0.98907310   -0.00000000   H
  
  -----------------------------------------------------------------------
  Completed first pass over input file geometry.in .
  -----------------------------------------------------------------------
  

  Basic array size parameters:
  | Number of species                 :        2
  | Number of atoms                   :        4
  | Max. basis fn. angular momentum   :        2
  | Max. atomic/ionic basis occupied n:        2
  | Max. number of basis fn. types    :        2
  | Max. radial fns per species/type  :        3
  | Max. logarithmic grid size        :     1301
  | Max. radial integration grid size :       36
  | Max. angular integration grid size:      302
  | Max. angular grid division number :        8
  | Radial grid for Hartree potential :     1301
  | Number of spin channels           :        1

------------------------------------------------------------
          Reading file control.in.
------------------------------------------------------------
  XC: Using Perdew-Wang parametrisation of Ceperley-Alder LDA.
  Charged system requested: Charge =   0.100000E+01.
  Spin treatment: No spin polarisation.
  Maximum number of s.-c. iterations  :   100

  Reading configuration options for species H                   .
  | Found nuclear charge :   1.0000
  | Found atomic mass :    1.0079400000000001      amu
  | Found l_max for Hartree potential  :   4
  | Found cutoff potl. onset [A], width [A], scale factor :    3.50000    1.50000    1.00000
  | Threshold for basis-dependent cutoff potential is   0.100000E-03
  | Found data for basic radial integration grid :    24 points, outermost radius =    5.000 A
  | Found multiplier for basic radial grid :   1
  | Found angular grid specification: user-specified.
  | Specified grid contains     5 separate shells.
  | Check grid settings after all constraints further below.
  | Found free-atom valence shell :  1 s   1.000
  | No ionic wave fns used. Skipping ion_occ.
  | Found hydrogenic basis function :  2 s   2.100
  | Found hydrogenic basis function :  2 p   3.500
  Species H                   : Missing cutoff potential type.
  Defaulting to exp(1/x)/(1-x)^2 type cutoff potential.
  Species H : No 'logarithmic' tag. Using default grid for free atom:
  | Default logarithmic grid data [bohr] : 0.1000E-03 0.1000E+03 0.1012E+01
  Species H : On-site basis accuracy parameter (for Gram-Schmidt orthonormalisation) not specified.
  Using default value basis_acc =  0.1000000E-03.
  Species H                   : Using default innermost maximum threshold i_radial=  2 for radial functions.
  Species H                   : Default cutoff onset for free atom density etc. : 0.35000000E+01 AA.
  Species H                   : Basic radial grid will be enhanced according to radial_multiplier =   1, to contain    24 grid points.

  Reading configuration options for species O                   .
  | Found nuclear charge :   8.0000
  | Found atomic mass :    15.999400000000000      amu
  | Found l_max for Hartree potential  :   4
  | Found cutoff potl. onset [A], width [A], scale factor :    3.50000    1.50000    1.00000
  | Threshold for basis-dependent cutoff potential is   0.100000E-03
  | Found data for basic radial integration grid :    36 points, outermost radius =    5.000 A
  | Found multiplier for basic radial grid :   1
  | Found angular grid specification: user-specified.
  | Specified grid contains     5 separate shells.
  | Check grid settings after all constraints further below.
  | Found free-atom valence shell :  2 s   2.000
  | Found free-atom valence shell :  2 p   4.000
  | No ionic wave fns used. Skipping ion_occ.
  | No ionic wave fns used. Skipping ion_occ.
  | Found hydrogenic basis function :  2 p   1.800
  | Found hydrogenic basis function :  3 d   7.600
  | Found hydrogenic basis function :  3 s   6.400
  Species O                   : Missing cutoff potential type.
  Defaulting to exp(1/x)/(1-x)^2 type cutoff potential.
  Species O : No 'logarithmic' tag. Using default grid for free atom:
  | Default logarithmic grid data [bohr] : 0.1000E-03 0.1000E+03 0.1012E+01
  Species O : On-site basis accuracy parameter (for Gram-Schmidt orthonormalisation) not specified.
  Using default value basis_acc =  0.1000000E-03.
  Species O                   : Using default innermost maximum threshold i_radial=  2 for radial functions.
  Species O                   : Default cutoff onset for free atom density etc. : 0.35000000E+01 AA.
  Species O                   : Basic radial grid will be enhanced according to radial_multiplier =   1, to contain    36 grid points.
  Forces will be computed.
  Cleaning forces before final output.
  Dipole moment will be written out.

  Finished reading input file 'control.in'. Consistency checks are next.

  MPI_IN_PLACE appears to work with this MPI implementation.
  | Keeping use_mpi_in_place .true. (see manual).
  Target number of points in a grid batch is not set. Defaulting to  100
  Method for grid partitioning is not set. Defaulting to 'maxmin' partitioning.
  Batch size limit is not set. Defaulting to    200
  By default, will store active basis functions for each batch.
  If in need of memory, prune_basis_once .false. can be used to disable this option.
  communication_type for Hartree potential was not specified.
  Defaulting to calc_hartree .
 * Attention: 
 * You may want to set distributed_spline_storage to .true. in order to save memory.
 * This doesn't harm performance and is perfectly ok unless:
 * - you get error messages in postprocessing (about missing atoms in get_rho_multipole_spl)
 * - you need full spline storage in hirshfeld_analysis
  Defaulting to Pulay charge density mixer.
  Pulay mixer: Number of relevant iterations not set.
  Defaulting to    8 iterations.
  Pulay mixer: Number of initial linear mixing iterations not set.
  Defaulting to    0 iterations.
  Work space size for distributed Hartree potential not set.
  Defaulting to   0.200000E+03 MB.
  Mixing parameter for charge density mixing has not been set.
  Using default: charge_mix_param =     0.0500.
  The mixing parameter will be adjusted in iteration number     2 of the first full s.c.f. cycle only.
  Algorithm-dependent basis array size parameters:
  | n_max_pulay                         :        8
 * Notice: The s.c.f. convergence criterion sc_accuracy_rho was not provided.
 * We used to stop in this case, and ask the user to provide reasonable
 * scf convergence criteria. However, this led some users to employ criteria
 * that led to extremely long run times, e.g., for simple relaxation.
 * We now preset a default value for sc_accuracy_rho if it is not set.
 * You may still wish to check if this setting is too tight or too loose for your needs.
 * Based on n_atoms, FHI-aims chose sc_accuracy_rho =  0.100000E-05 .
  Presetting      1001 iterations before the initial mixing cycle
  is restarted anyway using the sc_init_iter criterion / keyword.
  Presetting a factor      1.000 between actual scf density residual
  and density convergence criterion sc_accuracy_rho below which sc_init_iter
  takes no effect.
 * No s.c.f. convergence criteria (sc_accuracy_*) were provided in control.in.
 * The run will proceed with a reasonable default guess, but please check whether.
 * the s.c.f. cycles seem to take too much or too little time.
  Geometry relaxation not requested: no relaxation will be performed.
  Force calculation: scf convergence accuracy of forces not set.
  Defaulting to 'sc_accuracy_forces not_checked'.
  Handling of forces: Unphysical translation and rotation will be removed from forces.
  No accuracy limit for integral partition fn. given. Defaulting to  0.1000E-14.
  No threshold value for u(r) in integrations given. Defaulting to  0.1000E-05.
  No occupation type (smearing scheme) given. Defaulting to Gaussian broadening, width =  0.1000E-01 eV.
  The width will be adjusted in iteration number     2 of the first full s.c.f. cycle only.
  S.C.F. convergence parameters will be adjusted in iteration number     2 of the first full s.c.f. cycle only.
  No accuracy for occupation numbers given. Defaulting to  0.1000E-12.
  No threshold value for occupation numbers given. Defaulting to  0.0000E+00.
  No accuracy for fermi level given. Defaulting to  0.1000E-19.
  Maximum # of iterations to find E_F not set. Defaulting to  200.
  Preferred method for the eigenvalue solver ('KS_method') not specified in 'control.in'.
  Defaulting to serial version, 'lapack_fast'.
  Will not use alltoall communication since running on < 1024 CPUs.
  Threshold for basis singularities not set.
  Default threshold for basis singularities:  0.1000E-04
  partition_type (choice of integration weights) for integrals was not specified.
  | Using a version of the partition function of Stratmann and coworkers ('stratmann_smoother').
  | At each grid point, the set of atoms used to build the partition table is smoothly restricted to
  | only those atoms whose free-atom density would be non-zero at that grid point.
  Partitioning for Hartree potential was not defined. Using partition_type for integrals.
  | Adjusted default value of keyword multip_moments_threshold to:       0.10000000E-11
  | This value may affect high angular momentum components of the Hartree potential in periodic systems.
  No q(lm)/r^(l+1) cutoff set for long-range Hartree potential.
  | Using default value of  0.100000E-09 .
  | Verify using the multipole_threshold keyword.
  Defaulting to new monopole extrapolation.
  Density update method: automatic selection selected.
------------------------------------------------------------


------------------------------------------------------------
          Reading geometry description geometry.in.
------------------------------------------------------------
 * Warning: Initial charge and total charge of the system are inconsistent.
 * Selected charge in control.in:     1.0000* Sum of initial charges in geometry.in:     0.0000
 * Warning! You did not set the 'relativistic' flag in input file 'control.in'.
 * Since you are not attempting to treat any elements beyond Ca(Z=20), FHI-aims
 * will default to 'relativistic none'.
 * You must ensure that this is really what you want!!
 * For example, DO NOT compute total-energy differences between results from
 * different settings of the 'relativistic' flag.
  Input structure read successfully.
  The structure contains        4 atoms,  and a total of         10.000 electrons.

  Input geometry:
  | No unit cell requested.
  | Atomic structure:
  |       Atom                x [A]            y [A]            z [A]
  |    1: Species O            -0.00000000       -0.00002910        0.00000000
  |    2: Species H             0.85488761       -0.49352200       -0.00000000
  |    3: Species H            -0.85488761       -0.49352200       -0.00000000
  |    4: Species H            -0.00000000        0.98907310       -0.00000000
  |

  | The smallest distance between any two atoms is         0.98710084 AA.
  |
  | The first atom of this pair is atom number                      1 .
  | The second atom of this pair is atom number                     2 .

  Number of empty states per atom not set in control.in - providing a guess from actual geometry.
  | Total number of empty states used during s.c.f. cycle:        8
  If you use a very high smearing, use empty_states (per atom!) in control.in to increase this value.

  Structure-dependent array size parameters: 
  | Maximum number of distinct radial functions  :        9
  | Maximum number of basis functions            :       29
  | Number of Kohn-Sham states (occupied + empty):       13
------------------------------------------------------------

------------------------------------------------------------
          Preparing all fixed parts of the calculation.
------------------------------------------------------------
  Determining machine precision:
     2.2250738585072014E-308
  Setting up grids for atomic and cluster calculations.

  Creating wave function, potential, and density for free atoms.

  Species: H

  List of occupied orbitals and eigenvalues:
    n    l              occ      energy [Ha]    energy [eV]
    1    0           1.0000        -0.232375        -6.3233


  Species: O

  List of occupied orbitals and eigenvalues:
    n    l              occ      energy [Ha]    energy [eV]
    1    0           2.0000       -18.757744      -510.4242
    2    0           2.0000        -0.870917       -23.6989
    2    1           4.0000        -0.337950        -9.1961

  Creating fixed part of basis set: Ionic, confined, hydrogenic.

  H                    hydrogenic:

  List of hydrogenic basis orbitals: 
    n    l      effective z      eigenvalue [eV]  inner max. [A]     outer max. [A]     outer radius [A]   
    2    0         2.100000       -14.9728           0.193243           1.317208           4.583499
    2    1         3.500000       -41.6669           0.602369           0.602369           3.723403


  O                    hydrogenic:

  List of hydrogenic basis orbitals: 
    n    l      effective z      eigenvalue [eV]  inner max. [A]     outer max. [A]     outer radius [A]   
    2    1         1.800000       -10.9749           1.164242           1.164242           4.578029
    3    2         7.600000       -87.3180           0.624125           0.624125           3.251020
    3    0         6.400000       -61.9207           0.061167           1.081902           4.001998


  Adding cutoff potential to free-atom effective potential.
  Creating atomic-like basis functions for current effective potential.

  Species H                   :

  List of atomic basis orbitals and eigenvalues:
    n    l      energy [Ha]    energy [eV]    outer radius [A]
    1    0        -0.232375        -6.3233       4.527807


  Species O                   :

  List of atomic basis orbitals and eigenvalues:
    n    l      energy [Ha]    energy [eV]    outer radius [A]
    1    0       -18.757744      -510.4242       1.433179
    2    0        -0.870917       -23.6989       4.413171
    2    1        -0.337950        -9.1961       4.522403

  Assembling full basis from fixed parts.
  | Species H :   atomic orbital   1 s accepted.
  | Species H :    hydro orbital   2 s accepted.
  | Species H :    hydro orbital   2 p accepted.
  | Species O :   atomic orbital   1 s accepted.
  | Species O :    hydro orbital   3 s accepted.
  | Species O :   atomic orbital   2 s accepted.
  | Species O :   atomic orbital   2 p accepted.
  | Species O :    hydro orbital   2 p accepted.
  | Species O :    hydro orbital   3 d accepted.

  Basis size parameters after reduction:
  | Total number of radial functions:        9
  | Total number of basis functions :       29

  Per-task memory consumption for arrays in subroutine allocate_ext:
  |           2.249476MB.
  Testing on-site integration grid accuracy.
  |  Species  Function  <phi|h_atom|phi> (log., in eV)  <phi|h_atom|phi> (rad., in eV)
           1        1                 -6.3245358373                 -6.3232436907
           1        2                 14.1326137532                 14.1384481100
           1        3                 25.3627025200                 25.3628451197
           2        4               -510.4241781769               -510.4240769412
           2        5                 14.9072942218                 14.9072945276
           2        6                -21.2004736467                -21.2005650544
           2        7                 -9.1962086499                 -9.1963509828
           2        8                  8.1896755011                  8.1702200086
           2        9                 45.7920584945                 45.7920228528

  Preparing densities etc. for the partition functions (integrals / Hartree potential).

  Preparations completed.
  max(cpu_time)          :      0.047 s.
  Wall clock time (cpu1) :      0.047 s.
------------------------------------------------------------

------------------------------------------------------------
          Begin self-consistency loop: Initialization.

          Date     :  20190508, Time     :  170410.476
------------------------------------------------------------

  Initializing index lists of integration centers etc. from given atomic structure:
  | Number of centers in hartree potential         :         4
  | Number of centers in hartree multipole         :         4
  | Number of centers in electron density summation:         4
  | Number of centers in basis integrals           :         4
  | Number of centers in integrals                 :         4
  | Number of centers in hamiltonian               :         4
  Partitioning the integration grid into batches with maxmin method.
  | Maximal weight for a single point:     1.000
  | Minimal weight for a single point:     0.000
  | Number of batches:      256
  | Maximal batch size:      90
  | Minimal batch size:      72
  | Average batch size:      80.719
  | Standard deviation of batch sizes:       6.453
  Initializing partition tables, free-atom densities, potentials, etc. across the integration grid (initialize_grid_storage).
  | initialize_grid_storage: Actual outermost partition radius vs. multipole_radius_free
  | (-- VB: in principle, multipole_radius_free should be larger, hence this output)
  | Species        1: Confinement radius =              4.999999999999999 AA, multipole_radius_free =              5.054417573612229 AA.
  | Species        1: outer_partition_radius set to              5.054417573612229 AA .
  | Species        2: Confinement radius =              4.999999999999999 AA, multipole_radius_free =              5.048384829883283 AA.
  | Species        2: outer_partition_radius set to              5.048384829883283 AA .
  | Original list of interatomic distances with           4 x          4 entries is created.
  | Net number of integration points:    20664
  | of which are non-zero points    :    18430
  Renormalizing the initial density to the exact electron count on the 3D integration grid.
  | Initial density: Formal number of electrons (from input files) :      11.0000000000
  | Integrated number of electrons on 3D grid     :      10.9999412380
  | Charge integration error                      :      -0.0000587620
  | Normalization factor for density and gradient :       1.0000053420
  Obtaining max. number of non-zero basis functions in each batch (get_n_compute_maxes).
  | Maximal number of non-zero basis functions:       29 in task     0
  Selecting the method for density update.
  Loop over occupied states selected for charge density update.
  Allocating        0.003 MB for KS_eigenvector
  Integrating Hamiltonian matrix: batch-based integration.
  Time summed over all CPUs for integration: real work        0.029 s, elapsed        0.029 s
  Integrating overlap matrix.
  Time summed over all CPUs for integration: real work        0.014 s, elapsed        0.014 s

  Updating Kohn-Sham eigenvalues, eigenvectors, occupation numbers, and Fermi level.
  Solving generalized eigenproblem
  Updating Kohn-Sham eigenvalues and eigenfunctions.
  Transforming overlap matrix and checking for singularities.
  Overlap matrix is nonsingular:
  | Lowest eigenvalue:  0.120688E-01
  Solving real generalised eigenvalue problem by standard LAPACK (fast)

  Obtaining occupation numbers and chemical potential using ELSI.
  | Chemical potential (Fermi level):    -6.57660901eV
  Writing Kohn-Sham eigenvalues.

  State    Occupation    Eigenvalue [Ha]    Eigenvalue [eV]
      1       2.00000         -18.914582         -514.69197
      2       2.00000          -1.147874          -31.23524
      3       2.00000          -0.684901          -18.63710
      4       2.00000          -0.684270          -18.61993
      5       2.00000          -0.491616          -13.37755
      6       0.00000          -0.091792           -2.49780
      7       0.00000           0.005075            0.13809
      8       0.00000           0.005634            0.15331
      9       0.00000           0.209798            5.70888
     10       0.00000           0.265018            7.21150
     11       0.00000           0.265376            7.22124
     12       0.00000           0.427653           11.63702
     13       0.00000           0.676653           18.41267

  Highest occupied state (VBM) at    -13.37755388 eV
  | Occupation number:      2.00000000

  Lowest unoccupied state (CBM) at    -2.49779658 eV
  | Occupation number:      0.00000000

  Overall HOMO-LUMO gap:     10.87975730 eV.
  Calculating total energy contributions from superposition of free atom densities.

  Total energy components:
  | Sum of eigenvalues            :         -43.84648636 Ha       -1193.12359925 eV
  | XC energy correction          :          -8.86417570 Ha        -241.20649322 eV
  | XC potential correction       :          11.67207395 Ha         317.61329221 eV
  | Free-atom electrostatic energy:         -35.27239561 Ha        -959.81071924 eV
  | Hartree energy correction     :          -0.00000000 Ha          -0.00000000 eV
  | Entropy correction            :          -0.00000000 Ha          -0.00000000 eV
  | ---------------------------
  | Total energy                  :         -76.31098372 Ha       -2076.52751950 eV
  | Total energy, T -> 0          :         -76.31098372 Ha       -2076.52751950 eV  <-- do not rely on this value for anything but (periodic) metals
  | Electronic free energy        :         -76.31098372 Ha       -2076.52751950 eV

  Derived energy quantities:
  | Kinetic energy                :          75.66590791 Ha        2058.97411357 eV
  | Electrostatic energy          :        -143.11271592 Ha       -3894.29513985 eV
  | Energy correction for multipole
  | error in Hartree potential    :           0.00000000 Ha           0.00000000 eV
  | Sum of eigenvalues per atom                           :        -298.28089981 eV
  | Total energy (T->0) per atom                          :        -519.13187988 eV  <-- do not rely on this value for anything but (periodic) metals
  | Electronic free energy per atom                       :        -519.13187988 eV
  Initialize hartree_potential_storage
  Max. number of atoms included in rho_multipole:            4

  End scf initialization - timings             :  max(cpu_time)    wall_clock(cpu1)
  | Time for scf. initialization               :        0.084 s           0.084 s
  | Boundary condition initialization          :        0.000 s           0.000 s
  | Integration                                :        0.043 s           0.043 s
  | Solution of K.-S. eqns.                    :        0.001 s           0.001 s
  | Grid partitioning                          :        0.014 s           0.013 s
  | Preloading free-atom quantities on grid    :        0.001 s           0.001 s
  | Free-atom superposition energy             :        0.012 s           0.012 s
  | Total energy evaluation                    :        0.000 s           0.000 s

  Partial memory accounting:
  | Current value for overall tracked memory usage on task 0  :           0.017 MB
  | Peak value for overall tracked memory usage on task 0     :           0.080 MB after allocating wave
  | Largest tracked array allocation on task 0 so far         :           0.021 MB  when allocating H_times_psi
  Note:  These values currently only include a subset of arrays which are explicitly tracked.
  The "true" memory usage will be greater.
------------------------------------------------------------

------------------------------------------------------------
          Begin self-consistency iteration #    1

  Date     :  20190508, Time     :  170410.560
------------------------------------------------------------
  Evaluating new KS density.
  Integration grid: deviation in total charge (<rho> - N_e) =   2.486900E-14
  Pulay mixing of updated and previous charge densities.

  Evaluating partitioned Hartree potential by multipole expansion.
  | Analytical far-field extrapolation by fixed multipoles:
  | Hartree multipole sum: apparent total charge =   0.499207E-01
  Summing up the Hartree potential.
  Time summed over all CPUs for potential: real work        0.017 s, elapsed        0.017 s
  | RMS charge density error from multipole expansion :   0.541208E-03

  Integrating Hamiltonian matrix: batch-based integration.
  Time summed over all CPUs for integration: real work        0.030 s, elapsed        0.030 s

  Updating Kohn-Sham eigenvalues, eigenvectors, occupation numbers, and Fermi level.
  Solving generalized eigenproblem
  Updating Kohn-Sham eigenvalues and eigenfunctions.
  Solving real generalised eigenvalue problem by standard LAPACK (fast)

  Obtaining occupation numbers and chemical potential using ELSI.
  | Chemical potential (Fermi level):    -6.78027205eV
  Writing Kohn-Sham eigenvalues.

  State    Occupation    Eigenvalue [Ha]    Eigenvalue [eV]
      1       2.00000         -18.903662         -514.39482
      2       2.00000          -1.151199          -31.32571
      3       2.00000          -0.689803          -18.77051
      4       2.00000          -0.689185          -18.75367
      5       2.00000          -0.493707          -13.43445
      6       0.00000          -0.101835           -2.77107
      7       0.00000          -0.004172           -0.11354
      8       0.00000          -0.003601           -0.09800
      9       0.00000           0.202774            5.51776
     10       0.00000           0.254862            6.93516
     11       0.00000           0.255230            6.94516
     12       0.00000           0.417396           11.35793
     13       0.00000           0.668264           18.18438

  Highest occupied state (VBM) at    -13.43445364 eV
  | Occupation number:      2.00000000

  Lowest unoccupied state (CBM) at    -2.77106767 eV
  | Occupation number:      0.00000000

  Overall HOMO-LUMO gap:     10.66338597 eV.

  Total energy components:
  | Sum of eigenvalues            :         -43.85511263 Ha       -1193.35833201 eV
  | XC energy correction          :          -8.86804934 Ha        -241.31190039 eV
  | XC potential correction       :          11.67740091 Ha         317.75824624 eV
  | Free-atom electrostatic energy:         -35.27239561 Ha        -959.81071924 eV
  | Hartree energy correction     :           0.02522169 Ha           0.68631722 eV
  | Entropy correction            :          -0.00000000 Ha          -0.00000000 eV
  | ---------------------------
  | Total energy                  :         -76.29293497 Ha       -2076.03638818 eV
  | Total energy, T -> 0          :         -76.29293497 Ha       -2076.03638818 eV  <-- do not rely on this value for anything but (periodic) metals
  | Electronic free energy        :         -76.29293497 Ha       -2076.03638818 eV

  Derived energy quantities:
  | Kinetic energy                :          75.75917373 Ha        2061.51200574 eV
  | Electrostatic energy          :        -143.18405936 Ha       -3896.23649354 eV
  | Energy correction for multipole
  | error in Hartree potential    :           0.00056966 Ha           0.01550128 eV
  | Sum of eigenvalues per atom                           :        -298.33958300 eV
  | Total energy (T->0) per atom                          :        -519.00909705 eV  <-- do not rely on this value for anything but (periodic) metals
  | Electronic free energy per atom                       :        -519.00909705 eV

  Self-consistency convergence accuracy:
  | Change of charge density      :  0.2700E+00
  | Change of sum of eigenvalues  : -0.2347E+00 eV
  | Change of total energy        :  0.4911E+00 eV

  End self-consistency iteration #     1       :  max(cpu_time)    wall_clock(cpu1)
  | Time for this iteration                    :        0.061 s           0.062 s
  | Charge density update                      :        0.013 s           0.013 s
  | Density mixing                             :        0.000 s           0.001 s
  | Hartree multipole update                   :        0.002 s           0.001 s
  | Hartree multipole summation                :        0.017 s           0.017 s
  | Integration                                :        0.029 s           0.030 s
  | Solution of K.-S. eqns.                    :        0.000 s           0.000 s
  | Total energy evaluation                    :        0.000 s           0.000 s

  Partial memory accounting:
  | Current value for overall tracked memory usage on task 0  :           0.017 MB
  | Peak value for overall tracked memory usage on task 0     :           0.086 MB after allocating wave
  | Largest tracked array allocation on task 0 so far         :           0.021 MB  when allocating H_times_psi
  Note:  These values currently only include a subset of arrays which are explicitly tracked.
  The "true" memory usage will be greater.
------------------------------------------------------------

------------------------------------------------------------
          Begin self-consistency iteration #    2

  Date     :  20190508, Time     :  170410.622
------------------------------------------------------------
  Evaluating new KS density.
  Integration grid: deviation in total charge (<rho> - N_e) =   1.421085E-14
  Pulay mixing of updated and previous charge densities.

  Evaluating partitioned Hartree potential by multipole expansion.
  | Analytical far-field extrapolation by fixed multipoles:
  | Hartree multipole sum: apparent total charge =   0.444786E+00
  Summing up the Hartree potential.
  Time summed over all CPUs for potential: real work        0.016 s, elapsed        0.016 s
  | RMS charge density error from multipole expansion :   0.475945E-02

  Integrating Hamiltonian matrix: batch-based integration.
  Time summed over all CPUs for integration: real work        0.030 s, elapsed        0.030 s

  Updating Kohn-Sham eigenvalues, eigenvectors, occupation numbers, and Fermi level.
  Solving generalized eigenproblem
  Updating Kohn-Sham eigenvalues and eigenfunctions.
  Solving real generalised eigenvalue problem by standard LAPACK (fast)

  Obtaining occupation numbers and chemical potential using ELSI.
  | Chemical potential (Fermi level):    -8.42717244eV
  Highest occupied state (VBM) at    -14.13525004 eV
  | Occupation number:      2.00000000

  Lowest unoccupied state (CBM) at    -4.89877614 eV
  | Occupation number:      0.00000000

  Overall HOMO-LUMO gap:      9.23647390 eV.

  Checking to see if s.c.f. parameters should be adjusted.
  The system likely has a gap. Increased the default Pulay mixing parameter (charge_mix_param). Value:   0.200000 .
  Kept the default occupation width. Value:   0.010000 eV.

  Total energy components:
  | Sum of eigenvalues            :         -44.02759709 Ha       -1198.05187314 eV
  | XC energy correction          :          -8.89770382 Ha        -242.11883970 eV
  | XC potential correction       :          11.71815531 Ha         318.86722964 eV
  | Free-atom electrostatic energy:         -35.27239561 Ha        -959.81071924 eV
  | Hartree energy correction     :           0.27521316 Ha           7.48893112 eV
  | Entropy correction            :          -0.00000000 Ha          -0.00000000 eV
  | ---------------------------
  | Total energy                  :         -76.20432806 Ha       -2073.62527133 eV
  | Total energy, T -> 0          :         -76.20432806 Ha       -2073.62527133 eV  <-- do not rely on this value for anything but (periodic) metals
  | Electronic free energy        :         -76.20432806 Ha       -2073.62527133 eV

  Derived energy quantities:
  | Kinetic energy                :          76.32969472 Ha        2077.03667186 eV
  | Electrostatic energy          :        -143.63631896 Ha       -3908.54310349 eV
  | Energy correction for multipole
  | error in Hartree potential    :           0.00476990 Ha           0.12979571 eV
  | Sum of eigenvalues per atom                           :        -299.51296829 eV
  | Total energy (T->0) per atom                          :        -518.40631783 eV  <-- do not rely on this value for anything but (periodic) metals
  | Electronic free energy per atom                       :        -518.40631783 eV

  Self-consistency convergence accuracy:
  | Change of charge density      :  0.2441E+00
  | Change of sum of eigenvalues  : -0.4694E+01 eV
  | Change of total energy        :  0.2411E+01 eV

  End self-consistency iteration #     2       :  max(cpu_time)    wall_clock(cpu1)
  | Time for this iteration                    :        0.059 s           0.059 s
  | Charge density update                      :        0.011 s           0.011 s
  | Density mixing                             :        0.000 s           0.000 s
  | Hartree multipole update                   :        0.001 s           0.002 s
  | Hartree multipole summation                :        0.016 s           0.016 s
  | Integration                                :        0.029 s           0.030 s
  | Solution of K.-S. eqns.                    :        0.000 s           0.000 s
  | Total energy evaluation                    :        0.000 s           0.000 s

  Partial memory accounting:
  | Current value for overall tracked memory usage on task 0  :           0.018 MB
  | Peak value for overall tracked memory usage on task 0     :           0.087 MB after allocating wave
  | Largest tracked array allocation on task 0 so far         :           0.021 MB  when allocating H_times_psi
  Note:  These values currently only include a subset of arrays which are explicitly tracked.
  The "true" memory usage will be greater.
------------------------------------------------------------

------------------------------------------------------------
          Begin self-consistency iteration #    3

  Date     :  20190508, Time     :  170410.681
------------------------------------------------------------
  Evaluating new KS density.
  Integration grid: deviation in total charge (<rho> - N_e) =  -3.907985E-14
  Pulay mixing of updated and previous charge densities.

  Evaluating partitioned Hartree potential by multipole expansion.
  | Analytical far-field extrapolation by fixed multipoles:
  | Hartree multipole sum: apparent total charge =   0.845705E+00
  Summing up the Hartree potential.
  Time summed over all CPUs for potential: real work        0.017 s, elapsed        0.017 s
  | RMS charge density error from multipole expansion :   0.868066E-02

  Integrating Hamiltonian matrix: batch-based integration.
  Time summed over all CPUs for integration: real work        0.029 s, elapsed        0.029 s

  Updating Kohn-Sham eigenvalues, eigenvectors, occupation numbers, and Fermi level.
  Solving generalized eigenproblem
  Updating Kohn-Sham eigenvalues and eigenfunctions.
  Solving real generalised eigenvalue problem by standard LAPACK (fast)

  Obtaining occupation numbers and chemical potential using ELSI.
  | Chemical potential (Fermi level):   -11.27137423eV
  Highest occupied state (VBM) at    -17.60101256 eV
  | Occupation number:      2.00000000

  Lowest unoccupied state (CBM) at    -7.50801687 eV
  | Occupation number:      0.00000000

  Overall HOMO-LUMO gap:     10.09299569 eV.

  Total energy components:
  | Sum of eigenvalues            :         -45.40185292 Ha       -1235.44727684 eV
  | XC energy correction          :          -8.79958310 Ha        -239.44883931 eV
  | XC potential correction       :          11.58991343 Ha         315.37759064 eV
  | Free-atom electrostatic energy:         -35.27239561 Ha        -959.81071924 eV
  | Hartree energy correction     :           1.70997529 Ha          46.53079502 eV
  | Entropy correction            :          -0.00000000 Ha          -0.00000000 eV
  | ---------------------------
  | Total energy                  :         -76.17394292 Ha       -2072.79844974 eV
  | Total energy, T -> 0          :         -76.17394292 Ha       -2072.79844974 eV  <-- do not rely on this value for anything but (periodic) metals
  | Electronic free energy        :         -76.17394292 Ha       -2072.79844974 eV

  Derived energy quantities:
  | Kinetic energy                :          75.80728070 Ha        2062.82106302 eV
  | Electrostatic energy          :        -143.18164052 Ha       -3896.17067346 eV
  | Energy correction for multipole
  | error in Hartree potential    :           0.00601432 Ha           0.16365792 eV
  | Sum of eigenvalues per atom                           :        -308.86181921 eV
  | Total energy (T->0) per atom                          :        -518.19961243 eV  <-- do not rely on this value for anything but (periodic) metals
  | Electronic free energy per atom                       :        -518.19961243 eV

  Self-consistency convergence accuracy:
  | Change of charge density      :  0.1100E+00
  | Change of sum of eigenvalues  : -0.3740E+02 eV
  | Change of total energy        :  0.8268E+00 eV

  End self-consistency iteration #     3       :  max(cpu_time)    wall_clock(cpu1)
  | Time for this iteration                    :        0.059 s           0.059 s
  | Charge density update                      :        0.011 s           0.012 s
  | Density mixing                             :        0.000 s           0.000 s
  | Hartree multipole update                   :        0.001 s           0.001 s
  | Hartree multipole summation                :        0.017 s           0.017 s
  | Integration                                :        0.029 s           0.029 s
  | Solution of K.-S. eqns.                    :        0.000 s           0.000 s
  | Total energy evaluation                    :        0.000 s           0.000 s

  Partial memory accounting:
  | Current value for overall tracked memory usage on task 0  :           0.018 MB
  | Peak value for overall tracked memory usage on task 0     :           0.088 MB after allocating wave
  | Largest tracked array allocation on task 0 so far         :           0.021 MB  when allocating H_times_psi
  Note:  These values currently only include a subset of arrays which are explicitly tracked.
  The "true" memory usage will be greater.
------------------------------------------------------------

------------------------------------------------------------
          Begin self-consistency iteration #    4

  Date     :  20190508, Time     :  170410.740
------------------------------------------------------------
  Evaluating new KS density.
  Integration grid: deviation in total charge (<rho> - N_e) =   1.776357E-14
  Pulay mixing of updated and previous charge densities.

  Evaluating partitioned Hartree potential by multipole expansion.
  | Analytical far-field extrapolation by fixed multipoles:
  | Hartree multipole sum: apparent total charge =   0.101145E+01
  Summing up the Hartree potential.
  Time summed over all CPUs for potential: real work        0.017 s, elapsed        0.017 s
  | RMS charge density error from multipole expansion :   0.104035E-01

  Integrating Hamiltonian matrix: batch-based integration.
  Time summed over all CPUs for integration: real work        0.029 s, elapsed        0.029 s

  Updating Kohn-Sham eigenvalues, eigenvectors, occupation numbers, and Fermi level.
  Solving generalized eigenproblem
  Updating Kohn-Sham eigenvalues and eigenfunctions.
  Solving real generalised eigenvalue problem by standard LAPACK (fast)

  Obtaining occupation numbers and chemical potential using ELSI.
  | Chemical potential (Fermi level):   -11.99269336eV
  Highest occupied state (VBM) at    -18.41319020 eV
  | Occupation number:      2.00000000

  Lowest unoccupied state (CBM) at    -8.31234899 eV
  | Occupation number:      0.00000000

  Overall HOMO-LUMO gap:     10.10084121 eV.

  Total energy components:
  | Sum of eigenvalues            :         -45.70154269 Ha       -1243.60225038 eV
  | XC energy correction          :          -8.79610236 Ha        -239.35412341 eV
  | XC potential correction       :          11.58582251 Ha         315.26627102 eV
  | Free-atom electrostatic energy:         -35.27239561 Ha        -959.81071924 eV
  | Hartree energy correction     :           2.01292637 Ha          54.77451341 eV
  | Entropy correction            :          -0.00000000 Ha          -0.00000000 eV
  | ---------------------------
  | Total energy                  :         -76.17129178 Ha       -2072.72630860 eV
  | Total energy, T -> 0          :         -76.17129178 Ha       -2072.72630860 eV  <-- do not rely on this value for anything but (periodic) metals
  | Electronic free energy        :         -76.17129178 Ha       -2072.72630860 eV

  Derived energy quantities:
  | Kinetic energy                :          75.78452961 Ha        2062.20197443 eV
  | Electrostatic energy          :        -143.15971904 Ha       -3895.57415962 eV
  | Energy correction for multipole
  | error in Hartree potential    :           0.00708578 Ha           0.19281375 eV
  | Sum of eigenvalues per atom                           :        -310.90056259 eV
  | Total energy (T->0) per atom                          :        -518.18157715 eV  <-- do not rely on this value for anything but (periodic) metals
  | Electronic free energy per atom                       :        -518.18157715 eV

  Self-consistency convergence accuracy:
  | Change of charge density      :  0.5020E-01
  | Change of sum of eigenvalues  : -0.8155E+01 eV
  | Change of total energy        :  0.7214E-01 eV

  End self-consistency iteration #     4       :  max(cpu_time)    wall_clock(cpu1)
  | Time for this iteration                    :        0.059 s           0.059 s
  | Charge density update                      :        0.011 s           0.012 s
  | Density mixing                             :        0.000 s           0.000 s
  | Hartree multipole update                   :        0.001 s           0.001 s
  | Hartree multipole summation                :        0.017 s           0.017 s
  | Integration                                :        0.029 s           0.029 s
  | Solution of K.-S. eqns.                    :        0.000 s           0.000 s
  | Total energy evaluation                    :        0.000 s           0.000 s

  Partial memory accounting:
  | Current value for overall tracked memory usage on task 0  :           0.019 MB
  | Peak value for overall tracked memory usage on task 0     :           0.088 MB after allocating wave
  | Largest tracked array allocation on task 0 so far         :           0.021 MB  when allocating H_times_psi
  Note:  These values currently only include a subset of arrays which are explicitly tracked.
  The "true" memory usage will be greater.
------------------------------------------------------------

------------------------------------------------------------
          Begin self-consistency iteration #    5

  Date     :  20190508, Time     :  170410.799
------------------------------------------------------------
  Evaluating new KS density.
  Integration grid: deviation in total charge (<rho> - N_e) =   1.065814E-14
  Pulay mixing of updated and previous charge densities.

  Evaluating partitioned Hartree potential by multipole expansion.
  | Analytical far-field extrapolation by fixed multipoles:
  | Hartree multipole sum: apparent total charge =   0.100807E+01
  Summing up the Hartree potential.
  Time summed over all CPUs for potential: real work        0.016 s, elapsed        0.016 s
  | RMS charge density error from multipole expansion :   0.104462E-01

  Integrating Hamiltonian matrix: batch-based integration.
  Time summed over all CPUs for integration: real work        0.028 s, elapsed        0.028 s

  Updating Kohn-Sham eigenvalues, eigenvectors, occupation numbers, and Fermi level.
  Solving generalized eigenproblem
  Updating Kohn-Sham eigenvalues and eigenfunctions.
  Solving real generalised eigenvalue problem by standard LAPACK (fast)

  Obtaining occupation numbers and chemical potential using ELSI.
  | Chemical potential (Fermi level):   -11.78998397eV
  Highest occupied state (VBM) at    -18.11560823 eV
  | Occupation number:      2.00000000

  Lowest unoccupied state (CBM) at    -8.16161149 eV
  | Occupation number:      0.00000000

  Overall HOMO-LUMO gap:      9.95399674 eV.

  Total energy components:
  | Sum of eigenvalues            :         -45.58233891 Ha       -1240.35855049 eV
  | XC energy correction          :          -8.81153452 Ha        -239.77405386 eV
  | XC potential correction       :          11.60613513 Ha         315.81900561 eV
  | Free-atom electrostatic energy:         -35.27239561 Ha        -959.81071924 eV
  | Hartree energy correction     :           1.88896685 Ha          51.40140313 eV
  | Entropy correction            :          -0.00000000 Ha          -0.00000000 eV
  | ---------------------------
  | Total energy                  :         -76.17116707 Ha       -2072.72291485 eV
  | Total energy, T -> 0          :         -76.17116707 Ha       -2072.72291485 eV  <-- do not rely on this value for anything but (periodic) metals
  | Electronic free energy        :         -76.17116707 Ha       -2072.72291485 eV

  Derived energy quantities:
  | Kinetic energy                :          75.84111272 Ha        2063.74167924 eV
  | Electrostatic energy          :        -143.20074527 Ha       -3896.69054023 eV
  | Energy correction for multipole
  | error in Hartree potential    :           0.00695042 Ha           0.18913063 eV
  | Sum of eigenvalues per atom                           :        -310.08963762 eV
  | Total energy (T->0) per atom                          :        -518.18072871 eV  <-- do not rely on this value for anything but (periodic) metals
  | Electronic free energy per atom                       :        -518.18072871 eV

  Self-consistency convergence accuracy:
  | Change of charge density      :  0.1082E-01
  | Change of sum of eigenvalues  :  0.3244E+01 eV
  | Change of total energy        :  0.3394E-02 eV

  End self-consistency iteration #     5       :  max(cpu_time)    wall_clock(cpu1)
  | Time for this iteration                    :        0.059 s           0.059 s
  | Charge density update                      :        0.011 s           0.012 s
  | Density mixing                             :        0.001 s           0.000 s
  | Hartree multipole update                   :        0.001 s           0.002 s
  | Hartree multipole summation                :        0.017 s           0.016 s
  | Integration                                :        0.028 s           0.028 s
  | Solution of K.-S. eqns.                    :        0.000 s           0.001 s
  | Total energy evaluation                    :        0.000 s           0.000 s

  Partial memory accounting:
  | Current value for overall tracked memory usage on task 0  :           0.019 MB
  | Peak value for overall tracked memory usage on task 0     :           0.088 MB after allocating wave
  | Largest tracked array allocation on task 0 so far         :           0.021 MB  when allocating H_times_psi
  Note:  These values currently only include a subset of arrays which are explicitly tracked.
  The "true" memory usage will be greater.
------------------------------------------------------------

------------------------------------------------------------
          Begin self-consistency iteration #    6

  Date     :  20190508, Time     :  170410.858
------------------------------------------------------------
  Evaluating new KS density.
  Integration grid: deviation in total charge (<rho> - N_e) =  -3.552714E-14
  Pulay mixing of updated and previous charge densities.

  Evaluating partitioned Hartree potential by multipole expansion.
  | Analytical far-field extrapolation by fixed multipoles:
  | Hartree multipole sum: apparent total charge =   0.998800E+00
  Summing up the Hartree potential.
  Time summed over all CPUs for potential: real work        0.017 s, elapsed        0.017 s
  | RMS charge density error from multipole expansion :   0.103594E-01

  Integrating Hamiltonian matrix: batch-based integration.
  Time summed over all CPUs for integration: real work        0.028 s, elapsed        0.028 s

  Updating Kohn-Sham eigenvalues, eigenvectors, occupation numbers, and Fermi level.
  Solving generalized eigenproblem
  Updating Kohn-Sham eigenvalues and eigenfunctions.
  Solving real generalised eigenvalue problem by standard LAPACK (fast)

  Obtaining occupation numbers and chemical potential using ELSI.
  | Chemical potential (Fermi level):   -11.79083678eV
  Highest occupied state (VBM) at    -18.11214975 eV
  | Occupation number:      2.00000000

  Lowest unoccupied state (CBM) at    -8.13092452 eV
  | Occupation number:      0.00000000

  Overall HOMO-LUMO gap:      9.98122523 eV.

  Total energy components:
  | Sum of eigenvalues            :         -45.58553722 Ha       -1240.44558102 eV
  | XC energy correction          :          -8.80936955 Ha        -239.71514210 eV
  | XC potential correction       :          11.60323787 Ha         315.74016714 eV
  | Free-atom electrostatic energy:         -35.27239561 Ha        -959.81071924 eV
  | Hartree energy correction     :           1.89293175 Ha          51.50929366 eV
  | Entropy correction            :          -0.00000000 Ha          -0.00000000 eV
  | ---------------------------
  | Total energy                  :         -76.17113277 Ha       -2072.72198156 eV
  | Total energy, T -> 0          :         -76.17113277 Ha       -2072.72198156 eV  <-- do not rely on this value for anything but (periodic) metals
  | Electronic free energy        :         -76.17113277 Ha       -2072.72198156 eV

  Derived energy quantities:
  | Kinetic energy                :          75.81978297 Ha        2063.16126700 eV
  | Electrostatic energy          :        -143.18154618 Ha       -3896.16810646 eV
  | Energy correction for multipole
  | error in Hartree potential    :           0.00676832 Ha           0.18417522 eV
  | Sum of eigenvalues per atom                           :        -310.11139525 eV
  | Total energy (T->0) per atom                          :        -518.18049539 eV  <-- do not rely on this value for anything but (periodic) metals
  | Electronic free energy per atom                       :        -518.18049539 eV

  Self-consistency convergence accuracy:
  | Change of charge density      :  0.7524E-02
  | Change of sum of eigenvalues  : -0.8703E-01 eV
  | Change of total energy        :  0.9333E-03 eV

  End self-consistency iteration #     6       :  max(cpu_time)    wall_clock(cpu1)
  | Time for this iteration                    :        0.059 s           0.059 s
  | Charge density update                      :        0.011 s           0.011 s
  | Density mixing                             :        0.001 s           0.001 s
  | Hartree multipole update                   :        0.001 s           0.001 s
  | Hartree multipole summation                :        0.017 s           0.017 s
  | Integration                                :        0.029 s           0.028 s
  | Solution of K.-S. eqns.                    :        0.000 s           0.001 s
  | Total energy evaluation                    :        0.000 s           0.000 s

  Partial memory accounting:
  | Current value for overall tracked memory usage on task 0  :           0.019 MB
  | Peak value for overall tracked memory usage on task 0     :           0.089 MB after allocating wave
  | Largest tracked array allocation on task 0 so far         :           0.021 MB  when allocating H_times_psi
  Note:  These values currently only include a subset of arrays which are explicitly tracked.
  The "true" memory usage will be greater.
------------------------------------------------------------

------------------------------------------------------------
          Begin self-consistency iteration #    7

  Date     :  20190508, Time     :  170410.917
------------------------------------------------------------
  Evaluating new KS density.
  Integration grid: deviation in total charge (<rho> - N_e) =  -1.953993E-14
  Pulay mixing of updated and previous charge densities.

  Evaluating partitioned Hartree potential by multipole expansion.
  | Analytical far-field extrapolation by fixed multipoles:
  | Hartree multipole sum: apparent total charge =   0.999246E+00
  Summing up the Hartree potential.
  Time summed over all CPUs for potential: real work        0.016 s, elapsed        0.016 s
  | RMS charge density error from multipole expansion :   0.103524E-01

  Integrating Hamiltonian matrix: batch-based integration.
  Time summed over all CPUs for integration: real work        0.029 s, elapsed        0.029 s

  Updating Kohn-Sham eigenvalues, eigenvectors, occupation numbers, and Fermi level.
  Solving generalized eigenproblem
  Updating Kohn-Sham eigenvalues and eigenfunctions.
  Solving real generalised eigenvalue problem by standard LAPACK (fast)

  Obtaining occupation numbers and chemical potential using ELSI.
  | Chemical potential (Fermi level):   -11.79133422eV
  Highest occupied state (VBM) at    -18.11345022 eV
  | Occupation number:      2.00000000

  Lowest unoccupied state (CBM) at    -8.13096867 eV
  | Occupation number:      0.00000000

  Overall HOMO-LUMO gap:      9.98248155 eV.

  Total energy components:
  | Sum of eigenvalues            :         -45.58718423 Ha       -1240.49039840 eV
  | XC energy correction          :          -8.80921453 Ha        -239.71092374 eV
  | XC potential correction       :          11.60303178 Ha         315.73455920 eV
  | Free-atom electrostatic energy:         -35.27239561 Ha        -959.81071924 eV
  | Hartree energy correction     :           1.89463093 Ha          51.55553080 eV
  | Entropy correction            :          -0.00000000 Ha          -0.00000000 eV
  | ---------------------------
  | Total energy                  :         -76.17113166 Ha       -2072.72195139 eV
  | Total energy, T -> 0          :         -76.17113166 Ha       -2072.72195139 eV  <-- do not rely on this value for anything but (periodic) metals
  | Electronic free energy        :         -76.17113166 Ha       -2072.72195139 eV

  Derived energy quantities:
  | Kinetic energy                :          75.81639644 Ha        2063.06911498 eV
  | Electrostatic energy          :        -143.17831357 Ha       -3896.08014263 eV
  | Energy correction for multipole
  | error in Hartree potential    :           0.00671642 Ha           0.18276313 eV
  | Sum of eigenvalues per atom                           :        -310.12259960 eV
  | Total energy (T->0) per atom                          :        -518.18048785 eV  <-- do not rely on this value for anything but (periodic) metals
  | Electronic free energy per atom                       :        -518.18048785 eV

  Self-consistency convergence accuracy:
  | Change of charge density      :  0.9630E-03
  | Change of sum of eigenvalues  : -0.4482E-01 eV
  | Change of total energy        :  0.3016E-04 eV

  End self-consistency iteration #     7       :  max(cpu_time)    wall_clock(cpu1)
  | Time for this iteration                    :        0.059 s           0.059 s
  | Charge density update                      :        0.011 s           0.011 s
  | Density mixing                             :        0.001 s           0.001 s
  | Hartree multipole update                   :        0.001 s           0.002 s
  | Hartree multipole summation                :        0.017 s           0.016 s
  | Integration                                :        0.029 s           0.029 s
  | Solution of K.-S. eqns.                    :        0.000 s           0.000 s
  | Total energy evaluation                    :        0.000 s           0.000 s

  Partial memory accounting:
  | Current value for overall tracked memory usage on task 0  :           0.019 MB
  | Peak value for overall tracked memory usage on task 0     :           0.089 MB after allocating wave
  | Largest tracked array allocation on task 0 so far         :           0.021 MB  when allocating H_times_psi
  Note:  These values currently only include a subset of arrays which are explicitly tracked.
  The "true" memory usage will be greater.
------------------------------------------------------------

------------------------------------------------------------
          Begin self-consistency iteration #    8

  Date     :  20190508, Time     :  170410.976
------------------------------------------------------------
  Evaluating new KS density.
  Integration grid: deviation in total charge (<rho> - N_e) =   4.263256E-14
  Pulay mixing of updated and previous charge densities.

  Evaluating partitioned Hartree potential by multipole expansion.
  | Analytical far-field extrapolation by fixed multipoles:
  | Hartree multipole sum: apparent total charge =   0.999483E+00
  Summing up the Hartree potential.
  Time summed over all CPUs for potential: real work        0.017 s, elapsed        0.017 s
  | RMS charge density error from multipole expansion :   0.103559E-01

  Integrating Hamiltonian matrix: batch-based integration.
  Time summed over all CPUs for integration: real work        0.029 s, elapsed        0.029 s

  Updating Kohn-Sham eigenvalues, eigenvectors, occupation numbers, and Fermi level.
  Solving generalized eigenproblem
  Updating Kohn-Sham eigenvalues and eigenfunctions.
  Solving real generalised eigenvalue problem by standard LAPACK (fast)

  Obtaining occupation numbers and chemical potential using ELSI.
  | Chemical potential (Fermi level):   -11.78379677eV
  Highest occupied state (VBM) at    -18.10294081 eV
  | Occupation number:      2.00000000

  Lowest unoccupied state (CBM) at    -8.12548649 eV
  | Occupation number:      0.00000000

  Overall HOMO-LUMO gap:      9.97745432 eV.

  Total energy components:
  | Sum of eigenvalues            :         -45.58329317 Ha       -1240.38451728 eV
  | XC energy correction          :          -8.80980346 Ha        -239.72694931 eV
  | XC potential correction       :          11.60380673 Ha         315.75564663 eV
  | Free-atom electrostatic energy:         -35.27239561 Ha        -959.81071924 eV
  | Hartree energy correction     :           1.89055425 Ha          51.44459857 eV
  | Entropy correction            :          -0.00000000 Ha          -0.00000000 eV
  | ---------------------------
  | Total energy                  :         -76.17113126 Ha       -2072.72194064 eV
  | Total energy, T -> 0          :         -76.17113126 Ha       -2072.72194064 eV  <-- do not rely on this value for anything but (periodic) metals
  | Electronic free energy        :         -76.17113126 Ha       -2072.72194064 eV

  Derived energy quantities:
  | Kinetic energy                :          75.81746851 Ha        2063.09828757 eV
  | Electrostatic energy          :        -143.17879632 Ha       -3896.09327889 eV
  | Energy correction for multipole
  | error in Hartree potential    :           0.00669616 Ha           0.18221177 eV
  | Sum of eigenvalues per atom                           :        -310.09612932 eV
  | Total energy (T->0) per atom                          :        -518.18048516 eV  <-- do not rely on this value for anything but (periodic) metals
  | Electronic free energy per atom                       :        -518.18048516 eV

  Self-consistency convergence accuracy:
  | Change of charge density      :  0.7214E-03
  | Change of sum of eigenvalues  :  0.1059E+00 eV
  | Change of total energy        :  0.1076E-04 eV

  End self-consistency iteration #     8       :  max(cpu_time)    wall_clock(cpu1)
  | Time for this iteration                    :        0.060 s           0.060 s
  | Charge density update                      :        0.011 s           0.012 s
  | Density mixing                             :        0.001 s           0.001 s
  | Hartree multipole update                   :        0.001 s           0.001 s
  | Hartree multipole summation                :        0.017 s           0.017 s
  | Integration                                :        0.028 s           0.029 s
  | Solution of K.-S. eqns.                    :        0.000 s           0.000 s
  | Total energy evaluation                    :        0.000 s           0.000 s

  Partial memory accounting:
  | Current value for overall tracked memory usage on task 0  :           0.020 MB
  | Peak value for overall tracked memory usage on task 0     :           0.089 MB after allocating wave
  | Largest tracked array allocation on task 0 so far         :           0.021 MB  when allocating H_times_psi
  Note:  These values currently only include a subset of arrays which are explicitly tracked.
  The "true" memory usage will be greater.
------------------------------------------------------------

------------------------------------------------------------
          Begin self-consistency iteration #    9

  Date     :  20190508, Time     :  170411.036
------------------------------------------------------------
  Evaluating new KS density.
  Integration grid: deviation in total charge (<rho> - N_e) =   3.552714E-15
  Pulay mixing of updated and previous charge densities.

  Evaluating partitioned Hartree potential by multipole expansion.
  | Analytical far-field extrapolation by fixed multipoles:
  | Hartree multipole sum: apparent total charge =   0.999548E+00
  Summing up the Hartree potential.
  Time summed over all CPUs for potential: real work        0.016 s, elapsed        0.016 s
  | RMS charge density error from multipole expansion :   0.103569E-01

  Integrating Hamiltonian matrix: batch-based integration.
  Time summed over all CPUs for integration: real work        0.030 s, elapsed        0.030 s

  Updating Kohn-Sham eigenvalues, eigenvectors, occupation numbers, and Fermi level.
  Solving generalized eigenproblem
  Updating Kohn-Sham eigenvalues and eigenfunctions.
  Solving real generalised eigenvalue problem by standard LAPACK (fast)

  Obtaining occupation numbers and chemical potential using ELSI.
  | Chemical potential (Fermi level):   -11.78299856eV
  Highest occupied state (VBM) at    -18.10204205 eV
  | Occupation number:      2.00000000

  Lowest unoccupied state (CBM) at    -8.12495452 eV
  | Occupation number:      0.00000000

  Overall HOMO-LUMO gap:      9.97708754 eV.

  Total energy components:
  | Sum of eigenvalues            :         -45.58299585 Ha       -1240.37642663 eV
  | XC energy correction          :          -8.80986143 Ha        -239.72852674 eV
  | XC potential correction       :          11.60388299 Ha         315.75772160 eV
  | Free-atom electrostatic energy:         -35.27239561 Ha        -959.81071924 eV
  | Hartree energy correction     :           1.89023867 Ha          51.43601124 eV
  | Entropy correction            :          -0.00000000 Ha          -0.00000000 eV
  | ---------------------------
  | Total energy                  :         -76.17113123 Ha       -2072.72193977 eV
  | Total energy, T -> 0          :         -76.17113123 Ha       -2072.72193977 eV  <-- do not rely on this value for anything but (periodic) metals
  | Electronic free energy        :         -76.17113123 Ha       -2072.72193977 eV

  Derived energy quantities:
  | Kinetic energy                :          75.81749176 Ha        2063.09892015 eV
  | Electrostatic energy          :        -143.17876157 Ha       -3896.09233318 eV
  | Energy correction for multipole
  | error in Hartree potential    :           0.00669302 Ha           0.18212630 eV
  | Sum of eigenvalues per atom                           :        -310.09410666 eV
  | Total energy (T->0) per atom                          :        -518.18048494 eV  <-- do not rely on this value for anything but (periodic) metals
  | Electronic free energy per atom                       :        -518.18048494 eV

  Self-consistency convergence accuracy:
  | Change of charge density      :  0.7977E-04
  | Change of sum of eigenvalues  :  0.8091E-02 eV
  | Change of total energy        :  0.8681E-06 eV

  End self-consistency iteration #     9       :  max(cpu_time)    wall_clock(cpu1)
  | Time for this iteration                    :        0.060 s           0.060 s
  | Charge density update                      :        0.011 s           0.011 s
  | Density mixing                             :        0.001 s           0.001 s
  | Hartree multipole update                   :        0.001 s           0.002 s
  | Hartree multipole summation                :        0.017 s           0.016 s
  | Integration                                :        0.029 s           0.030 s
  | Solution of K.-S. eqns.                    :        0.000 s           0.000 s
  | Total energy evaluation                    :        0.000 s           0.000 s

  Partial memory accounting:
  | Current value for overall tracked memory usage on task 0  :           0.020 MB
  | Peak value for overall tracked memory usage on task 0     :           0.089 MB after allocating wave
  | Largest tracked array allocation on task 0 so far         :           0.021 MB  when allocating H_times_psi
  Note:  These values currently only include a subset of arrays which are explicitly tracked.
  The "true" memory usage will be greater.
------------------------------------------------------------

------------------------------------------------------------
          Begin self-consistency iteration #   10

  Date     :  20190508, Time     :  170411.096
------------------------------------------------------------
  Evaluating new KS density.
  Integration grid: deviation in total charge (<rho> - N_e) =   1.776357E-14
  Pulay mixing of updated and previous charge densities.

  Evaluating partitioned Hartree potential by multipole expansion.
  | Analytical far-field extrapolation by fixed multipoles:
  | Hartree multipole sum: apparent total charge =   0.999553E+00
  Summing up the Hartree potential.
  Time summed over all CPUs for potential: real work        0.018 s, elapsed        0.018 s
  | RMS charge density error from multipole expansion :   0.103570E-01

  Integrating Hamiltonian matrix: batch-based integration.
  Time summed over all CPUs for integration: real work        0.029 s, elapsed        0.029 s

  Updating Kohn-Sham eigenvalues, eigenvectors, occupation numbers, and Fermi level.
  Solving generalized eigenproblem
  Updating Kohn-Sham eigenvalues and eigenfunctions.
  Solving real generalised eigenvalue problem by standard LAPACK (fast)

  Obtaining occupation numbers and chemical potential using ELSI.
  | Chemical potential (Fermi level):   -11.78296774eV
  Highest occupied state (VBM) at    -18.10206322 eV
  | Occupation number:      2.00000000

  Lowest unoccupied state (CBM) at    -8.12491967 eV
  | Occupation number:      0.00000000

  Overall HOMO-LUMO gap:      9.97714355 eV.

  Total energy components:
  | Sum of eigenvalues            :         -45.58301664 Ha       -1240.37699246 eV
  | XC energy correction          :          -8.80986089 Ha        -239.72851194 eV
  | XC potential correction       :          11.60388222 Ha         315.75770080 eV
  | Free-atom electrostatic energy:         -35.27239561 Ha        -959.81071924 eV
  | Hartree energy correction     :           1.89025969 Ha          51.43658323 eV
  | Entropy correction            :          -0.00000000 Ha          -0.00000000 eV
  | ---------------------------
  | Total energy                  :         -76.17113123 Ha       -2072.72193960 eV
  | Total energy, T -> 0          :         -76.17113123 Ha       -2072.72193960 eV  <-- do not rely on this value for anything but (periodic) metals
  | Electronic free energy        :         -76.17113123 Ha       -2072.72193960 eV

  Derived energy quantities:
  | Kinetic energy                :          75.81744979 Ha        2063.09777804 eV
  | Electrostatic energy          :        -143.17872013 Ha       -3896.09120571 eV
  | Energy correction for multipole
  | error in Hartree potential    :           0.00669252 Ha           0.18211278 eV
  | Sum of eigenvalues per atom                           :        -310.09424811 eV
  | Total energy (T->0) per atom                          :        -518.18048490 eV  <-- do not rely on this value for anything but (periodic) metals
  | Electronic free energy per atom                       :        -518.18048490 eV

  Self-consistency convergence accuracy:
  | Change of charge density      :  0.9151E-05
  | Change of sum of eigenvalues  : -0.5658E-03 eV
  | Change of total energy        :  0.1643E-06 eV

  End self-consistency iteration #    10       :  max(cpu_time)    wall_clock(cpu1)
  | Time for this iteration                    :        0.061 s           0.061 s
  | Charge density update                      :        0.012 s           0.012 s
  | Density mixing                             :        0.001 s           0.001 s
  | Hartree multipole update                   :        0.001 s           0.001 s
  | Hartree multipole summation                :        0.018 s           0.018 s
  | Integration                                :        0.029 s           0.029 s
  | Solution of K.-S. eqns.                    :        0.000 s           0.000 s
  | Total energy evaluation                    :        0.000 s           0.000 s

  Partial memory accounting:
  | Current value for overall tracked memory usage on task 0  :           0.020 MB
  | Peak value for overall tracked memory usage on task 0     :           0.089 MB after allocating wave
  | Largest tracked array allocation on task 0 so far         :           0.021 MB  when allocating H_times_psi
  Note:  These values currently only include a subset of arrays which are explicitly tracked.
  The "true" memory usage will be greater.
------------------------------------------------------------

------------------------------------------------------------
          Begin self-consistency iteration #   11

  Date     :  20190508, Time     :  170411.157
------------------------------------------------------------
  Evaluating new KS density.
  Integration grid: deviation in total charge (<rho> - N_e) =   7.105427E-15
  Pulay mixing of updated and previous charge densities.

  Evaluating partitioned Hartree potential by multipole expansion.
  | Analytical far-field extrapolation by fixed multipoles:
  | Hartree multipole sum: apparent total charge =   0.999557E+00
  Summing up the Hartree potential.
  Time summed over all CPUs for potential: real work        0.018 s, elapsed        0.018 s
  | RMS charge density error from multipole expansion :   0.103571E-01

  Integrating Hamiltonian matrix: batch-based integration.
  Time summed over all CPUs for integration: real work        0.029 s, elapsed        0.030 s

  Updating Kohn-Sham eigenvalues, eigenvectors, occupation numbers, and Fermi level.
  Solving generalized eigenproblem
  Updating Kohn-Sham eigenvalues and eigenfunctions.
  Solving real generalised eigenvalue problem by standard LAPACK (fast)

  Obtaining occupation numbers and chemical potential using ELSI.
  | Chemical potential (Fermi level):   -11.78291615eV
  Highest occupied state (VBM) at    -18.10198058 eV
  | Occupation number:      2.00000000

  Lowest unoccupied state (CBM) at    -8.12489207 eV
  | Occupation number:      0.00000000

  Overall HOMO-LUMO gap:      9.97708851 eV.

  Total energy components:
  | Sum of eigenvalues            :         -45.58298185 Ha       -1240.37604583 eV
  | XC energy correction          :          -8.80986634 Ha        -239.72866027 eV
  | XC potential correction       :          11.60388942 Ha         315.75789665 eV
  | Free-atom electrostatic energy:         -35.27239561 Ha        -959.81071924 eV
  | Hartree energy correction     :           1.89022315 Ha          51.43558904 eV
  | Entropy correction            :          -0.00000000 Ha          -0.00000000 eV
  | ---------------------------
[...]
  | Largest tracked array allocation on task 0 so far         :           0.021 MB  when allocating H_times_psi
  Note:  These values currently only include a subset of arrays which are explicitly tracked.
  The "true" memory usage will be greater.
------------------------------------------------------------

------------------------------------------------------------
          Begin self-consistency iteration #   12

  Date     :  20190508, Time     :  170411.219
------------------------------------------------------------
  Evaluating new KS density.
  Integration grid: deviation in total charge (<rho> - N_e) =   3.907985E-14
  Pulay mixing of updated and previous charge densities.

  Evaluating partitioned Hartree potential by multipole expansion.
  | Analytical far-field extrapolation by fixed multipoles:
  | Hartree multipole sum: apparent total charge =   0.999557E+00
  Summing up the Hartree potential.
  Time summed over all CPUs for potential: real work        0.017 s, elapsed        0.017 s
  | RMS charge density error from multipole expansion :   0.103571E-01

  Integrating Hamiltonian matrix: batch-based integration.
  Time summed over all CPUs for integration: real work        0.029 s, elapsed        0.029 s

  Updating Kohn-Sham eigenvalues, eigenvectors, occupation numbers, and Fermi level.
  Solving generalized eigenproblem
  Updating Kohn-Sham eigenvalues and eigenfunctions.
  Solving real generalised eigenvalue problem by standard LAPACK (fast)

  Obtaining occupation numbers and chemical potential using ELSI.
  | Chemical potential (Fermi level):   -11.78291268eV
  Highest occupied state (VBM) at    -18.10197623 eV
  | Occupation number:      2.00000000

  Lowest unoccupied state (CBM) at    -8.12489033 eV
  | Occupation number:      0.00000000

  Overall HOMO-LUMO gap:      9.97708590 eV.

  Total energy components:
  | Sum of eigenvalues            :         -45.58297967 Ha       -1240.37598644 eV
  | XC energy correction          :          -8.80986668 Ha        -239.72866962 eV
  | XC potential correction       :          11.60388987 Ha         315.75790899 eV
  | Free-atom electrostatic energy:         -35.27239561 Ha        -959.81071924 eV
  | Hartree energy correction     :           1.89022086 Ha          51.43552664 eV
  | Entropy correction            :          -0.00000000 Ha          -0.00000000 eV
  | ---------------------------
  | Total energy                  :         -76.17113123 Ha       -2072.72193967 eV
  | Total energy, T -> 0          :         -76.17113123 Ha       -2072.72193967 eV  <-- do not rely on this value for anything but (periodic) metals
  | Electronic free energy        :         -76.17113123 Ha       -2072.72193967 eV

  Derived energy quantities:
  | Kinetic energy                :          75.81747728 Ha        2063.09852615 eV
  | Electrostatic energy          :        -143.17874183 Ha       -3896.09179620 eV
  | Energy correction for multipole
  | error in Hartree potential    :           0.00669256 Ha           0.18211382 eV
  | Sum of eigenvalues per atom                           :        -310.09399661 eV
  | Total energy (T->0) per atom                          :        -518.18048492 eV  <-- do not rely on this value for anything but (periodic) metals
  | Electronic free energy per atom                       :        -518.18048492 eV

  Self-consistency convergence accuracy:
  | Change of charge density      :  0.3385E-06
  | Change of sum of eigenvalues  :  0.5939E-04 eV
  | Change of total energy        : -0.1578E-07 eV

  Electronic self-consistency reached - switching on the force computation.

  End self-consistency iteration #    12       :  max(cpu_time)    wall_clock(cpu1)
  | Time for this iteration                    :        0.061 s           0.061 s
  | Charge density & force component update    :        0.012 s           0.011 s
  | Density mixing                             :        0.001 s           0.001 s
  | Hartree multipole update                   :        0.001 s           0.002 s
  | Hartree multipole summation                :        0.017 s           0.017 s
  | Integration                                :        0.030 s           0.029 s
  | Solution of K.-S. eqns.                    :        0.000 s           0.001 s
  | Total energy evaluation                    :        0.000 s           0.000 s

  Partial memory accounting:
  | Current value for overall tracked memory usage on task 0  :           0.020 MB
  | Peak value for overall tracked memory usage on task 0     :           0.089 MB after allocating wave
  | Largest tracked array allocation on task 0 so far         :           0.021 MB  when allocating H_times_psi
  Note:  These values currently only include a subset of arrays which are explicitly tracked.
  The "true" memory usage will be greater.
------------------------------------------------------------

------------------------------------------------------------
          Begin self-consistency iteration #   13

  Date     :  20190508, Time     :  170411.280
------------------------------------------------------------
  Evaluating new KS density and force components.
  Integration grid: deviation in total charge (<rho> - N_e) =  -1.421085E-14
  Pulay mixing of updated and previous charge densities.

  Evaluating partitioned Hartree potential by multipole expansion.
  | Analytical far-field extrapolation by fixed multipoles:
  | Hartree multipole sum: apparent total charge =   0.999557E+00
  Summing up the Hartree potential.
  Time summed over all CPUs for potential: real work        0.053 s, elapsed        0.053 s
  | RMS charge density error from multipole expansion :   0.103571E-01

  Integrating Hamiltonian matrix: batch-based integration.
  Time summed over all CPUs for integration: real work        0.029 s, elapsed        0.029 s

  Updating Kohn-Sham eigenvalues, eigenvectors, occupation numbers, and Fermi level.
  Solving generalized eigenproblem
  Updating Kohn-Sham eigenvalues and eigenfunctions.
  Solving real generalised eigenvalue problem by standard LAPACK (fast)

  Obtaining occupation numbers and chemical potential using ELSI.
  | Chemical potential (Fermi level):   -11.78291352eV
  Highest occupied state (VBM) at    -18.10197737 eV
  | Occupation number:      2.00000000

  Lowest unoccupied state (CBM) at    -8.12489056 eV
  | Occupation number:      0.00000000

  Overall HOMO-LUMO gap:      9.97708681 eV.

  Total energy components:
  | Sum of eigenvalues            :         -45.58298024 Ha       -1240.37600192 eV
  | XC energy correction          :          -8.80986658 Ha        -239.72866680 eV
  | XC potential correction       :          11.60388973 Ha         315.75790526 eV
  | Free-atom electrostatic energy:         -35.27239561 Ha        -959.81071924 eV
  | Hartree energy correction     :           1.89022146 Ha          51.43554304 eV
  | Entropy correction            :          -0.00000000 Ha          -0.00000000 eV
  | ---------------------------
  | Total energy                  :         -76.17113123 Ha       -2072.72193967 eV
  | Total energy, T -> 0          :         -76.17113123 Ha       -2072.72193967 eV  <-- do not rely on this value for anything but (periodic) metals
  | Electronic free energy        :         -76.17113123 Ha       -2072.72193967 eV

  Derived energy quantities:
  | Kinetic energy                :          75.81747666 Ha        2063.09850909 eV
  | Electrostatic energy          :        -143.17874131 Ha       -3896.09178196 eV
  | Energy correction for multipole
  | error in Hartree potential    :           0.00669256 Ha           0.18211373 eV
  | Sum of eigenvalues per atom                           :        -310.09400048 eV
  | Total energy (T->0) per atom                          :        -518.18048492 eV  <-- do not rely on this value for anything but (periodic) metals
  | Electronic free energy per atom                       :        -518.18048492 eV

  atomic forces [eV/Ang]:
  -----------------------
  atom #    1
   Hellmann-Feynman              :  0.270237E-12  0.960523E-01 -0.100068E-12
   Ionic forces                  :  0.000000E+00  0.000000E+00  0.000000E+00
   Multipole                     : -0.141269E-12 -0.180184E-03  0.286920E-13
   Pulay                         : -0.484968E-12 -0.483363E-02  0.452194E-12
   ----------------------------------------------------------------
   Total forces(   1)            : -0.356000E-12  0.910385E-01  0.380818E-12
  atom #    2
   Hellmann-Feynman              :  0.259972E+00 -0.150139E+00 -0.121048E-13
   Ionic forces                  :  0.000000E+00  0.000000E+00  0.000000E+00
   Multipole                     :  0.776465E-01 -0.450458E-01  0.637096E-15
   Pulay                         : -0.338814E+00  0.195586E+00 -0.149549E-12
   ----------------------------------------------------------------
   Total forces(   2)            : -0.119525E-02  0.401686E-03 -0.161017E-12
  atom #    3
   Hellmann-Feynman              : -0.259972E+00 -0.150139E+00 -0.115211E-13
   Ionic forces                  :  0.000000E+00  0.000000E+00  0.000000E+00
   Multipole                     : -0.776465E-01 -0.450458E-01  0.251791E-15
   Pulay                         :  0.338814E+00  0.195586E+00  0.100232E-12
   ----------------------------------------------------------------
   Total forces(   3)            :  0.119525E-02  0.401686E-03  0.889629E-13
  atom #    4
   Hellmann-Feynman              :  0.313618E-13  0.207247E+00 -0.460695E-15
   Ionic forces                  :  0.000000E+00  0.000000E+00  0.000000E+00
   Multipole                     :  0.586255E-15  0.894811E-01 -0.849157E-15
   Pulay                         :  0.266103E-13 -0.388801E+00  0.126353E-13
   ----------------------------------------------------------------
   Total forces(   4)            :  0.585584E-13 -0.920732E-01  0.113254E-13


  Self-consistency convergence accuracy:
  | Change of charge density      :  0.1758E-06
  | Change of sum of eigenvalues  : -0.1548E-04 eV
  | Change of total energy        :  0.3524E-08 eV
  | Change of forces              :  0.3168E+00 eV/A

  Writing Kohn-Sham eigenvalues.

  State    Occupation    Eigenvalue [Ha]    Eigenvalue [eV]
      1       2.00000         -19.013620         -517.38693
      2       2.00000          -1.336675          -36.37279
      3       2.00000          -0.888206          -24.16932
      4       2.00000          -0.887753          -24.15699
      5       2.00000          -0.665235          -18.10198
      6       0.00000          -0.298584           -8.12489
      7       0.00000          -0.197918           -5.38562
      8       0.00000          -0.197156           -5.36489
      9       0.00000           0.025580            0.69606
     10       0.00000           0.048527            1.32048
     11       0.00000           0.048971            1.33256
     12       0.00000           0.207247            5.63949
     13       0.00000           0.480786           13.08286

  Highest occupied state (VBM) at    -18.10197737 eV
  | Occupation number:      2.00000000

  Lowest unoccupied state (CBM) at    -8.12489056 eV
  | Occupation number:      0.00000000

  Overall HOMO-LUMO gap:      9.97708681 eV.

  Self-consistency cycle converged.

  End self-consistency iteration #    13       :  max(cpu_time)    wall_clock(cpu1)
  | Time for this iteration                    :        0.127 s           0.127 s
  | Charge density & force component update    :        0.042 s           0.042 s
  | Density mixing                             :        0.001 s           0.001 s
  | Hartree multipole update                   :        0.001 s           0.001 s
  | Hartree multipole summation                :        0.053 s           0.053 s
  | Integration                                :        0.029 s           0.029 s
  | Solution of K.-S. eqns.                    :        0.000 s           0.001 s
  | Total energy evaluation                    :        0.000 s           0.000 s

  Partial memory accounting:
  | Current value for overall tracked memory usage on task 0  :           0.020 MB
  | Peak value for overall tracked memory usage on task 0     :           0.124 MB after allocating h_times_wave
  | Largest tracked array allocation on task 0 so far         :           0.063 MB  when allocating gradient_basis_wave
  Note:  These values currently only include a subset of arrays which are explicitly tracked.
  The "true" memory usage will be greater.
------------------------------------------------------------
  ------------------------------------------------------------
   Computing monopole / dipole moments for complete molecule:
  | Total electronic charge [e]         :          0.999999999991872E+01
  | Total ionic charge [e]              :          0.110000000000000E+02
  | Total charge [e]                    :          0.100000000008128E+01
 * Warning: The system has a total charge of      1.00000000 .
 * The dipole moment depends on the choice of the origin.
  | Total dipole moment [eAng]          :         -0.322743150129766E-14         0.139013911031583E-02         0.783291818941810E-16
  | Absolute dipole moment              :          0.139013911031583E-02 eAng              /                   0.667608208948852E-02 Debye  .
  Removing unitary transformations (pure translations, rotations) from forces on atoms.
  Atomic forces before filtering:
  | Net force on center of mass :  -0.489484E-12 -0.231356E-03  0.320089E-12 eV/A
  | Net torque on center of mass:   0.465907E-13  0.213705E-12 -0.181224E-12 eV
  Atomic forces after filtering:
  | Net force on center of mass :   0.149104E-18  0.111504E-16  0.000000E+00 eV/A
  | Net torque on center of mass:   0.000000E+00  0.643980E-28 -0.888656E-20 eV

  Energy and forces in a compact form:
  | Total energy uncorrected      :         -0.207272193966817E+04 eV
  | Total energy corrected        :         -0.207272193966817E+04 eV  <-- do not rely on this value for anything but (periodic) metals
  | Electronic free energy        :         -0.207272193966817E+04 eV
  Total atomic forces (unitary forces cleaned) [eV/Ang]:
  |   1         -0.233595700061481E-12          0.910963348261105E-01          0.300812307830954E-12
  |   2         -0.119525432506456E-02          0.459525462701591E-03         -0.100342337386207E-12
  |   3          0.119525432517843E-02          0.459525462628805E-03         -0.100342337386207E-12
  |   4          0.119723551023068E-12         -0.920153857514409E-01         -0.100127633058540E-12

  ------------------------------------ 
  Start decomposition of the XC Energy 
  ------------------------------------ 
  X and C from original XC functional choice 
  Hartree-Fock Energy :          0.000000000 Ha              0.000000000 eV
  X Energy            :         -8.145979427 Ha           -221.663378309 eV
  C Energy            :         -0.663887149 Ha            -18.065288490 eV
  Total XC Energy     :         -8.809866576 Ha           -239.728666799 eV
  ------------------------------------ 
  LDA X and C from self-consistent density 
  X Energy LDA        :         -8.145979427 Ha           -221.663378309 eV
  C Energy LDA        :         -0.663887149 Ha            -18.065288490 eV
  ------------------------------------ 
  End decomposition of the XC Energy 
  ------------------------------------ 

------------------------------------------------------------

------------------------------------------------------------------------------
  Final output of selected total energy values:

  The following output summarizes some interesting total energy values
  at the end of a run (AFTER all relaxation, molecular dynamics, etc.).

  | Total energy of the DFT / Hartree-Fock s.c.f. calculation      :          -2072.721939668 eV
  | Final zero-broadening corrected energy (caution - metals only) :          -2072.721939668 eV
  | For reference only, the value of 1 Hartree used in FHI-aims is :             27.211384500 eV

  Before relying on these values, please be sure to understand exactly which
  total energy value is referred to by a given number. Different objects may
  all carry the same name 'total energy'. Definitions:

  Total energy of the DFT / Hartree-Fock s.c.f. calculation:
  | Note that this energy does not include ANY quantities calculated after the
  | s.c.f. cycle, in particular not ANY RPA, MP2, etc. many-body perturbation terms.

  Final zero-broadening corrected energy:
  | For metallic systems only, a broadening of the occupation numbers at the Fermi
  | level can be extrapolated back to zero broadening by an electron-gas inspired
  | formula. For all systems that are not real metals, this value can be
  | meaningless and should be avoided.

------------------------------------------------------------------------------
  Methods described in the following list of references were used in this FHI-aims run.
  If you publish the results, please make sure to cite these reference if they apply.
  FHI-aims is an academic code, and for our developers (often, Ph.D. students
  and postdocs), scientific credit in the community is essential.
  Thank you for helping us!

  For any use of FHI-aims, please cite:

    Volker Blum, Ralf Gehrke, Felix Hanke, Paula Havu, Ville Havu,
    Xinguo Ren, Karsten Reuter, and Matthias Scheffler
    'Ab initio molecular simulations with numeric atom-centered orbitals'
    Computer Physics Communications 180, 2175-2196 (2009)
    http://dx.doi.org/10.1016/j.cpc.2009.06.022


  For the real-space grid partitioning and parallelization used in this calculation, please cite:

    Ville Havu, Volker Blum, Paula Havu, and Matthias Scheffler,
    'Efficient O(N) integration for all-electron electronic structure calculation'
    'using numerically tabulated basis functions'
    Journal of Computational Physics 228, 8367-8379 (2009).
    http://dx.doi.org/10.1016/j.jcp.2009.08.008

  Of course, there are many other important community references, e.g., those cited in the
  above references. Our list is limited to references that describe implementations in the
  FHI-aims code. The reason is purely practical (length of this list) - please credit others as well.

------------------------------------------------------------
          Leaving FHI-aims.
          Date     :  20190508, Time     :  170411.421

          Computational steps:
          | Number of self-consistency cycles          :           13
          | Number of SCF (re)initializations          :            1

          Detailed time accounting                     :  max(cpu_time)    wall_clock(cpu1)
          | Total time                                 :        0.994 s           0.993 s
          | Preparation time                           :        0.047 s           0.047 s
          | Boundary condition initalization           :        0.000 s           0.000 s
          | Grid partitioning                          :        0.014 s           0.013 s
          | Preloading free-atom quantities on grid    :        0.001 s           0.001 s
          | Free-atom superposition energy             :        0.012 s           0.012 s
          | Total time for integrations                :        0.421 s           0.422 s
          | Total time for solution of K.-S. equations :        0.003 s           0.005 s
          | Total time for density & force components  :        0.180 s           0.182 s
          | Total time for mixing                      :        0.009 s           0.009 s
          | Total time for Hartree multipole update    :        0.018 s           0.018 s
          | Total time for Hartree multipole sum       :        0.257 s           0.255 s
          | Total time for total energy evaluation     :        0.001 s           0.000 s

 This is a stub MPI_ALLREDUCE call.
 You should not be here. Check your
 setting on the use_mpi variable, or
 link against true MPI-libraries.
