------------------------------------------------------------
          Invoking FHI-aims ...
          Version 171221_1
          Compiled on 2019/05/06 at 14:26:40 on host ffph0xx.

          When using FHI-aims, please cite the following reference:

          Volker Blum, Ralf Gehrke, Felix Hanke, Paula Havu,
          Ville Havu, Xinguo Ren, Karsten Reuter, and Matthias Scheffler,
          'Ab Initio Molecular Simulations with Numeric Atom-Centered Orbitals',
          Computer Physics Communications 180, 2175-2196 (2009)

          For any questions about FHI-aims, please visit the aimsclub website
          with its forums and wiki. Contributions to both the forums and the
          wiki are warmly encouraged - they are for you, and everyone is welcome there.

------------------------------------------------------------



  Date     :  20190514, Time     :  103010.816
  Time zero on CPU 1             :   0.193400000000000E-02  s.
  Internal wall clock time zero  :           327061810.816  s.

  FHI-aims created a unique identifier for this run for later identification
  aims_uuid : 1C63160C-5255-48FA-A944-5C261D527CD3


  Performing system and environment tests:
  *** Environment variable OMP_NUM_THREADS is not set
  *** For performance reasons you might want to set it to 1
  | Stacksize not measured: no C compiler

  Obtaining array dimensions for all initial allocations:
  
  -----------------------------------------------------------------------
  Parsing control.in (first pass over file, find array dimensions only).
  The contents of control.in will be repeated verbatim below
  unless switched off by setting 'verbatim_writeout .false.' .
  in the first line of control.in .
  -----------------------------------------------------------------------
  
  # Physical settings
    xc                 pw-lda
    spin               none
    relativistic       atomic_zora scalar
  
  # SCF settings
    sc_accuracy_rho    1E-4
    sc_accuracy_eev    1E-2
    sc_accuracy_etot   1E-5
    sc_iter_limit      40
  
  # k-grid settings
    k_grid   12  24  1
  
  
  
  
  ################################################################################
  #
  #  FHI-aims code project
  #  VB, Fritz-Haber Institut, 2009
  #
  #  Suggested "light" defaults for H atom (to be pasted into control.in file)
  #  Be sure to double-check any results obtained with these settings for post-processing,
  #  e.g., with the "tight" defaults and larger basis sets.
  #
  ################################################################################
    species        H
  #     global species definitions
      nucleus             1
      mass                1.00794
  #
      l_hartree           4
  #
      cut_pot             3.5  1.5  1.0
      basis_dep_cutoff    1e-4
  #
      radial_base         24 5.0
      radial_multiplier   1
      angular_grids       specified
        division   0.2421   50
        division   0.3822  110
        division   0.4799  194
        division   0.5341  302
  #      division   0.5626  434
  #      division   0.5922  590
  #      division   0.6542  770
  #      division   0.6868 1202
  #      outer_grid  770
        outer_grid  302
  ################################################################################
  #
  #  Definition of "minimal" basis
  #
  ################################################################################
  #     valence basis states
      valence      1  s   1.
  #     ion occupancy
      ion_occ      1  s   0.5
  ################################################################################
  #
  #  Suggested additional basis functions. For production calculations,
  #  uncomment them one after another (the most important basis functions are
  #  listed first).
  #
  #  Basis constructed for dimers: 0.5 A, 0.7 A, 1.0 A, 1.5 A, 2.5 A
  #
  ################################################################################
  #  "First tier" - improvements: -1014.90 meV to -62.69 meV
       hydro 2 s 2.1
       hydro 2 p 3.5
  #  "Second tier" - improvements: -12.89 meV to -1.83 meV
  #     hydro 1 s 0.85
  #     hydro 2 p 3.7
  #     hydro 2 s 1.2
  #     hydro 3 d 7
  #  "Third tier" - improvements: -0.25 meV to -0.12 meV
  #     hydro 4 f 11.2
  #     hydro 3 p 4.8
  #     hydro 4 d 9
  #     hydro 3 s 3.2
  
  
  
  ################################################################################
  #
  #  FHI-aims code project
  #  VB, Fritz-Haber Institut, 2009
  #
  #  Suggested "light" defaults for Si atom (to be pasted into control.in file)
  #  Be sure to double-check any results obtained with these settings for post-processing,
  #  e.g., with the "tight" defaults and larger basis sets.
  #
  ################################################################################
    species        Si
  #     global species definitions
      nucleus             14
      mass                28.0855
  #
      l_hartree           4
  #
      cut_pot             3.5          1.5  1.0
      basis_dep_cutoff    1e-4
  #
      radial_base         42 5.0
      radial_multiplier   1
      angular_grids       specified
        division   0.5866   50
        division   0.9616  110
        division   1.2249  194
        division   1.3795  302
  #      division   1.4810  434
  #      division   1.5529  590
  #      division   1.6284  770
  #      division   1.7077  974
  #      division   2.4068 1202
  #      outer_grid   974
        outer_grid 302
  ################################################################################
  #
  #  Definition of "minimal" basis
  #
  ################################################################################
  #     valence basis states
      valence      3  s   2.
      valence      3  p   2.
  #     ion occupancy
      ion_occ      3  s   1.
      ion_occ      3  p   1.
  ################################################################################
  #
  #  Suggested additional basis functions. For production calculations,
  #  uncomment them one after another (the most important basis functions are
  #  listed first).
  #
  #  Constructed for dimers: 1.75 A, 2.0 A, 2.25 A, 2.75 A, 3.75 A
  #
  ################################################################################
  #  "First tier" - improvements: -571.96 meV to -37.03 meV
       hydro 3 d 4.2
       hydro 2 p 1.4
  #     hydro 4 f 6.2
       ionic 3 s auto
  #  "Second tier" - improvements: -16.76 meV to -3.03 meV
  #     hydro 3 d 9
  #     hydro 5 g 9.4
  #     hydro 4 p 4
  #     hydro 1 s 0.65
  #  "Third tier" - improvements: -3.89 meV to -0.60 meV
  #     ionic 3 d auto
  #     hydro 3 s 2.6
  #     hydro 4 f 8.4
  #     hydro 3 d 3.4
  #     hydro 3 p 7.8
  #  "Fourth tier" - improvements: -0.33 meV to -0.11 meV
  #     hydro 2 p 1.6
  #     hydro 5 g 10.8
  #     hydro 5 f 11.2
  #     hydro 3 d 1
  #     hydro 4 s 4.5
  #  Further basis functions that fell out of the optimization - noise
  #  level... < -0.08 meV
  #     hydro 4 d 6.6
  #     hydro 5 g 16.4
  #     hydro 4 d 9
  
  -----------------------------------------------------------------------
  Completed first pass over input file control.in .
  -----------------------------------------------------------------------
  
  
  -----------------------------------------------------------------------
  Parsing geometry.in (first pass over file, find array dimensions only).
  The contents of geometry.in will be repeated verbatim below
  unless switched off by setting 'verbatim_writeout .false.' .
  in the first line of geometry.in .
  -----------------------------------------------------------------------
  
  
  
  lattice_vector  7.6593806538126827  0.0000000000000000  0.0000000000000000
  lattice_vector  0.0000000000000000  3.8296903269063414  0.0000000000000000
  lattice_vector  0.0000000000000000  0.0000000000000000  35.4159999999999968
  
  atom -1.2063524529754976  0.0000000000000000  -0.8530200000000001  H
  atom 1.2063524529754976  0.0000000000000000  -0.8530200000000001  H
  atom 2.6233378739308435  0.0000000000000000  -0.8530200000000001  H
  atom 5.0360427798818392  0.0000000000000000  -0.8530200000000001  H
  atom 0.0000000000000000  0.0000000000000000  0.0000000000000000  Si
  atom 3.8296903269063414  0.0000000000000000  0.0000000000000000  Si
  atom 0.0000000000000000  1.9148451634531707  1.3540000000000001  Si
  atom 3.8296903269063414  1.9148451634531707  1.3540000000000001  Si
  atom 1.9148451634531707  1.9148451634531707  2.7080000000000002  Si
  atom 5.7445354903595121  1.9148451634531707  2.7080000000000002  Si
  atom 1.9148451634531707  0.0000000000000000  4.0620000000000003  Si
  atom 5.7445354903595121  0.0000000000000000  4.0620000000000003  Si
  
  -----------------------------------------------------------------------
  Completed first pass over input file geometry.in .
  -----------------------------------------------------------------------
  

  Basic array size parameters:
  | Number of species                 :        2
  | Number of atoms                   :       12
  | Number of lattice vectors         :        3
  | Max. basis fn. angular momentum   :        2
  | Max. atomic/ionic basis occupied n:        3
  | Max. number of basis fn. types    :        3
  | Max. radial fns per species/type  :        5
  | Max. logarithmic grid size        :     1346
  | Max. radial integration grid size :       42
  | Max. angular integration grid size:      302
  | Max. angular grid division number :        8
  | Radial grid for Hartree potential :     1346
  | Number of spin channels           :        1

------------------------------------------------------------
          Reading file control.in.
------------------------------------------------------------
  XC: Using Perdew-Wang parametrisation of Ceperley-Alder LDA.
  Spin treatment: No spin polarisation.
  Scalar relativistic treatment of kinetic energy: on-site free-atom approximation to ZORA.
  Convergence accuracy of self-consistent charge density:  0.1000E-03
  Convergence accuracy of sum of eigenvalues:  0.1000E-01
  Convergence accuracy of total energy:  0.1000E-04
  Maximum number of s.-c. iterations  :    40
  Found k-point grid:        12        24         1

  Reading configuration options for species H                   .
  | Found nuclear charge :   1.0000
  | Found atomic mass :    1.0079400000000001      amu
  | Found l_max for Hartree potential  :   4
  | Found cutoff potl. onset [A], width [A], scale factor :    3.50000    1.50000    1.00000
  | Threshold for basis-dependent cutoff potential is   0.100000E-03
  | Found data for basic radial integration grid :    24 points, outermost radius =    5.000 A
  | Found multiplier for basic radial grid :   1
  | Found angular grid specification: user-specified.
  | Specified grid contains     5 separate shells.
  | Check grid settings after all constraints further below.
  | Found free-atom valence shell :  1 s   1.000
  | Found free-ion valence shell :  1 s   0.500
  | Found hydrogenic basis function :  2 s   2.100
  | Found hydrogenic basis function :  2 p   3.500
  Species H                   : Missing cutoff potential type.
  Defaulting to exp(1/x)/(1-x)^2 type cutoff potential.
  Species H : No 'logarithmic' tag. Using default grid for free atom:
  | Default logarithmic grid data [bohr] : 0.1000E-03 0.1000E+03 0.1012E+01
  Species H : On-site basis accuracy parameter (for Gram-Schmidt orthonormalisation) not specified.
  Using default value basis_acc =  0.1000000E-03.
  Species H                   : Using default innermost maximum threshold i_radial=  2 for radial functions.
  Species H                   : Default cutoff onset for free atom density etc. : 0.35000000E+01 AA.
  Species H                   : Basic radial grid will be enhanced according to radial_multiplier =   1, to contain    24 grid points.

  Reading configuration options for species Si                  .
  | Found nuclear charge :  14.0000
  | Found atomic mass :    28.085500000000000      amu
  | Found l_max for Hartree potential  :   4
  | Found cutoff potl. onset [A], width [A], scale factor :    3.50000    1.50000    1.00000
  | Threshold for basis-dependent cutoff potential is   0.100000E-03
  | Found data for basic radial integration grid :    42 points, outermost radius =    5.000 A
  | Found multiplier for basic radial grid :   1
  | Found angular grid specification: user-specified.
  | Specified grid contains     5 separate shells.
  | Check grid settings after all constraints further below.
  | Found free-atom valence shell :  3 s   2.000
  | Found free-atom valence shell :  3 p   2.000
  | Found free-ion valence shell :  3 s   1.000
  | Found free-ion valence shell :  3 p   1.000
  | Found hydrogenic basis function :  3 d   4.200
  | Found hydrogenic basis function :  2 p   1.400
  | Found ionic basis function :  3 s , default cutoff radius.
  Species Si                  : Missing cutoff potential type.
  Defaulting to exp(1/x)/(1-x)^2 type cutoff potential.
  Species Si: No 'logarithmic' tag. Using default grid for free atom:
  | Default logarithmic grid data [bohr] : 0.1000E-03 0.1000E+03 0.1012E+01
  | Will include ionic basis functions of  2.0-fold positive Si                   ion.
  Species Si: On-site basis accuracy parameter (for Gram-Schmidt orthonormalisation) not specified.
  Using default value basis_acc =  0.1000000E-03.
  Species Si                  : Using default innermost maximum threshold i_radial=  2 for radial functions.
  Species Si                  : Default cutoff onset for free atom density etc. : 0.35000000E+01 AA.
  Species Si                  : Basic radial grid will be enhanced according to radial_multiplier =   1, to contain    42 grid points.

  Finished reading input file 'control.in'. Consistency checks are next.

  MPI_IN_PLACE appears to work with this MPI implementation.
  | Keeping use_mpi_in_place .true. (see manual).
  Target number of points in a grid batch is not set. Defaulting to  100
  Method for grid partitioning is not set. Defaulting to 'maxmin' partitioning.
  Batch size limit is not set. Defaulting to    200
  By default, will store active basis functions for each batch.
  If in need of memory, prune_basis_once .false. can be used to disable this option.
  communication_type for Hartree potential was not specified.
  Defaulting to calc_hartree .
 * Attention: 
 * You may want to set distributed_spline_storage to .true. in order to save memory.
 * This doesn't harm performance and is perfectly ok unless:
 * - you get error messages in postprocessing (about missing atoms in get_rho_multipole_spl)
 * - you need full spline storage in hirshfeld_analysis
  Defaulting to Pulay charge density mixer.
  Pulay mixer: Number of relevant iterations not set.
  Defaulting to    8 iterations.
  Pulay mixer: Number of initial linear mixing iterations not set.
  Defaulting to    0 iterations.
  Work space size for distributed Hartree potential not set.
  Defaulting to   0.200000E+03 MB.
  Mixing parameter for charge density mixing has not been set.
  Using default: charge_mix_param =     0.0500.
  The mixing parameter will be adjusted in iteration number     2 of the first full s.c.f. cycle only.
  Algorithm-dependent basis array size parameters:
  | n_max_pulay                         :        8
  Presetting      1001 iterations before the initial mixing cycle
  is restarted anyway using the sc_init_iter criterion / keyword.
  Presetting a factor      1.000 between actual scf density residual
  and density convergence criterion sc_accuracy_rho below which sc_init_iter
  takes no effect.
  Calculation of forces was not defined in control.in. No forces will be calculated.
  Geometry relaxation not requested: no relaxation will be performed.
  No accuracy limit for integral partition fn. given. Defaulting to  0.1000E-14.
  No threshold value for u(r) in integrations given. Defaulting to  0.1000E-05.
  No occupation type (smearing scheme) given. Defaulting to Gaussian broadening, width =  0.1000E-01 eV.
  The width will be adjusted in iteration number     2 of the first full s.c.f. cycle only.
  S.C.F. convergence parameters will be adjusted in iteration number     2 of the first full s.c.f. cycle only.
  No accuracy for occupation numbers given. Defaulting to  0.1000E-12.
  No threshold value for occupation numbers given. Defaulting to  0.0000E+00.
  No accuracy for fermi level given. Defaulting to  0.1000E-19.
  Maximum # of iterations to find E_F not set. Defaulting to  200.
  Preferred method for the eigenvalue solver ('KS_method') not specified in 'control.in'.
  Defaulting to serial version, 'lapack_fast'.
  Will not use alltoall communication since running on < 1024 CPUs.
  Threshold for basis singularities not set.
  Default threshold for basis singularities:  0.1000E-04
  partition_type (choice of integration weights) for integrals was not specified.
  | Using a version of the partition function of Stratmann and coworkers ('stratmann_smoother').
  | At each grid point, the set of atoms used to build the partition table is smoothly restricted to
  | only those atoms whose free-atom density would be non-zero at that grid point.
  Partitioning for Hartree potential was not defined. Using partition_type for integrals.
  | Adjusted default value of keyword multip_moments_threshold to:       0.10000000E-11
  | This value may affect high angular momentum components of the Hartree potential in periodic systems.
  Angular momentum expansion for Kerker preconditioner not set explicitly.
  | Using default value of   0
  No explicit requirement for turning off preconditioner.
  | By default, it will be turned off when the charge convergence reaches
  | sc_accuracy_rho  =   0.100000E-03
  | sc_accuracy_eev  =   0.100000E-01
  | sc_accuracy_etot =   0.100000E-04
  No special mixing parameter while Kerker preconditioner is on.
  Using default: charge_mix_param =     0.0500.
  No q(lm)/r^(l+1) cutoff set for long-range Hartree potential.
  | Using default value of  0.100000E-09 .
  | Verify using the multipole_threshold keyword.
  Defaulting to new monopole extrapolation.
  Density update method: automatic selection selected.
  Using density matrix based charge density update.
  Using density matrix based charge density update.
  Using packed matrix style: index .
  Defaulting to use time-reversal symmetry for k-point grid.
------------------------------------------------------------


------------------------------------------------------------
          Reading geometry description geometry.in.
------------------------------------------------------------
  Input structure read successfully.
  The structure contains       12 atoms,  and a total of        116.000 electrons.

  Input geometry:
  | Unit cell:
  |        7.65938065        0.00000000        0.00000000
  |        0.00000000        3.82969033        0.00000000
  |        0.00000000        0.00000000       35.41600000
  | Atomic structure:
  |       Atom                x [A]            y [A]            z [A]
  |    1: Species H            -1.20635245        0.00000000       -0.85302000
  |    2: Species H             1.20635245        0.00000000       -0.85302000
  |    3: Species H             2.62333787        0.00000000       -0.85302000
  |    4: Species H             5.03604278        0.00000000       -0.85302000
  |    5: Species Si            0.00000000        0.00000000        0.00000000
  |    6: Species Si            3.82969033        0.00000000        0.00000000
  |    7: Species Si            0.00000000        1.91484516        1.35400000
  |    8: Species Si            3.82969033        1.91484516        1.35400000
  |    9: Species Si            1.91484516        1.91484516        2.70800000
  |   10: Species Si            5.74453549        1.91484516        2.70800000
  |   11: Species Si            1.91484516        0.00000000        4.06200000
  |   12: Species Si            5.74453549        0.00000000        4.06200000

  Lattice parameters for 3D lattice (in Angstroms) :     7.659381    3.829690   35.416000
  Angle(s) between unit vectors (in degrees)      :    90.000000   90.000000   90.000000

  |

  | The smallest distance between any two atoms is         1.41698542 AA.
  |
  | The first atom of this pair is atom number                      1 .
  | The second atom of this pair is atom number                     4 .
  | Wigner-Seitz cell of the first atom image           0     0     0 .
  | (The Wigner-Seitz cell of the second atom is 0 0 0  by definition.)

  Quantities derived from the lattice vectors:
  | Reciprocal lattice vector 1:  0.820326  0.000000  0.000000
  | Reciprocal lattice vector 2:  0.000000  1.640651  0.000000
  | Reciprocal lattice vector 3:  0.000000  0.000000  0.177411
  | Unit cell volume                               :   0.103886E+04  A^3

  Range separation radius for Ewald summation (hartree_convergence_parameter):      5.00000000 bohr.

  Fractional coordinates:
                         L1                L2                L3
       atom_frac        -0.15750000        0.00000000       -0.02408572  H
       atom_frac         0.15750000        0.00000000       -0.02408572  H
       atom_frac         0.34250000        0.00000000       -0.02408572  H
       atom_frac         0.65750000        0.00000000       -0.02408572  H
       atom_frac         0.00000000        0.00000000        0.00000000  Si
       atom_frac         0.50000000        0.00000000        0.00000000  Si
       atom_frac         0.00000000        0.50000000        0.03823131  Si
       atom_frac         0.50000000        0.50000000        0.03823131  Si
       atom_frac         0.25000000        0.50000000        0.07646262  Si
       atom_frac         0.75000000        0.50000000        0.07646262  Si
       atom_frac         0.25000000        0.00000000        0.11469392  Si
       atom_frac         0.75000000        0.00000000        0.11469392  Si

  Number of empty states per atom not set in control.in - providing a guess from actual geometry.
  | Total number of empty states used during s.c.f. cycle:       30
  If you use a very high smearing, use empty_states (per atom!) in control.in to increase this value.

  Structure-dependent array size parameters: 
  | Maximum number of distinct radial functions  :       11
  | Maximum number of basis functions            :      164
  | Number of Kohn-Sham states (occupied + empty):       88
------------------------------------------------------------

------------------------------------------------------------
          Preparing all fixed parts of the calculation.
------------------------------------------------------------
  Determining machine precision:
     2.2250738585072014E-308
  Setting up grids for atomic and cluster calculations.

  Creating wave function, potential, and density for free atoms.

  Species: H

  List of occupied orbitals and eigenvalues:
    n    l              occ      energy [Ha]    energy [eV]
    1    0           1.0000        -0.232378        -6.3233


  Species: Si

  List of occupied orbitals and eigenvalues:
    n    l              occ      energy [Ha]    energy [eV]
    1    0           2.0000       -65.491668     -1782.1190
    2    0           2.0000        -5.087967      -138.4506
    3    0           2.0000        -0.391471       -10.6525
    2    1           6.0000        -3.502246       -95.3010
    3    1           2.0000        -0.143943        -3.9169

  Creating fixed part of basis set: Ionic, confined, hydrogenic.

  H                    hydrogenic:

  List of hydrogenic basis orbitals: 
    n    l      effective z      eigenvalue [eV]  inner max. [A]     outer max. [A]     outer radius [A]   
    2    0         2.100000       -14.9728           0.193243           1.317208           4.583499
    2    1         3.500000       -41.6669           0.602369           0.602369           3.723403


  Si                   ion:

  List of free ionic orbitals and eigenvalues:
    n    l      energy [Ha]    energy [eV]
    1    0       -66.364436     -1805.8682
    2    0        -5.935799      -161.5213
    3    0        -1.078166       -29.3384
    2    1        -4.351123      -118.4001
    3    1        -0.781733       -21.2720


  List of ionic basis orbitals and eigenvalues:
    n    l      energy [Ha]    energy [eV]    outer radius [A]
    3    0        -1.078146       -29.3378       4.214062


  Si                   hydrogenic:

  List of hydrogenic basis orbitals: 
    n    l      effective z      eigenvalue [eV]  inner max. [A]     outer max. [A]     outer radius [A]   
    3    2         4.200000       -26.6624           1.139231           1.139231           4.534782
    2    1         1.400000        -6.4613           1.472672           1.472672           4.590560


  Adding cutoff potential to free-atom effective potential.
  Creating atomic-like basis functions for current effective potential.

  Species H                   :

  List of atomic basis orbitals and eigenvalues:
    n    l      energy [Ha]    energy [eV]    outer radius [A]
    1    0        -0.232378        -6.3233       4.527807


  Species Si                  :

  List of atomic basis orbitals and eigenvalues:
    n    l      energy [Ha]    energy [eV]    outer radius [A]
    1    0       -65.491668     -1782.1190       0.789468
    2    0        -5.087967      -138.4506       2.815114
    3    0        -0.391471       -10.6525       4.534782
    2    1        -3.502246       -95.3010       3.259919
    3    1        -0.143943        -3.9169       4.590560

  Assembling full basis from fixed parts.
  | Species H :   atomic orbital   1 s accepted.
  | Species H :    hydro orbital   2 s accepted.
  | Species H :    hydro orbital   2 p accepted.
  | Species Si :   atomic orbital   1 s accepted.
  | Species Si :   atomic orbital   2 s accepted.
  | Species Si :    ionic orbital   3 s accepted.
  | Species Si :   atomic orbital   3 s accepted.
  | Species Si :   atomic orbital   2 p accepted.
  | Species Si :   atomic orbital   3 p accepted.
  | Species Si :    hydro orbital   2 p accepted.
  | Species Si :    hydro orbital   3 d accepted.

  Basis size parameters after reduction:
  | Total number of radial functions:       11
  | Total number of basis functions :      164

  Per-task memory consumption for arrays in subroutine allocate_ext:
  |           3.794960MB.
  Testing on-site integration grid accuracy.
  |  Species  Function  <phi|h_atom|phi> (log., in eV)  <phi|h_atom|phi> (rad., in eV)
           1        1                 -6.3246251765                 -6.3233331181
           1        2                 14.1313906092                 14.1372326594
           1        3                 25.3615426212                 25.3616852158
           2        4              -1782.1189721215              -1782.1182423390
           2        5               -138.4506351281               -138.4506310666
           2        6                -10.3030408493                -10.3029120357
           2        7                  5.0238999200                  4.9457540361 ***
           2        8                -95.3009690130                -95.3009689946
           2        9                 -3.9266496251                 -3.9420918062
           2       10                  6.3453628774                  6.1632372491 ***
           2       11                  6.2883051072                  6.2861881737
 * Note: Onsite integrals marked "***" above are less accurate than
 * onsite_accuracy_threshold =    0.03000 eV. Usually, this is harmless.
 * When in doubt, tighten the "radial" and/or "radial_multiplier" flags to check.

  Preparing densities etc. for the partition functions (integrals / Hartree potential).

  Preparations completed.
  max(cpu_time)          :      0.110 s.
  Wall clock time (cpu1) :      0.114 s.
------------------------------------------------------------

------------------------------------------------------------
          Begin self-consistency loop: Initialization.

          Date     :  20190514, Time     :  103010.946
------------------------------------------------------------

  Initializing index lists of integration centers etc. from given atomic structure:
  Mapping all atomic coordinates to central unit cell.

  Initializing the k-points
          Using symmetry for reducing the k-points
  | k-points reduced from:      288 to      146
  | Number of k-points                             :       146
  The eigenvectors in the calculations are COMPLEX.
  | K-points in task   0:       146
  | Number of basis functions in the Hamiltonian integrals :      1042
  | Number of basis functions in a single unit cell        :       164
  | Number of centers in hartree potential         :       476
  | Number of centers in hartree multipole         :       220
  | Number of centers in electron density summation:       169
  | Number of centers in basis integrals           :       188
  | Number of centers in integrals                 :        85
  | Number of centers in hamiltonian               :       169
  | Consuming         45 KiB for k_phase.
  | Number of super-cells (origin) [n_cells]                     :         231
  | Number of super-cells (after PM_index) [n_cells]             :          20
  | Number of super-cells in hamiltonian [n_cells_in_hamiltonian]:          20
  | Size of matrix packed + index [n_hamiltonian_matrix_size] :       94809
  Partitioning the integration grid into batches with maxmin method.
  | Maximal weight for a single point:     1.000
  | Minimal weight for a single point:     0.000
  | Number of batches:      757
  | Maximal batch size:     127
  | Minimal batch size:      60
  | Average batch size:      84.269
  | Standard deviation of batch sizes:      29.744
  Initializing partition tables, free-atom densities, potentials, etc. across the integration grid (initialize_grid_storage).
  | initialize_grid_storage: Actual outermost partition radius vs. multipole_radius_free
  | (-- VB: in principle, multipole_radius_free should be larger, hence this output)
  | Species        1: Confinement radius =              4.999999999999999 AA, multipole_radius_free =              5.054417573612229 AA.
  | Species        1: outer_partition_radius set to              5.054417573612229 AA .
  | Species        2: Confinement radius =              4.999999999999999 AA, multipole_radius_free =              5.000694715736543 AA.
  | Species        2: outer_partition_radius set to              5.000694715736543 AA .
  | Original list of interatomic distances with         188 x        188 entries is created.
  | Net number of integration points:    63792
  | of which are non-zero points    :    55466
  | Numerical average free-atom electrostatic potential    :     -2.14708649 eV
  Renormalizing the initial density to the exact electron count on the 3D integration grid.
  | Initial density: Formal number of electrons (from input files) :     116.0000000000
  | Integrated number of electrons on 3D grid     :     115.9996918635
  | Charge integration error                      :      -0.0003081365
  | Normalization factor for density and gradient :       1.0000026564
  Obtaining max. number of non-zero basis functions in each batch (get_n_compute_maxes).
  | Maximal number of non-zero basis functions:      384 in task     0
  Allocating       33.713 MB for KS_eigenvector_complex
  Integrating Hamiltonian matrix: batch-based integration.
  Time summed over all CPUs for integration: real work        1.676 s, elapsed        1.676 s
  Integrating overlap matrix.
  Time summed over all CPUs for integration: real work        1.085 s, elapsed        1.085 s
  Decreasing sparse matrix size:
   Tolerance:   9.9999998245167004E-014
   Hamiltonian matrix
  | Array has    79516 nonzero elements out of    94809 elements
  | Sparsity factor is 0.161
   Overlap matrix
  | Array has    77372 nonzero elements out of    94809 elements
  | Sparsity factor is 0.184
  New size of hamiltonian matrix:       80373

  Updating Kohn-Sham eigenvalues, eigenvectors, occupation numbers, and Fermi level.
  Solving generalized eigenproblem
  Transforming overlap matrix and checking for singularities.
  Overlap matrix is nonsingular at first k-point:
  | Lowest eigenvalue:  0.153407E-02

  Obtaining occupation numbers and chemical potential using ELSI.
  | Chemical potential (Fermi level):    -6.13056217eV
  Writing Kohn-Sham eigenvalues.
  K-point:       1 at    0.000000    0.000000    0.000000 (in units of recip. lattice)

  State    Occupation    Eigenvalue [Ha]    Eigenvalue [eV]
      1       2.00000         -65.520874        -1782.91370
      2       2.00000         -65.520874        -1782.91370
      3       2.00000         -65.514165        -1782.73114
      4       2.00000         -65.514165        -1782.73114
      5       2.00000         -65.514114        -1782.72974
      6       2.00000         -65.514114        -1782.72974
      7       2.00000         -65.502898        -1782.42455
      8       2.00000         -65.502898        -1782.42455
      9       2.00000          -5.123163         -139.40836
     10       2.00000          -5.123163         -139.40836
     11       2.00000          -5.115305         -139.19452
     12       2.00000          -5.115256         -139.19321
     13       2.00000          -5.115177         -139.19106
     14       2.00000          -5.115129         -139.18974
     15       2.00000          -5.101615         -138.82200
     16       2.00000          -5.101614         -138.82199
     17       2.00000          -3.538323          -96.28268
     18       2.00000          -3.538321          -96.28262
     19       2.00000          -3.537205          -96.25225
     20       2.00000          -3.537204          -96.25222
     21       2.00000          -3.536183          -96.22442
     22       2.00000          -3.536182          -96.22442
     23       2.00000          -3.529707          -96.04822
     24       2.00000          -3.529631          -96.04615
     25       2.00000          -3.529628          -96.04607
     26       2.00000          -3.529494          -96.04241
     27       2.00000          -3.529380          -96.03933
     28       2.00000          -3.529350          -96.03851
     29       2.00000          -3.529302          -96.03719
     30       2.00000          -3.529272          -96.03638
     31       2.00000          -3.529155          -96.03319
     32       2.00000          -3.529024          -96.02963
     33       2.00000          -3.529020          -96.02952
     34       2.00000          -3.528947          -96.02753
     35       2.00000          -3.516969          -95.70160
     36       2.00000          -3.516969          -95.70159
     37       2.00000          -3.515780          -95.66923
     38       2.00000          -3.515779          -95.66922
     39       2.00000          -3.514623          -95.63775
     40       2.00000          -3.514622          -95.63774
     41       2.00000          -0.653329          -17.77800
     42       2.00000          -0.599783          -16.32092
     43       2.00000          -0.595781          -16.21202
     44       2.00000          -0.573791          -15.61364
     45       2.00000          -0.503750          -13.70773
     46       2.00000          -0.496037          -13.49784
     47       2.00000          -0.477897          -13.00425
     48       2.00000          -0.406461          -11.06036
     49       2.00000          -0.367915          -10.01147
     50       2.00000          -0.354530           -9.64724
     51       2.00000          -0.339087           -9.22702
     52       2.00000          -0.311013           -8.46309
     53       2.00000          -0.289876           -7.88794
     54       2.00000          -0.276152           -7.51448
     55       2.00000          -0.266147           -7.24223
     56       2.00000          -0.257833           -7.01600
     57       2.00000          -0.232234           -6.31941
     58       2.00000          -0.229703           -6.25054
     59       0.00000          -0.222989           -6.06784
     60       0.00000          -0.173970           -4.73398
     61       0.00000          -0.168232           -4.57781
     62       0.00000          -0.140718           -3.82913
     63       0.00000          -0.137736           -3.74798
     64       0.00000          -0.131683           -3.58327
     65       0.00000          -0.121925           -3.31775
     66       0.00000          -0.092959           -2.52954
     67       0.00000          -0.078723           -2.14217
     68       0.00000          -0.073632           -2.00363
     69       0.00000          -0.060692           -1.65152
     70       0.00000          -0.046289           -1.25960
     71       0.00000          -0.017545           -0.47741
     72       0.00000          -0.011203           -0.30485
     73       0.00000           0.008331            0.22670
     74       0.00000           0.032952            0.89667
     75       0.00000           0.058144            1.58217
     76       0.00000           0.062769            1.70803
     77       0.00000           0.069098            1.88025
     78       0.00000           0.087120            2.37065
     79       0.00000           0.089626            2.43886
     80       0.00000           0.098017            2.66717
     81       0.00000           0.098921            2.69179
     82       0.00000           0.122247            3.32652
     83       0.00000           0.126275            3.43611
     84       0.00000           0.129706            3.52949
     85       0.00000           0.130801            3.55927
     86       0.00000           0.175001            4.76201
     87       0.00000           0.185075            5.03616
     88       0.00000           0.193250            5.25861

  What follows are estimated values for band gap, HOMO, LUMO, etc.
  | They are estimated on a discrete k-point grid and not necessarily exact.
  | For converged numbers, create a DOS and/or band structure plot on a denser k-grid.

  Highest occupied state (VBM) at     -6.13092175 eV (relative to internal zero)
  | Occupation number:      1.04055641
  | K-point:      87 at    0.416667    0.041667    0.000000 (in units of recip. lattice)

  Lowest unoccupied state (CBM) at    -6.12597732 eV (relative to internal zero)
  | Occupation number:      0.51672909
  | K-point:      65 at    0.250000    0.833333    0.000000 (in units of recip. lattice)

  ESTIMATED overall HOMO-LUMO gap:      0.00494443 eV between HOMO at k-point 87 and LUMO at k-point 65
  | This appears to be an indirect band gap.
  | Smallest direct gap :      0.04515870 eV for k_point 13 at    0.250000    0.833333    0.000000 (in units of recip. lattice)
  However, this system has fractional occupation numbers. Since we use a finite k-point grid,
  this material is metallic within the approximate finite broadening function (occupation_type)
  applied to determine the occupation numbers.
  Calculating total energy contributions from superposition of free atom densities.

  Total energy components:
  | Sum of eigenvalues            :       -1314.24844712 Ha      -35762.51982311 eV
  | XC energy correction          :        -159.63022440 Ha       -4343.75941387 eV
  | XC potential correction       :         210.88073374 Ha        5738.35672955 eV
  | Free-atom electrostatic energy:       -1054.10779300 Ha      -28683.73245965 eV
  | Hartree energy correction     :          -0.00000000 Ha          -0.00000000 eV
  | Entropy correction            :          -0.00001135 Ha          -0.00030893 eV
  | ---------------------------
  | Total energy                  :       -2317.10573077 Ha      -63051.65496708 eV
  | Total energy, T -> 0          :       -2317.10574212 Ha      -63051.65527602 eV  <-- do not rely on this value for anything but (periodic) metals
  | Electronic free energy        :       -2317.10575347 Ha      -63051.65558495 eV

  Derived energy quantities:
  | Kinetic energy                :        2320.10198846 Ha       63133.18728730 eV
  | Electrostatic energy          :       -4477.57749484 Ha     -121841.08284051 eV
  | Energy correction for multipole
  | error in Hartree potential    :           0.00000000 Ha           0.00000000 eV
  | Sum of eigenvalues per atom                           :       -2980.20998526 eV
  | Total energy (T->0) per atom                          :       -5254.30460633 eV  <-- do not rely on this value for anything but (periodic) metals
  | Electronic free energy per atom                       :       -5254.30463208 eV
  Initialize hartree_potential_storage
  Max. number of atoms included in rho_multipole:           12

  End scf initialization - timings             :  max(cpu_time)    wall_clock(cpu1)
  | Time for scf. initialization               :       10.099 s          10.113 s
  | Boundary condition initialization          :        0.526 s           0.528 s
  | Integration                                :        2.763 s           2.762 s
  | Solution of K.-S. eqns.                    :        5.796 s           5.802 s
  | Grid partitioning                          :        0.162 s           0.164 s
  | Preloading free-atom quantities on grid    :        0.002 s           0.002 s
  | Free-atom superposition energy             :        0.149 s           0.149 s
  | Total energy evaluation                    :        0.000 s           0.001 s

  Partial memory accounting:
  | Current value for overall tracked memory usage on task 0  :          35.321 MB
  | Peak value for overall tracked memory usage on task 0     :          37.960 MB after allocating wave
  | Largest tracked array allocation on task 0 so far         :          33.713 MB  when allocating +KS_eigenvector_complex
  Note:  These values currently only include a subset of arrays which are explicitly tracked.
  The "true" memory usage will be greater.
------------------------------------------------------------

------------------------------------------------------------
          Begin self-consistency iteration #    1

  Date     :  20190514, Time     :  103021.059
------------------------------------------------------------
  Evaluating new KS density using the density matrix
  Evaluating density matrix
  Time summed over all CPUs for getting density from density matrix: real work        2.638 s, elapsed        2.638 s
  Integration grid: deviation in total charge (<rho> - N_e) =   1.811884E-11
  Pulay mixing of updated and previous charge densities.

  Evaluating partitioned Hartree potential by multipole expansion.
  | Analytical far-field extrapolation by fixed multipoles:
  | Hartree multipole sum: apparent total charge =   0.105666E-02
  Summing up the Hartree potential.
  | Estimated reciprocal-space cutoff momentum G_max:         1.84432723 bohr^-1 .
  | Reciprocal lattice points for long-range Hartree potential:     730
  Time summed over all CPUs for potential: real work        1.938 s, elapsed        1.938 s
  | RMS charge density error from multipole expansion :   0.110622E-02
  | Average real-space part of the electrostatic potential :      0.00477177 eV

  Integrating Hamiltonian matrix: batch-based integration.
  Time summed over all CPUs for integration: real work        1.633 s, elapsed        1.633 s

  Updating Kohn-Sham eigenvalues, eigenvectors, occupation numbers, and Fermi level.
  Solving generalized eigenproblem

  Obtaining occupation numbers and chemical potential using ELSI.
  | Chemical potential (Fermi level):    -6.12401930eV
  Writing Kohn-Sham eigenvalues.
  K-point:       1 at    0.000000    0.000000    0.000000 (in units of recip. lattice)

  State    Occupation    Eigenvalue [Ha]    Eigenvalue [eV]
      1       2.00000         -65.512764        -1782.69302
      2       2.00000         -65.512763        -1782.69298
      3       2.00000         -65.509861        -1782.61403
      4       2.00000         -65.509858        -1782.61393
      5       2.00000         -65.509260        -1782.59767
      6       2.00000         -65.509256        -1782.59757
      7       2.00000         -65.505463        -1782.49435
      8       2.00000         -65.505398        -1782.49257
      9       2.00000          -5.116014         -139.21381
     10       2.00000          -5.115971         -139.21267
     11       2.00000          -5.111759         -139.09804
     12       2.00000          -5.111752         -139.09784
     13       2.00000          -5.110941         -139.07579
     14       2.00000          -5.110925         -139.07535
     15       2.00000          -5.103864         -138.88321
     16       2.00000          -5.103862         -138.88316
     17       2.00000          -3.530987          -96.08303
     18       2.00000          -3.530980          -96.08286
     19       2.00000          -3.530020          -96.05672
     20       2.00000          -3.529946          -96.05472
     21       2.00000          -3.529002          -96.02902
     22       2.00000          -3.528968          -96.02812
     23       2.00000          -3.525972          -95.94659
     24       2.00000          -3.525928          -95.94539
     25       2.00000          -3.525917          -95.94507
     26       2.00000          -3.525852          -95.94332
     27       2.00000          -3.525739          -95.94024
     28       2.00000          -3.525735          -95.94014
     29       2.00000          -3.524979          -95.91956
     30       2.00000          -3.524948          -95.91871
     31       2.00000          -3.524931          -95.91826
     32       2.00000          -3.524912          -95.91773
     33       2.00000          -3.524879          -95.91685
     34       2.00000          -3.524833          -95.91558
     35       2.00000          -3.519048          -95.75816
     36       2.00000          -3.519047          -95.75813
     37       2.00000          -3.517946          -95.72819
     38       2.00000          -3.517910          -95.72721
     39       2.00000          -3.517206          -95.70805
     40       2.00000          -3.517174          -95.70717
     41       2.00000          -0.649353          -17.66978
     42       2.00000          -0.594991          -16.19054
     43       2.00000          -0.592530          -16.12355
     44       2.00000          -0.572527          -15.57926
     45       2.00000          -0.497777          -13.54521
     46       2.00000          -0.493382          -13.42560
     47       2.00000          -0.473635          -12.88825
     48       2.00000          -0.404816          -11.01560
     49       2.00000          -0.365318           -9.94082
     50       2.00000          -0.348380           -9.47990
     51       2.00000          -0.336143           -9.14691
     52       2.00000          -0.308063           -8.38281
     53       2.00000          -0.286896           -7.80685
     54       2.00000          -0.271631           -7.39145
     55       2.00000          -0.265215           -7.21686
     56       2.00000          -0.255462           -6.95148
     57       2.00000          -0.231771           -6.30681
     58       2.00000          -0.229284           -6.23914
     59       0.00000          -0.223082           -6.07038
     60       0.00000          -0.171082           -4.65537
     61       0.00000          -0.166245           -4.52376
     62       0.00000          -0.140558           -3.82477
     63       0.00000          -0.136409           -3.71189
     64       0.00000          -0.127813           -3.47796
     65       0.00000          -0.120146           -3.26933
     66       0.00000          -0.090898           -2.47347
     67       0.00000          -0.076179           -2.07295
     68       0.00000          -0.069067           -1.87941
     69       0.00000          -0.057398           -1.56188
     70       0.00000          -0.044795           -1.21893
     71       0.00000          -0.015266           -0.41540
     72       0.00000          -0.009803           -0.26676
     73       0.00000           0.010827            0.29461
     74       0.00000           0.034990            0.95212
     75       0.00000           0.060735            1.65267
     76       0.00000           0.063945            1.74003
     77       0.00000           0.072190            1.96438
     78       0.00000           0.087682            2.38596
     79       0.00000           0.092480            2.51650
     80       0.00000           0.100058            2.72272
     81       0.00000           0.101658            2.76624
     82       0.00000           0.123592            3.36310
     83       0.00000           0.127189            3.46099
     84       0.00000           0.132423            3.60341
     85       0.00000           0.132559            3.60711
     86       0.00000           0.178068            4.84547
     87       0.00000           0.187133            5.09215
     88       0.00000           0.196394            5.34416

  What follows are estimated values for band gap, HOMO, LUMO, etc.
  | They are estimated on a discrete k-point grid and not necessarily exact.
  | For converged numbers, create a DOS and/or band structure plot on a denser k-grid.

  Highest occupied state (VBM) at     -6.12489856 eV (relative to internal zero)
  | Occupation number:      1.09895874
  | K-point:      50 at    0.250000    0.000000    0.000000 (in units of recip. lattice)

  Lowest unoccupied state (CBM) at    -6.12186917 eV (relative to internal zero)
  | Occupation number:      0.76107116
  | K-point:     140 at    0.833333    0.875000    0.000000 (in units of recip. lattice)

  ESTIMATED overall HOMO-LUMO gap:      0.00302939 eV between HOMO at k-point 50 and LUMO at k-point 140
  | This appears to be an indirect band gap.
  | Smallest direct gap :      0.03516739 eV for k_point 13 at    0.833333    0.875000    0.000000 (in units of recip. lattice)
  However, this system has fractional occupation numbers. Since we use a finite k-point grid,
  this material is metallic within the approximate finite broadening function (occupation_type)
  applied to determine the occupation numbers.

  Total energy components:
  | Sum of eigenvalues            :       -1313.87718959 Ha      -35752.41739177 eV
  | XC energy correction          :        -159.64745629 Ha       -4344.22831763 eV
  | XC potential correction       :         210.90342168 Ha        5738.97409961 eV
  | Free-atom electrostatic energy:       -1054.10779300 Ha      -28683.73245965 eV
  | Hartree energy correction     :          -0.30033287 Ha          -8.17247310 eV
  | Entropy correction            :          -0.00000693 Ha          -0.00018869 eV
  | ---------------------------
  | Total energy                  :       -2317.02935007 Ha      -63049.57654255 eV
  | Total energy, T -> 0          :       -2317.02935700 Ha      -63049.57673124 eV  <-- do not rely on this value for anything but (periodic) metals
  | Electronic free energy        :       -2317.02936394 Ha      -63049.57691994 eV

  Derived energy quantities:
  | Kinetic energy                :        2320.18772153 Ha       63135.52020260 eV
  | Electrostatic energy          :       -4477.56961530 Ha     -121840.86842751 eV
  | Energy correction for multipole
  | error in Hartree potential    :           0.00281899 Ha           0.07670865 eV
  | Sum of eigenvalues per atom                           :       -2979.36811598 eV
  | Total energy (T->0) per atom                          :       -5254.13139427 eV  <-- do not rely on this value for anything but (periodic) metals
  | Electronic free energy per atom                       :       -5254.13140999 eV

  Self-consistency convergence accuracy:
  | Change of charge density      :  0.3129E+00
  | Change of sum of eigenvalues  :  0.1010E+02 eV
  | Change of total energy        :  0.2078E+01 eV

  End self-consistency iteration #     1       :  max(cpu_time)    wall_clock(cpu1)
  | Time for this iteration                    :        9.500 s           9.503 s
  | Charge density update                      :        2.795 s           2.794 s
  | Density mixing & preconditioning           :        0.186 s           0.188 s
  | Hartree multipole update                   :        0.004 s           0.004 s
  | Hartree multipole summation                :        1.982 s           1.982 s
  | Integration                                :        1.634 s           1.633 s
  | Solution of K.-S. eqns.                    :        2.900 s           2.900 s
  | Total energy evaluation                    :        0.000 s           0.000 s

  Partial memory accounting:
  | Current value for overall tracked memory usage on task 0  :          35.321 MB
  | Peak value for overall tracked memory usage on task 0     :          37.960 MB after allocating wave
  | Largest tracked array allocation on task 0 so far         :          33.713 MB  when allocating +KS_eigenvector_complex
  Note:  These values currently only include a subset of arrays which are explicitly tracked.
  The "true" memory usage will be greater.
------------------------------------------------------------

------------------------------------------------------------
          Begin self-consistency iteration #    2

  Date     :  20190514, Time     :  103030.562
------------------------------------------------------------
  Evaluating new KS density using the density matrix
  Evaluating density matrix
  Time summed over all CPUs for getting density from density matrix: real work        2.486 s, elapsed        2.486 s
  Integration grid: deviation in total charge (<rho> - N_e) =   1.831779E-11
  Pulay mixing of updated and previous charge densities.

  Evaluating partitioned Hartree potential by multipole expansion.
  | Analytical far-field extrapolation by fixed multipoles:
  | Hartree multipole sum: apparent total charge =   0.192959E-01
  Summing up the Hartree potential.
  Time summed over all CPUs for potential: real work        2.247 s, elapsed        2.247 s
  | RMS charge density error from multipole expansion :   0.163831E-01
  | Average real-space part of the electrostatic potential :      0.06646862 eV

  Integrating Hamiltonian matrix: batch-based integration.
  Time summed over all CPUs for integration: real work        1.631 s, elapsed        1.631 s

  Updating Kohn-Sham eigenvalues, eigenvectors, occupation numbers, and Fermi level.
  Solving generalized eigenproblem

  Obtaining occupation numbers and chemical potential using ELSI.
  | Chemical potential (Fermi level):    -5.89020358eV
  What follows are estimated values for band gap, HOMO, LUMO, etc.
  | They are estimated on a discrete k-point grid and not necessarily exact.
  | For converged numbers, create a DOS and/or band structure plot on a denser k-grid.

  Highest occupied state (VBM) at     -5.89581083 eV (relative to internal zero)
  | Occupation number:      1.57221280
  | K-point:      50 at    0.250000    0.000000    0.000000 (in units of recip. lattice)

  Lowest unoccupied state (CBM) at    -5.88779733 eV (relative to internal zero)
  | Occupation number:      0.73363364
  | K-point:     104 at    0.500000    0.000000    0.000000 (in units of recip. lattice)

  ESTIMATED overall HOMO-LUMO gap:      0.00801350 eV between HOMO at k-point 50 and LUMO at k-point 104
  | This appears to be an indirect band gap.
  | Smallest direct gap :      0.01681769 eV for k_point 86 at    0.500000    0.000000    0.000000 (in units of recip. lattice)
  However, this system has fractional occupation numbers. Since we use a finite k-point grid,
  this material is metallic within the approximate finite broadening function (occupation_type)
  applied to determine the occupation numbers.

  Checking to see if s.c.f. parameters should be adjusted.
  Adjusted the Pulay mixing parameter (charge_mix_param) for an expected low-gap system. New value:   0.020000 .
  Adjusted the occupation broadening width for an expected low-gap system. New value:      0.05000000 eV.

  Total energy components:
  | Sum of eigenvalues            :       -1309.24933505 Ha      -35626.48706241 eV
  | XC energy correction          :        -159.91827181 Ha       -4351.59758274 eV
  | XC potential correction       :         211.25997016 Ha        5748.67627746 eV
  | Free-atom electrostatic energy:       -1054.10779300 Ha      -28683.73245965 eV
  | Hartree energy correction     :          -4.25481634 Ha        -115.77944351 eV
  | Entropy correction            :          -0.00011706 Ha          -0.00318538 eV
  | ---------------------------
  | Total energy                  :       -2316.27024604 Ha      -63028.92027085 eV
  | Total energy, T -> 0          :       -2316.27036310 Ha      -63028.92345624 eV  <-- do not rely on this value for anything but (periodic) metals
  | Electronic free energy        :       -2316.27048016 Ha      -63028.92664162 eV

  Derived energy quantities:
  | Kinetic energy                :        2321.05464308 Ha       63159.11033828 eV
  | Electrostatic energy          :       -4477.40661731 Ha     -121836.43302639 eV
  | Energy correction for multipole
  | error in Hartree potential    :           0.04104308 Ha           1.11683895 eV
  | Sum of eigenvalues per atom                           :       -2968.87392187 eV
  | Total energy (T->0) per atom                          :       -5252.41028802 eV  <-- do not rely on this value for anything but (periodic) metals
  | Electronic free energy per atom                       :       -5252.41055347 eV

  Self-consistency convergence accuracy:
  | Change of charge density      :  0.2943E+00
  | Change of sum of eigenvalues  :  0.1259E+03 eV
  | Change of total energy        :  0.2066E+02 eV

  End self-consistency iteration #     2       :  max(cpu_time)    wall_clock(cpu1)
  | Time for this iteration                    :        9.723 s           9.725 s
  | Charge density update                      :        2.639 s           2.638 s
  | Density mixing & preconditioning           :        0.177 s           0.178 s
  | Hartree multipole update                   :        0.005 s           0.004 s
  | Hartree multipole summation                :        2.300 s           2.301 s
  | Integration                                :        1.632 s           1.631 s
  | Solution of K.-S. eqns.                    :        2.970 s           2.970 s
  | Total energy evaluation                    :        0.000 s           0.001 s

  Partial memory accounting:
  | Current value for overall tracked memory usage on task 0  :          35.322 MB
  | Peak value for overall tracked memory usage on task 0     :          37.960 MB after allocating wave
  | Largest tracked array allocation on task 0 so far         :          33.713 MB  when allocating +KS_eigenvector_complex
  Note:  These values currently only include a subset of arrays which are explicitly tracked.
  The "true" memory usage will be greater.
------------------------------------------------------------

------------------------------------------------------------
          Begin self-consistency iteration #    3

  Date     :  20190514, Time     :  103040.287
------------------------------------------------------------
  Evaluating new KS density using the density matrix
  Evaluating density matrix
  Time summed over all CPUs for getting density from density matrix: real work        2.560 s, elapsed        2.560 s
  Integration grid: deviation in total charge (<rho> - N_e) =   1.833200E-11
  Pulay mixing of updated and previous charge densities.

  Evaluating partitioned Hartree potential by multipole expansion.
  | Analytical far-field extrapolation by fixed multipoles:
  | Hartree multipole sum: apparent total charge =   0.187826E-01
  Summing up the Hartree potential.
  Time summed over all CPUs for potential: real work        2.297 s, elapsed        2.297 s
  | RMS charge density error from multipole expansion :   0.167900E-01
  | Average real-space part of the electrostatic potential :      0.06307918 eV

  Integrating Hamiltonian matrix: batch-based integration.
  Time summed over all CPUs for integration: real work        1.657 s, elapsed        1.657 s

  Updating Kohn-Sham eigenvalues, eigenvectors, occupation numbers, and Fermi level.
  Solving generalized eigenproblem

  Obtaining occupation numbers and chemical potential using ELSI.
  | Chemical potential (Fermi level):    -5.79943363eV
  What follows are estimated values for band gap, HOMO, LUMO, etc.
  | They are estimated on a discrete k-point grid and not necessarily exact.
  | For converged numbers, create a DOS and/or band structure plot on a denser k-grid.

  Highest occupied state (VBM) at     -5.80015775 eV (relative to internal zero)
  | Occupation number:      1.01634045
  | K-point:     142 at    0.916667    0.208333    0.000000 (in units of recip. lattice)

  Lowest unoccupied state (CBM) at    -5.79928197 eV (relative to internal zero)
  | Occupation number:      0.99657741
  | K-point:      17 at    0.083333    0.166667    0.000000 (in units of recip. lattice)

  ESTIMATED overall HOMO-LUMO gap:      0.00087578 eV between HOMO at k-point 142 and LUMO at k-point 17
  | This appears to be an indirect band gap.
  | Smallest direct gap :      0.02783061 eV for k_point 3 at    0.083333    0.166667    0.000000 (in units of recip. lattice)
  However, this system has fractional occupation numbers. Since we use a finite k-point grid,
  this material is metallic within the approximate finite broadening function (occupation_type)
  applied to determine the occupation numbers.

  Total energy components:
  | Sum of eigenvalues            :       -1309.53785885 Ha      -35634.33819443 eV
  | XC energy correction          :        -159.91532336 Ha       -4351.51735134 eV
  | XC potential correction       :         211.25604027 Ha        5748.56933975 eV
  | Free-atom electrostatic energy:       -1054.10779300 Ha      -28683.73245965 eV
  | Hartree energy correction     :          -4.20595184 Ha        -114.44977271 eV
  | Entropy correction            :          -0.00010680 Ha          -0.00290625 eV
  | ---------------------------
  | Total energy                  :       -2316.51088677 Ha      -63035.46843839 eV
  | Total energy, T -> 0          :       -2316.51099357 Ha      -63035.47134463 eV  <-- do not rely on this value for anything but (periodic) metals
  | Electronic free energy        :       -2316.51110038 Ha      -63035.47425088 eV

  Derived energy quantities:
  | Kinetic energy                :        2320.99602114 Ha       63157.51515418 eV
  | Electrostatic energy          :       -4477.59158455 Ha     -121841.46624122 eV
  | Energy correction for multipole
  | error in Hartree potential    :           0.04210306 Ha           1.14568250 eV
  | Sum of eigenvalues per atom                           :       -2969.52818287 eV
  | Total energy (T->0) per atom                          :       -5252.95594539 eV  <-- do not rely on this value for anything but (periodic) metals
  | Electronic free energy per atom                       :       -5252.95618757 eV

  Self-consistency convergence accuracy:
  | Change of charge density      :  0.9724E-01
  | Change of sum of eigenvalues  : -0.7851E+01 eV
  | Change of total energy        : -0.6548E+01 eV

  End self-consistency iteration #     3       :  max(cpu_time)    wall_clock(cpu1)
  | Time for this iteration                    :        9.868 s           9.868 s
  | Charge density update                      :        2.716 s           2.716 s
  | Density mixing & preconditioning           :        0.174 s           0.174 s
  | Hartree multipole update                   :        0.005 s           0.005 s
  | Hartree multipole summation                :        2.352 s           2.352 s
  | Integration                                :        1.657 s           1.657 s
  | Solution of K.-S. eqns.                    :        2.963 s           2.963 s
  | Total energy evaluation                    :        0.000 s           0.000 s

  Partial memory accounting:
  | Current value for overall tracked memory usage on task 0  :          35.322 MB
  | Peak value for overall tracked memory usage on task 0     :          37.960 MB after allocating wave
  | Largest tracked array allocation on task 0 so far         :          33.713 MB  when allocating +KS_eigenvector_complex
  Note:  These values currently only include a subset of arrays which are explicitly tracked.
  The "true" memory usage will be greater.
------------------------------------------------------------

------------------------------------------------------------
          Begin self-consistency iteration #    4

  Date     :  20190514, Time     :  103050.155
------------------------------------------------------------
  Evaluating new KS density using the density matrix
  Evaluating density matrix
  Time summed over all CPUs for getting density from density matrix: real work        2.545 s, elapsed        2.545 s
  Integration grid: deviation in total charge (<rho> - N_e) =   1.806200E-11
  Pulay mixing of updated and previous charge densities.

  Evaluating partitioned Hartree potential by multipole expansion.
  | Analytical far-field extrapolation by fixed multipoles:
  | Hartree multipole sum: apparent total charge =   0.212692E-01
  Summing up the Hartree potential.
  Time summed over all CPUs for potential: real work        2.308 s, elapsed        2.308 s
  | RMS charge density error from multipole expansion :   0.204161E-01
  | Average real-space part of the electrostatic potential :      0.06961965 eV

  Integrating Hamiltonian matrix: batch-based integration.
  Time summed over all CPUs for integration: real work        1.633 s, elapsed        1.633 s

  Updating Kohn-Sham eigenvalues, eigenvectors, occupation numbers, and Fermi level.
  Solving generalized eigenproblem

  Obtaining occupation numbers and chemical potential using ELSI.
  | Chemical potential (Fermi level):    -5.57649562eV
  What follows are estimated values for band gap, HOMO, LUMO, etc.
  | They are estimated on a discrete k-point grid and not necessarily exact.
  | For converged numbers, create a DOS and/or band structure plot on a denser k-grid.

  Highest occupied state (VBM) at     -5.57948507 eV (relative to internal zero)
  | Occupation number:      1.06738437
  | K-point:     124 at    0.666667    0.208333    0.000000 (in units of recip. lattice)

  Lowest unoccupied state (CBM) at    -5.55983994 eV (relative to internal zero)
  | Occupation number:      0.63757376
  | K-point:      56 at    0.250000    0.333333    0.000000 (in units of recip. lattice)

  ESTIMATED overall HOMO-LUMO gap:      0.01964513 eV between HOMO at k-point 124 and LUMO at k-point 56
  | This appears to be an indirect band gap.
  | Smallest direct gap :      0.10299371 eV for k_point 29 at    0.250000    0.333333    0.000000 (in units of recip. lattice)
  However, this system has fractional occupation numbers. Since we use a finite k-point grid,
  this material is metallic within the approximate finite broadening function (occupation_type)
  applied to determine the occupation numbers.

  Total energy components:
  | Sum of eigenvalues            :       -1309.09507112 Ha      -35622.28932730 eV
  | XC energy correction          :        -159.97116113 Ha       -4353.03677450 eV
  | XC potential correction       :         211.32947268 Ha        5750.56753720 eV
  | Free-atom electrostatic energy:       -1054.10779300 Ha      -28683.73245965 eV
  | Hartree energy correction     :          -4.90795361 Ha        -133.55221292 eV
  | Entropy correction            :          -0.00012187 Ha          -0.00331637 eV
  | ---------------------------
  | Total energy                  :       -2316.75250619 Ha      -63042.04323717 eV
  | Total energy, T -> 0          :       -2316.75262806 Ha      -63042.04655354 eV  <-- do not rely on this value for anything but (periodic) metals
  | Electronic free energy        :       -2316.75274994 Ha      -63042.04986992 eV

  Derived energy quantities:
  | Kinetic energy                :        2321.02475729 Ha       63158.29710465 eV
  | Electrostatic energy          :       -4477.80610234 Ha     -121847.30356732 eV
  | Energy correction for multipole
  | error in Hartree potential    :           0.05101642 Ha           1.38822730 eV
  | Sum of eigenvalues per atom                           :       -2968.52411061 eV
  | Total energy (T->0) per atom                          :       -5253.50387946 eV  <-- do not rely on this value for anything but (periodic) metals
  | Electronic free energy per atom                       :       -5253.50415583 eV

  Self-consistency convergence accuracy:
  | Change of charge density      :  0.6982E-01
  | Change of sum of eigenvalues  :  0.1205E+02 eV
  | Change of total energy        : -0.6575E+01 eV

  End self-consistency iteration #     4       :  max(cpu_time)    wall_clock(cpu1)
  | Time for this iteration                    :        9.840 s           9.841 s
  | Charge density update                      :        2.705 s           2.706 s
  | Density mixing & preconditioning           :        0.175 s           0.174 s
  | Hartree multipole update                   :        0.005 s           0.005 s
  | Hartree multipole summation                :        2.368 s           2.368 s
  | Integration                                :        1.632 s           1.633 s
  | Solution of K.-S. eqns.                    :        2.954 s           2.954 s
  | Total energy evaluation                    :        0.000 s           0.001 s

  Partial memory accounting:
  | Current value for overall tracked memory usage on task 0  :          35.323 MB
  | Peak value for overall tracked memory usage on task 0     :          37.960 MB after allocating wave
  | Largest tracked array allocation on task 0 so far         :          33.713 MB  when allocating +KS_eigenvector_complex
  Note:  These values currently only include a subset of arrays which are explicitly tracked.
  The "true" memory usage will be greater.
------------------------------------------------------------

------------------------------------------------------------
          Begin self-consistency iteration #    5

  Date     :  20190514, Time     :  103059.996
------------------------------------------------------------
  Evaluating new KS density using the density matrix
  Evaluating density matrix
  Time summed over all CPUs for getting density from density matrix: real work        2.569 s, elapsed        2.569 s
  Integration grid: deviation in total charge (<rho> - N_e) =   1.821832E-11
  Pulay mixing of updated and previous charge densities.

  Evaluating partitioned Hartree potential by multipole expansion.
  | Analytical far-field extrapolation by fixed multipoles:
  | Hartree multipole sum: apparent total charge =   0.206887E-01
  Summing up the Hartree potential.
  Time summed over all CPUs for potential: real work        2.250 s, elapsed        2.250 s
  | RMS charge density error from multipole expansion :   0.203876E-01
  | Average real-space part of the electrostatic potential :      0.06822087 eV

  Integrating Hamiltonian matrix: batch-based integration.
  Time summed over all CPUs for integration: real work        1.629 s, elapsed        1.629 s

  Updating Kohn-Sham eigenvalues, eigenvectors, occupation numbers, and Fermi level.
  Solving generalized eigenproblem

  Obtaining occupation numbers and chemical potential using ELSI.
  | Chemical potential (Fermi level):    -5.55542555eV
  What follows are estimated values for band gap, HOMO, LUMO, etc.
  | They are estimated on a discrete k-point grid and not necessarily exact.
  | For converged numbers, create a DOS and/or band structure plot on a denser k-grid.

  Highest occupied state (VBM) at     -5.56386135 eV (relative to internal zero)
  | Occupation number:      1.18858471
  | K-point:      72 at    0.333333    0.208333    0.000000 (in units of recip. lattice)

  Lowest unoccupied state (CBM) at    -5.54424716 eV (relative to internal zero)
  | Occupation number:      0.75187146
  | K-point:      31 at    0.083333    0.916667    0.000000 (in units of recip. lattice)

  ESTIMATED overall HOMO-LUMO gap:      0.01961420 eV between HOMO at k-point 72 and LUMO at k-point 31
  | This appears to be an indirect band gap.
  | Smallest direct gap :      0.11334821 eV for k_point 17 at    0.083333    0.916667    0.000000 (in units of recip. lattice)
  However, this system has fractional occupation numbers. Since we use a finite k-point grid,
  this material is metallic within the approximate finite broadening function (occupation_type)
  applied to determine the occupation numbers.

  Total energy components:
  | Sum of eigenvalues            :       -1309.19085738 Ha      -35624.89580414 eV
  | XC energy correction          :        -159.96699402 Ha       -4352.92338153 eV
  | XC potential correction       :         211.32396554 Ha        5750.41768050 eV
  | Free-atom electrostatic energy:       -1054.10779300 Ha      -28683.73245965 eV
  | Hartree energy correction     :          -4.85281728 Ha        -132.05187693 eV
  | Entropy correction            :          -0.00013157 Ha          -0.00358033 eV
  | ---------------------------
  | Total energy                  :       -2316.79449613 Ha      -63043.18584174 eV
  | Total energy, T -> 0          :       -2316.79462771 Ha      -63043.18942207 eV  <-- do not rely on this value for anything but (periodic) metals
  | Electronic free energy        :       -2316.79475928 Ha      -63043.19300240 eV

  Derived energy quantities:
  | Kinetic energy                :        2320.98754873 Ha       63157.28460829 eV
  | Electrostatic energy          :       -4477.81505085 Ha     -121847.54706851 eV
  | Energy correction for multipole
  | error in Hartree potential    :           0.05090002 Ha           1.38506004 eV
  | Sum of eigenvalues per atom                           :       -2968.74131701 eV
  | Total energy (T->0) per atom                          :       -5253.59911851 eV  <-- do not rely on this value for anything but (periodic) metals
  | Electronic free energy per atom                       :       -5253.59941687 eV

  Self-consistency convergence accuracy:
  | Change of charge density      :  0.3651E-01
  | Change of sum of eigenvalues  : -0.2606E+01 eV
  | Change of total energy        : -0.1143E+01 eV

  End self-consistency iteration #     5       :  max(cpu_time)    wall_clock(cpu1)
  | Time for this iteration                    :        9.797 s           9.796 s
  | Charge density update                      :        2.732 s           2.732 s
  | Density mixing & preconditioning           :        0.170 s           0.170 s
  | Hartree multipole update                   :        0.005 s           0.005 s
  | Hartree multipole summation                :        2.307 s           2.307 s
  | Integration                                :        1.629 s           1.629 s
  | Solution of K.-S. eqns.                    :        2.953 s           2.953 s
  | Total energy evaluation                    :        0.000 s           0.000 s

  Partial memory accounting:
  | Current value for overall tracked memory usage on task 0  :          35.323 MB
  | Peak value for overall tracked memory usage on task 0     :          37.960 MB after allocating wave
  | Largest tracked array allocation on task 0 so far         :          33.713 MB  when allocating +KS_eigenvector_complex
  Note:  These values currently only include a subset of arrays which are explicitly tracked.
  The "true" memory usage will be greater.
------------------------------------------------------------

------------------------------------------------------------
          Begin self-consistency iteration #    6

  Date     :  20190514, Time     :  103109.793
------------------------------------------------------------
  Evaluating new KS density using the density matrix
  Evaluating density matrix
  Time summed over all CPUs for getting density from density matrix: real work        2.522 s, elapsed        2.522 s
  Integration grid: deviation in total charge (<rho> - N_e) =   1.817568E-11
  Pulay mixing of updated and previous charge densities.

  Evaluating partitioned Hartree potential by multipole expansion.
  | Analytical far-field extrapolation by fixed multipoles:
  | Hartree multipole sum: apparent total charge =   0.162483E-01
  Summing up the Hartree potential.
  Time summed over all CPUs for potential: real work        2.486 s, elapsed        2.486 s
  | RMS charge density error from multipole expansion :   0.210745E-01
  | Average real-space part of the electrostatic potential :      0.06518380 eV

  Integrating Hamiltonian matrix: batch-based integration.
  Time summed over all CPUs for integration: real work        1.813 s, elapsed        1.813 s

  Updating Kohn-Sham eigenvalues, eigenvectors, occupation numbers, and Fermi level.
  Solving generalized eigenproblem

  Obtaining occupation numbers and chemical potential using ELSI.
  | Chemical potential (Fermi level):    -5.53653674eV
  What follows are estimated values for band gap, HOMO, LUMO, etc.
  | They are estimated on a discrete k-point grid and not necessarily exact.
  | For converged numbers, create a DOS and/or band structure plot on a denser k-grid.

  Highest occupied state (VBM) at     -5.53816867 eV (relative to internal zero)
  | Occupation number:      1.03681565
  | K-point:       1 at    0.000000    0.000000    0.000000 (in units of recip. lattice)

  Lowest unoccupied state (CBM) at    -5.53638108 eV (relative to internal zero)
  | Occupation number:      0.99648711
  | K-point:       3 at    0.000000    0.083333    0.000000 (in units of recip. lattice)

  ESTIMATED overall HOMO-LUMO gap:      0.00178759 eV between HOMO at k-point 1 and LUMO at k-point 3
  | This appears to be an indirect band gap.
  | Smallest direct gap :      0.03763192 eV for k_point 3 at    0.000000    0.083333    0.000000 (in units of recip. lattice)
  However, this system has fractional occupation numbers. Since we use a finite k-point grid,
  this material is metallic within the approximate finite broadening function (occupation_type)
  applied to determine the occupation numbers.

  Total energy components:
  | Sum of eigenvalues            :       -1309.18529332 Ha      -35624.74439816 eV
  | XC energy correction          :        -159.95888836 Ha       -4352.70281539 eV
  | XC potential correction       :         211.31312075 Ha        5750.12257851 eV
  | Free-atom electrostatic energy:       -1054.10779300 Ha      -28683.73245965 eV
  | Hartree energy correction     :          -4.74688373 Ha        -129.16927828 eV
  | Entropy correction            :          -0.00012522 Ha          -0.00340748 eV
  | ---------------------------
  | Total energy                  :       -2316.68573765 Ha      -63040.22637296 eV
  | Total energy, T -> 0          :       -2316.68586288 Ha      -63040.22978044 eV  <-- do not rely on this value for anything but (periodic) metals
  | Electronic free energy        :       -2316.68598810 Ha      -63040.23318792 eV

  Derived energy quantities:
  | Kinetic energy                :        2320.76091339 Ha       63151.11754683 eV
  | Electrostatic energy          :       -4477.48776268 Ha     -121838.64110441 eV
  | Energy correction for multipole
  | error in Hartree potential    :           0.05188847 Ha           1.41195706 eV
  | Sum of eigenvalues per atom                           :       -2968.72869985 eV
  | Total energy (T->0) per atom                          :       -5253.35248170 eV  <-- do not rely on this value for anything but (periodic) metals
[...]
  Evaluating new KS density using the density matrix
  Evaluating density matrix
  Time summed over all CPUs for getting density from density matrix: real work        3.004 s, elapsed        3.004 s
  Integration grid: deviation in total charge (<rho> - N_e) =   1.828937E-11
  Pulay mixing of updated and previous charge densities.

  Evaluating partitioned Hartree potential by multipole expansion.
  | Analytical far-field extrapolation by fixed multipoles:
  | Hartree multipole sum: apparent total charge =  -0.154849E-02
  Summing up the Hartree potential.
  Time summed over all CPUs for potential: real work        2.437 s, elapsed        2.437 s
  | RMS charge density error from multipole expansion :   0.219094E-01
  | Average real-space part of the electrostatic potential :      0.06316432 eV

  Integrating Hamiltonian matrix: batch-based integration.
  Time summed over all CPUs for integration: real work        1.756 s, elapsed        1.756 s

  Updating Kohn-Sham eigenvalues, eigenvectors, occupation numbers, and Fermi level.
  Solving generalized eigenproblem

  Obtaining occupation numbers and chemical potential using ELSI.
  | Chemical potential (Fermi level):    -5.39983981eV
  What follows are estimated values for band gap, HOMO, LUMO, etc.
  | They are estimated on a discrete k-point grid and not necessarily exact.
  | For converged numbers, create a DOS and/or band structure plot on a denser k-grid.

  Highest occupied state (VBM) at     -5.41114727 eV (relative to internal zero)
  | Occupation number:      1.25089771
  | K-point:      57 at    0.250000    0.375000    0.000000 (in units of recip. lattice)

  Lowest unoccupied state (CBM) at    -5.39898985 eV (relative to internal zero)
  | Occupation number:      0.98082042
  | K-point:      16 at    0.083333    0.083333    0.000000 (in units of recip. lattice)

  ESTIMATED overall HOMO-LUMO gap:      0.01215742 eV between HOMO at k-point 57 and LUMO at k-point 16
  | This appears to be an indirect band gap.
  | Smallest direct gap :      0.05844726 eV for k_point 3 at    0.083333    0.083333    0.000000 (in units of recip. lattice)
  However, this system has fractional occupation numbers. Since we use a finite k-point grid,
  this material is metallic within the approximate finite broadening function (occupation_type)
  applied to determine the occupation numbers.

  Total energy components:
  | Sum of eigenvalues            :       -1308.99355763 Ha      -35619.52700481 eV
  | XC energy correction          :        -159.93689376 Ha       -4352.10431183 eV
  | XC potential correction       :         211.28388950 Ha        5749.32715590 eV
  | Free-atom electrostatic energy:       -1054.10779300 Ha      -28683.73245965 eV
  | Hartree energy correction     :          -4.73266466 Ha        -128.78235776 eV
  | Entropy correction            :          -0.00012926 Ha          -0.00351726 eV
  | ---------------------------
  | Total energy                  :       -2316.48701955 Ha      -63034.81897816 eV
  | Total energy, T -> 0          :       -2316.48714880 Ha      -63034.82249541 eV  <-- do not rely on this value for anything but (periodic) metals
  | Electronic free energy        :       -2316.48727806 Ha      -63034.82601267 eV

  Derived energy quantities:
  | Kinetic energy                :        2320.46082557 Ha       63142.95174176 eV
  | Electrostatic energy          :       -4477.01095136 Ha     -121825.66640808 eV
  | Energy correction for multipole
  | error in Hartree potential    :           0.05260696 Ha           1.43150816 eV
  | Sum of eigenvalues per atom                           :       -2968.29391707 eV
  | Total energy (T->0) per atom                          :       -5252.90187462 eV  <-- do not rely on this value for anything but (periodic) metals
  | Electronic free energy per atom                       :       -5252.90216772 eV

  Self-consistency convergence accuracy:
  | Change of charge density      :  0.2724E-04
  | Change of sum of eigenvalues  : -0.1050E-02 eV
  | Change of total energy        : -0.2743E-03 eV

  End self-consistency iteration #    38       :  max(cpu_time)    wall_clock(cpu1)
  | Time for this iteration                    :       10.758 s          10.758 s
  | Charge density update                      :        3.165 s           3.165 s
  | Density mixing & preconditioning           :        0.201 s           0.201 s
  | Hartree multipole update                   :        0.007 s           0.007 s
  | Hartree multipole summation                :        2.504 s           2.505 s
  | Integration                                :        1.756 s           1.756 s
  | Solution of K.-S. eqns.                    :        3.123 s           3.123 s
  | Total energy evaluation                    :        0.000 s           0.000 s

  Partial memory accounting:
  | Current value for overall tracked memory usage on task 0  :          35.324 MB
  | Peak value for overall tracked memory usage on task 0     :          37.960 MB after allocating wave
  | Largest tracked array allocation on task 0 so far         :          33.713 MB  when allocating +KS_eigenvector_complex
  Note:  These values currently only include a subset of arrays which are explicitly tracked.
  The "true" memory usage will be greater.
------------------------------------------------------------

------------------------------------------------------------
          Begin self-consistency iteration #   39

  Date     :  20190514, Time     :  103709.830
------------------------------------------------------------
  Evaluating new KS density using the density matrix
  Evaluating density matrix
  Time summed over all CPUs for getting density from density matrix: real work        2.660 s, elapsed        2.660 s
  Integration grid: deviation in total charge (<rho> - N_e) =   1.834621E-11
  Pulay mixing of updated and previous charge densities.

  Evaluating partitioned Hartree potential by multipole expansion.
  | Analytical far-field extrapolation by fixed multipoles:
  | Hartree multipole sum: apparent total charge =  -0.152261E-02
  Summing up the Hartree potential.
  Time summed over all CPUs for potential: real work        2.425 s, elapsed        2.425 s
  | RMS charge density error from multipole expansion :   0.219101E-01
  | Average real-space part of the electrostatic potential :      0.06315812 eV

  Integrating Hamiltonian matrix: batch-based integration.
  Time summed over all CPUs for integration: real work        1.727 s, elapsed        1.727 s

  Updating Kohn-Sham eigenvalues, eigenvectors, occupation numbers, and Fermi level.
  Solving generalized eigenproblem

  Obtaining occupation numbers and chemical potential using ELSI.
  | Chemical potential (Fermi level):    -5.39995812eV
  What follows are estimated values for band gap, HOMO, LUMO, etc.
  | They are estimated on a discrete k-point grid and not necessarily exact.
  | For converged numbers, create a DOS and/or band structure plot on a denser k-grid.

  Highest occupied state (VBM) at     -5.41127344 eV (relative to internal zero)
  | Occupation number:      1.25106614
  | K-point:      57 at    0.250000    0.375000    0.000000 (in units of recip. lattice)

  Lowest unoccupied state (CBM) at    -5.39910380 eV (relative to internal zero)
  | Occupation number:      0.98072190
  | K-point:      16 at    0.083333    0.083333    0.000000 (in units of recip. lattice)

  ESTIMATED overall HOMO-LUMO gap:      0.01216964 eV between HOMO at k-point 57 and LUMO at k-point 16
  | This appears to be an indirect band gap.
  | Smallest direct gap :      0.05844901 eV for k_point 3 at    0.083333    0.083333    0.000000 (in units of recip. lattice)
  However, this system has fractional occupation numbers. Since we use a finite k-point grid,
  this material is metallic within the approximate finite broadening function (occupation_type)
  applied to determine the occupation numbers.

  Total energy components:
  | Sum of eigenvalues            :       -1308.99396564 Ha      -35619.53810717 eV
  | XC energy correction          :        -159.93690453 Ha       -4352.10460498 eV
  | XC potential correction       :         211.28390385 Ha        5749.32754631 eV
  | Free-atom electrostatic energy:       -1054.10779300 Ha      -28683.73245965 eV
  | Hartree energy correction     :          -4.73242626 Ha        -128.77587045 eV
  | Entropy correction            :          -0.00012925 Ha          -0.00351712 eV
  | ---------------------------
  | Total energy                  :       -2316.48718557 Ha      -63034.82349594 eV
  | Total energy, T -> 0          :       -2316.48731482 Ha      -63034.82701305 eV  <-- do not rely on this value for anything but (periodic) metals
  | Electronic free energy        :       -2316.48744408 Ha      -63034.83053017 eV

  Derived energy quantities:
  | Kinetic energy                :        2320.46102069 Ha       63142.95705117 eV
  | Electrostatic energy          :       -4477.01130173 Ha     -121825.67594212 eV
  | Energy correction for multipole
  | error in Hartree potential    :           0.05260981 Ha           1.43158565 eV
  | Sum of eigenvalues per atom                           :       -2968.29484226 eV
  | Total energy (T->0) per atom                          :       -5252.90225109 eV  <-- do not rely on this value for anything but (periodic) metals
  | Electronic free energy per atom                       :       -5252.90254418 eV

  Self-consistency convergence accuracy:
  | Change of charge density      :  0.2473E-04
  | Change of sum of eigenvalues  : -0.1110E-01 eV
  | Change of total energy        : -0.4518E-02 eV

  End self-consistency iteration #    39       :  max(cpu_time)    wall_clock(cpu1)
  | Time for this iteration                    :       10.402 s          10.401 s
  | Charge density update                      :        2.829 s           2.828 s
  | Density mixing & preconditioning           :        0.174 s           0.174 s
  | Hartree multipole update                   :        0.005 s           0.005 s
  | Hartree multipole summation                :        2.483 s           2.483 s
  | Integration                                :        1.727 s           1.727 s
  | Solution of K.-S. eqns.                    :        3.183 s           3.183 s
  | Total energy evaluation                    :        0.000 s           0.000 s

  Partial memory accounting:
  | Current value for overall tracked memory usage on task 0  :          35.324 MB
  | Peak value for overall tracked memory usage on task 0     :          37.960 MB after allocating wave
  | Largest tracked array allocation on task 0 so far         :          33.713 MB  when allocating +KS_eigenvector_complex
  Note:  These values currently only include a subset of arrays which are explicitly tracked.
  The "true" memory usage will be greater.
------------------------------------------------------------

------------------------------------------------------------
          Begin self-consistency iteration #   40

  Date     :  20190514, Time     :  103720.231
------------------------------------------------------------
  Evaluating new KS density using the density matrix
  Evaluating density matrix
  Time summed over all CPUs for getting density from density matrix: real work        2.908 s, elapsed        2.908 s
  Integration grid: deviation in total charge (<rho> - N_e) =   1.816147E-11
  Pulay mixing of updated and previous charge densities.

  Evaluating partitioned Hartree potential by multipole expansion.
  | Analytical far-field extrapolation by fixed multipoles:
  | Hartree multipole sum: apparent total charge =  -0.151875E-02
  Summing up the Hartree potential.
  Time summed over all CPUs for potential: real work        2.571 s, elapsed        2.571 s
  | RMS charge density error from multipole expansion :   0.219101E-01
  | Average real-space part of the electrostatic potential :      0.06315744 eV

  Integrating Hamiltonian matrix: batch-based integration.
  Time summed over all CPUs for integration: real work        1.736 s, elapsed        1.736 s

  Updating Kohn-Sham eigenvalues, eigenvectors, occupation numbers, and Fermi level.
  Solving generalized eigenproblem

  Obtaining occupation numbers and chemical potential using ELSI.
  | Chemical potential (Fermi level):    -5.39998751eV
  What follows are estimated values for band gap, HOMO, LUMO, etc.
  | They are estimated on a discrete k-point grid and not necessarily exact.
  | For converged numbers, create a DOS and/or band structure plot on a denser k-grid.

  Highest occupied state (VBM) at     -5.41130399 eV (relative to internal zero)
  | Occupation number:      1.25109110
  | K-point:      57 at    0.250000    0.375000    0.000000 (in units of recip. lattice)

  Lowest unoccupied state (CBM) at    -5.39913249 eV (relative to internal zero)
  | Occupation number:      0.98070616
  | K-point:      16 at    0.083333    0.083333    0.000000 (in units of recip. lattice)

  ESTIMATED overall HOMO-LUMO gap:      0.01217150 eV between HOMO at k-point 57 and LUMO at k-point 16
  | This appears to be an indirect band gap.
  | Smallest direct gap :      0.05844866 eV for k_point 3 at    0.083333    0.083333    0.000000 (in units of recip. lattice)
  However, this system has fractional occupation numbers. Since we use a finite k-point grid,
  this material is metallic within the approximate finite broadening function (occupation_type)
  applied to determine the occupation numbers.

  Total energy components:
  | Sum of eigenvalues            :       -1308.99406382 Ha      -35619.54077876 eV
  | XC energy correction          :        -159.93690645 Ha       -4352.10465721 eV
  | XC potential correction       :         211.28390641 Ha        5749.32761607 eV
  | Free-atom electrostatic energy:       -1054.10779300 Ha      -28683.73245965 eV
  | Hartree energy correction     :          -4.73236782 Ha        -128.77428030 eV
  | Entropy correction            :          -0.00012925 Ha          -0.00351710 eV
  | ---------------------------
  | Total energy                  :       -2316.48722467 Ha      -63034.82455984 eV
  | Total energy, T -> 0          :       -2316.48735392 Ha      -63034.82807695 eV  <-- do not rely on this value for anything but (periodic) metals
  | Electronic free energy        :       -2316.48748317 Ha      -63034.83159405 eV

  Derived energy quantities:
  | Kinetic energy                :        2320.46105499 Ha       63142.95798456 eV
  | Electrostatic energy          :       -4477.01137321 Ha     -121825.67788720 eV
  | Energy correction for multipole
  | error in Hartree potential    :           0.05260995 Ha           1.43158950 eV
  | Sum of eigenvalues per atom                           :       -2968.29506490 eV
  | Total energy (T->0) per atom                          :       -5252.90233975 eV  <-- do not rely on this value for anything but (periodic) metals
  | Electronic free energy per atom                       :       -5252.90263284 eV

  Self-consistency convergence accuracy:
  | Change of charge density      :  0.1599E-04
  | Change of sum of eigenvalues  : -0.2672E-02 eV
  | Change of total energy        : -0.1064E-02 eV

  End self-consistency iteration #    40       :  max(cpu_time)    wall_clock(cpu1)
  | Time for this iteration                    :       10.789 s          10.790 s
  | Charge density update                      :        3.100 s           3.100 s
  | Density mixing & preconditioning           :        0.187 s           0.187 s
  | Hartree multipole update                   :        0.006 s           0.006 s
  | Hartree multipole summation                :        2.637 s           2.638 s
  | Integration                                :        1.736 s           1.736 s
  | Solution of K.-S. eqns.                    :        3.122 s           3.122 s
  | Total energy evaluation                    :        0.000 s           0.001 s

  Partial memory accounting:
  | Current value for overall tracked memory usage on task 0  :          35.324 MB
  | Peak value for overall tracked memory usage on task 0     :          37.960 MB after allocating wave
  | Largest tracked array allocation on task 0 so far         :          33.713 MB  when allocating +KS_eigenvector_complex
  Note:  These values currently only include a subset of arrays which are explicitly tracked.
  The "true" memory usage will be greater.
------------------------------------------------------------

  Energy and forces in a compact form:
  | Total energy uncorrected      :         -0.630348245598446E+05 eV
  | Total energy corrected        :         -0.630348280769462E+05 eV  <-- do not rely on this value for anything but (periodic) metals
  | Electronic free energy        :         -0.630348315940477E+05 eV

  ------------------------------------ 
  Start decomposition of the XC Energy 
  ------------------------------------ 
  X and C from original XC functional choice 
  Hartree-Fock Energy :          0.000000000 Ha              0.000000000 eV
  X Energy            :       -151.183781608 Ha          -4113.920011495 eV
  C Energy            :         -8.753124844 Ha           -238.184645713 eV
  Total XC Energy     :       -159.936906452 Ha          -4352.104657208 eV
  ------------------------------------ 
  LDA X and C from self-consistent density 
  X Energy LDA        :       -151.183781608 Ha          -4113.920011495 eV
  C Energy LDA        :         -8.753124844 Ha           -238.184645713 eV
  ------------------------------------ 
  End decomposition of the XC Energy 
  ------------------------------------ 

------------------------------------------------------------

 ***********************************************************
 *
 * WARNING! SELF-CONSISTENCY CYCLE DID NOT CONVERGE
 * USING YOUR PRESELECTED ACCURACY CRITERIA.
 * DO NOT RELY ON ANY FINAL DATA WITHOUT FURTHER CHECKS.
 *
 ***********************************************************
 * NO POSTPROCESSING WILL BE DONE
 * IF YOU WANT POSTPROCESSING ANYWAY, SET postprocess_anyway TO .true.
 ***********************************************************

------------------------------------------------------------
          Leaving FHI-aims.
          Date     :  20190514, Time     :  103731.071

          Computational steps:
          | Number of self-consistency cycles          :           40
          | Number of SCF (re)initializations          :            1

          Detailed time accounting                     :  max(cpu_time)    wall_clock(cpu1)
          | Total time                                 :      440.215 s         440.255 s
          | Preparation time                           :        0.110 s           0.114 s
          | Boundary condition initalization           :        0.526 s           0.528 s
          | Grid partitioning                          :        0.162 s           0.164 s
          | Preloading free-atom quantities on grid    :        0.002 s           0.002 s
          | Free-atom superposition energy             :        0.149 s           0.149 s
          | Total time for integrations                :       75.855 s          75.852 s
          | Total time for solution of K.-S. equations :      134.796 s         134.803 s
          | Total time for density update              :      118.426 s         118.426 s
          | Total time for mixing & preconditioning    :        7.769 s           7.769 s
          | Total time for Hartree multipole update    :        0.219 s           0.216 s
          | Total time for Hartree multipole sum       :      101.413 s         101.417 s
          | Total time for total energy evaluation     :        0.012 s           0.017 s
          | Total time for scaled ZORA corrections     :        0.000 s           0.000 s

 This is a stub MPI_ALLREDUCE call.
 You should not be here. Check your
 setting on the use_mpi variable, or
 link against true MPI-libraries.
