------------------------------------------------------------
          Invoking FHI-aims ...
          Version 171221_1
          Compiled on 2019/05/06 at 14:26:40 on host ffph0xx.

          When using FHI-aims, please cite the following reference:

          Volker Blum, Ralf Gehrke, Felix Hanke, Paula Havu,
          Ville Havu, Xinguo Ren, Karsten Reuter, and Matthias Scheffler,
          'Ab Initio Molecular Simulations with Numeric Atom-Centered Orbitals',
          Computer Physics Communications 180, 2175-2196 (2009)

          For any questions about FHI-aims, please visit the aimsclub website
          with its forums and wiki. Contributions to both the forums and the
          wiki are warmly encouraged - they are for you, and everyone is welcome there.

------------------------------------------------------------



  Date     :  20190509, Time     :  114713.907
  Time zero on CPU 1             :   0.658000000000000E-03  s.
  Internal wall clock time zero  :           326634433.907  s.

  FHI-aims created a unique identifier for this run for later identification
  aims_uuid : 811F0C26-0A1E-4970-A59B-F193EFACDCDD


  Performing system and environment tests:
  *** Environment variable OMP_NUM_THREADS is not set
  *** For performance reasons you might want to set it to 1
  | Stacksize not measured: no C compiler

  Obtaining array dimensions for all initial allocations:
  
  -----------------------------------------------------------------------
  Parsing control.in (first pass over file, find array dimensions only).
  The contents of control.in will be repeated verbatim below
  unless switched off by setting 'verbatim_writeout .false.' .
  in the first line of control.in .
  -----------------------------------------------------------------------
  
  # Sample input file for the relaxation
  # of the H3O+ molecule
  #######################################
    xc  pw-lda
    charge 1.0
    spin none
  
  #######Iteration limit####################
    sc_iter_limit 100
  
  #######Relaxation######################
    ###############relax_geometry trm 1E-3
  
  #######Species#########################
  ################################################################################
  #
  #  FHI-aims code project
  #  VB, Fritz-Haber Institut, 2009
  #
  #  Suggested "light" defaults for H atom (to be pasted into control.in file)
  #  Be sure to double-check any results obtained with these settings for post-processing,
  #  e.g., with the "tight" defaults and larger basis sets.
  #
  ################################################################################
    species        H
  #     global species definitions
      nucleus             1
      mass                1.00794
  #
      l_hartree           4
  #
      cut_pot             3.5  1.5  1.0
      basis_dep_cutoff    1e-4
  #
      radial_base         24 5.0
      radial_multiplier   1
      angular_grids       specified
        division   0.2421   50
        division   0.3822  110
        division   0.4799  194
        division   0.5341  302
  #      division   0.5626  434
  #      division   0.5922  590
  #      division   0.6542  770
  #      division   0.6868 1202
  #      outer_grid  770
        outer_grid  302
  ################################################################################
  #
  #  Definition of "minimal" basis
  #
  ################################################################################
  #     valence basis states
      valence      1  s   1.
  #     ion occupancy
      ion_occ      1  s   0.5
  ################################################################################
  #
  #  Suggested additional basis functions. For production calculations,
  #  uncomment them one after another (the most important basis functions are
  #  listed first).
  #
  #  Basis constructed for dimers: 0.5 A, 0.7 A, 1.0 A, 1.5 A, 2.5 A
  #
  ################################################################################
  #  "First tier" - improvements: -1014.90 meV to -62.69 meV
       hydro 2 s 2.1
       hydro 2 p 3.5
  #  "Second tier" - improvements: -12.89 meV to -1.83 meV
  #     hydro 1 s 0.85
  #     hydro 2 p 3.7
  #     hydro 2 s 1.2
  #     hydro 3 d 7
  #  "Third tier" - improvements: -0.25 meV to -0.12 meV
  #     hydro 4 f 11.2
  #     hydro 3 p 4.8
  #     hydro 4 d 9
  #     hydro 3 s 3.2
  ################################################################################
  #
  #  FHI-aims code project
  #  VB, Fritz-Haber Institut, 2009
  #
  #  Suggested "light" defaults for O atom (to be pasted into control.in file)
  #  Be sure to double-check any results obtained with these settings for post-processing,
  #  e.g., with the "tight" defaults and larger basis sets.
  #
  ################################################################################
    species        O
  #     global species definitions
      nucleus             8
      mass                15.9994
  #
      l_hartree           4
  #
      cut_pot             3.5  1.5  1.0
      basis_dep_cutoff    1e-4
  #
      radial_base         36 5.0
      radial_multiplier   1
       angular_grids specified
        division   0.2659   50
        division   0.4451  110
        division   0.6052  194
        division   0.7543  302
  #      division   0.8014  434
  #      division   0.8507  590
  #      division   0.8762  770
  #      division   0.9023  974
  #      division   1.2339 1202
  #      outer_grid 974
        outer_grid 302
  ################################################################################
  #
  #  Definition of "minimal" basis
  #
  ################################################################################
  #     valence basis states
      valence      2  s   2.
      valence      2  p   4.
  #     ion occupancy
      ion_occ      2  s   1.
      ion_occ      2  p   3.
  ################################################################################
  #
  #  Suggested additional basis functions. For production calculations,
  #  uncomment them one after another (the most important basis functions are
  #  listed first).
  #
  #  Constructed for dimers: 1.0 A, 1.208 A, 1.5 A, 2.0 A, 3.0 A
  #
  ################################################################################
  #  "First tier" - improvements: -699.05 meV to -159.38 meV
       hydro 2 p 1.8
       hydro 3 d 7.6
       hydro 3 s 6.4
  #  "Second tier" - improvements: -49.91 meV to -5.39 meV
  #     hydro 4 f 11.6
  #     hydro 3 p 6.2
  #     hydro 3 d 5.6
  #     hydro 5 g 17.6
  #     hydro 1 s 0.75
  #  "Third tier" - improvements: -2.83 meV to -0.50 meV
  #     ionic 2 p auto
  #     hydro 4 f 10.8
  #     hydro 4 d 4.7
  #     hydro 2 s 6.8
  #  "Fourth tier" - improvements: -0.40 meV to -0.12 meV
  #     hydro 3 p 5
  #     hydro 3 s 3.3
  #     hydro 5 g 15.6
  #     hydro 4 f 17.6
  #     hydro 4 d 14
  # Further basis functions - -0.08 meV and below
  #     hydro 3 s 2.1
  #     hydro 4 d 11.6
  #     hydro 3 p 16
  #     hydro 2 s 17.2
  /afs/ictp.it/public/shared/smr2475/fhi-aims/species_defaults/light/01_H_default
  compute_forces .true.
  final_forces_cleaned .true.
  output dipole
  
  -----------------------------------------------------------------------
  Completed first pass over input file control.in .
  -----------------------------------------------------------------------
  
  
  -----------------------------------------------------------------------
  Parsing geometry.in (first pass over file, find array dimensions only).
  The contents of geometry.in will be repeated verbatim below
  unless switched off by setting 'verbatim_writeout .false.' .
  in the first line of geometry.in .
  -----------------------------------------------------------------------
  
  #
  # temporary structure-file for finite-difference calculation of forces
  # displacement  -0.0020 of \# atom     2 direction     1
  #
  atom    0.00000000    0.00001836    0.19077151   O
  atom    0.82425584   -0.47587261    0.47423563   H
  atom   -0.82425584   -0.47787261    0.47423563   H
  atom   -0.00000000    0.95172688    0.47446636   H
  
  -----------------------------------------------------------------------
  Completed first pass over input file geometry.in .
  -----------------------------------------------------------------------
  

  Basic array size parameters:
  | Number of species                 :        2
  | Number of atoms                   :        4
  | Max. basis fn. angular momentum   :        2
  | Max. atomic/ionic basis occupied n:        2
  | Max. number of basis fn. types    :        2
  | Max. radial fns per species/type  :        3
  | Max. logarithmic grid size        :     1301
  | Max. radial integration grid size :       36
  | Max. angular integration grid size:      302
  | Max. angular grid division number :        8
  | Radial grid for Hartree potential :     1301
  | Number of spin channels           :        1

------------------------------------------------------------
          Reading file control.in.
------------------------------------------------------------
  XC: Using Perdew-Wang parametrisation of Ceperley-Alder LDA.
  Charged system requested: Charge =   0.100000E+01.
  Spin treatment: No spin polarisation.
  Maximum number of s.-c. iterations  :   100

  Reading configuration options for species H                   .
  | Found nuclear charge :   1.0000
  | Found atomic mass :    1.0079400000000001      amu
  | Found l_max for Hartree potential  :   4
  | Found cutoff potl. onset [A], width [A], scale factor :    3.50000    1.50000    1.00000
  | Threshold for basis-dependent cutoff potential is   0.100000E-03
  | Found data for basic radial integration grid :    24 points, outermost radius =    5.000 A
  | Found multiplier for basic radial grid :   1
  | Found angular grid specification: user-specified.
  | Specified grid contains     5 separate shells.
  | Check grid settings after all constraints further below.
  | Found free-atom valence shell :  1 s   1.000
  | No ionic wave fns used. Skipping ion_occ.
  | Found hydrogenic basis function :  2 s   2.100
  | Found hydrogenic basis function :  2 p   3.500
  Species H                   : Missing cutoff potential type.
  Defaulting to exp(1/x)/(1-x)^2 type cutoff potential.
  Species H : No 'logarithmic' tag. Using default grid for free atom:
  | Default logarithmic grid data [bohr] : 0.1000E-03 0.1000E+03 0.1012E+01
  Species H : On-site basis accuracy parameter (for Gram-Schmidt orthonormalisation) not specified.
  Using default value basis_acc =  0.1000000E-03.
  Species H                   : Using default innermost maximum threshold i_radial=  2 for radial functions.
  Species H                   : Default cutoff onset for free atom density etc. : 0.35000000E+01 AA.
  Species H                   : Basic radial grid will be enhanced according to radial_multiplier =   1, to contain    24 grid points.

  Reading configuration options for species O                   .
  | Found nuclear charge :   8.0000
  | Found atomic mass :    15.999400000000000      amu
  | Found l_max for Hartree potential  :   4
  | Found cutoff potl. onset [A], width [A], scale factor :    3.50000    1.50000    1.00000
  | Threshold for basis-dependent cutoff potential is   0.100000E-03
  | Found data for basic radial integration grid :    36 points, outermost radius =    5.000 A
  | Found multiplier for basic radial grid :   1
  | Found angular grid specification: user-specified.
  | Specified grid contains     5 separate shells.
  | Check grid settings after all constraints further below.
  | Found free-atom valence shell :  2 s   2.000
  | Found free-atom valence shell :  2 p   4.000
  | No ionic wave fns used. Skipping ion_occ.
  | No ionic wave fns used. Skipping ion_occ.
  | Found hydrogenic basis function :  2 p   1.800
  | Found hydrogenic basis function :  3 d   7.600
  | Found hydrogenic basis function :  3 s   6.400
  Species O                   : Missing cutoff potential type.
  Defaulting to exp(1/x)/(1-x)^2 type cutoff potential.
  Species O : No 'logarithmic' tag. Using default grid for free atom:
  | Default logarithmic grid data [bohr] : 0.1000E-03 0.1000E+03 0.1012E+01
  Species O : On-site basis accuracy parameter (for Gram-Schmidt orthonormalisation) not specified.
  Using default value basis_acc =  0.1000000E-03.
  Species O                   : Using default innermost maximum threshold i_radial=  2 for radial functions.
  Species O                   : Default cutoff onset for free atom density etc. : 0.35000000E+01 AA.
  Species O                   : Basic radial grid will be enhanced according to radial_multiplier =   1, to contain    36 grid points.
  Forces will be computed.
  Cleaning forces before final output.
  Dipole moment will be written out.

  Finished reading input file 'control.in'. Consistency checks are next.

  MPI_IN_PLACE appears to work with this MPI implementation.
  | Keeping use_mpi_in_place .true. (see manual).
  Target number of points in a grid batch is not set. Defaulting to  100
  Method for grid partitioning is not set. Defaulting to 'maxmin' partitioning.
  Batch size limit is not set. Defaulting to    200
  By default, will store active basis functions for each batch.
  If in need of memory, prune_basis_once .false. can be used to disable this option.
  communication_type for Hartree potential was not specified.
  Defaulting to calc_hartree .
 * Attention: 
 * You may want to set distributed_spline_storage to .true. in order to save memory.
 * This doesn't harm performance and is perfectly ok unless:
 * - you get error messages in postprocessing (about missing atoms in get_rho_multipole_spl)
 * - you need full spline storage in hirshfeld_analysis
  Defaulting to Pulay charge density mixer.
  Pulay mixer: Number of relevant iterations not set.
  Defaulting to    8 iterations.
  Pulay mixer: Number of initial linear mixing iterations not set.
  Defaulting to    0 iterations.
  Work space size for distributed Hartree potential not set.
  Defaulting to   0.200000E+03 MB.
  Mixing parameter for charge density mixing has not been set.
  Using default: charge_mix_param =     0.0500.
  The mixing parameter will be adjusted in iteration number     2 of the first full s.c.f. cycle only.
  Algorithm-dependent basis array size parameters:
  | n_max_pulay                         :        8
 * Notice: The s.c.f. convergence criterion sc_accuracy_rho was not provided.
 * We used to stop in this case, and ask the user to provide reasonable
 * scf convergence criteria. However, this led some users to employ criteria
 * that led to extremely long run times, e.g., for simple relaxation.
 * We now preset a default value for sc_accuracy_rho if it is not set.
 * You may still wish to check if this setting is too tight or too loose for your needs.
 * Based on n_atoms, FHI-aims chose sc_accuracy_rho =  0.100000E-05 .
  Presetting      1001 iterations before the initial mixing cycle
  is restarted anyway using the sc_init_iter criterion / keyword.
  Presetting a factor      1.000 between actual scf density residual
  and density convergence criterion sc_accuracy_rho below which sc_init_iter
  takes no effect.
 * No s.c.f. convergence criteria (sc_accuracy_*) were provided in control.in.
 * The run will proceed with a reasonable default guess, but please check whether.
 * the s.c.f. cycles seem to take too much or too little time.
  Geometry relaxation not requested: no relaxation will be performed.
  Force calculation: scf convergence accuracy of forces not set.
  Defaulting to 'sc_accuracy_forces not_checked'.
  Handling of forces: Unphysical translation and rotation will be removed from forces.
  No accuracy limit for integral partition fn. given. Defaulting to  0.1000E-14.
  No threshold value for u(r) in integrations given. Defaulting to  0.1000E-05.
  No occupation type (smearing scheme) given. Defaulting to Gaussian broadening, width =  0.1000E-01 eV.
  The width will be adjusted in iteration number     2 of the first full s.c.f. cycle only.
  S.C.F. convergence parameters will be adjusted in iteration number     2 of the first full s.c.f. cycle only.
  No accuracy for occupation numbers given. Defaulting to  0.1000E-12.
  No threshold value for occupation numbers given. Defaulting to  0.0000E+00.
  No accuracy for fermi level given. Defaulting to  0.1000E-19.
  Maximum # of iterations to find E_F not set. Defaulting to  200.
  Preferred method for the eigenvalue solver ('KS_method') not specified in 'control.in'.
  Defaulting to serial version, 'lapack_fast'.
  Will not use alltoall communication since running on < 1024 CPUs.
  Threshold for basis singularities not set.
  Default threshold for basis singularities:  0.1000E-04
  partition_type (choice of integration weights) for integrals was not specified.
  | Using a version of the partition function of Stratmann and coworkers ('stratmann_smoother').
  | At each grid point, the set of atoms used to build the partition table is smoothly restricted to
  | only those atoms whose free-atom density would be non-zero at that grid point.
  Partitioning for Hartree potential was not defined. Using partition_type for integrals.
  | Adjusted default value of keyword multip_moments_threshold to:       0.10000000E-11
  | This value may affect high angular momentum components of the Hartree potential in periodic systems.
  No q(lm)/r^(l+1) cutoff set for long-range Hartree potential.
  | Using default value of  0.100000E-09 .
  | Verify using the multipole_threshold keyword.
  Defaulting to new monopole extrapolation.
  Density update method: automatic selection selected.
------------------------------------------------------------


------------------------------------------------------------
          Reading geometry description geometry.in.
------------------------------------------------------------
 * Warning: Initial charge and total charge of the system are inconsistent.
 * Selected charge in control.in:     1.0000* Sum of initial charges in geometry.in:     0.0000
 * Warning! You did not set the 'relativistic' flag in input file 'control.in'.
 * Since you are not attempting to treat any elements beyond Ca(Z=20), FHI-aims
 * will default to 'relativistic none'.
 * You must ensure that this is really what you want!!
 * For example, DO NOT compute total-energy differences between results from
 * different settings of the 'relativistic' flag.
  Input structure read successfully.
  The structure contains        4 atoms,  and a total of         10.000 electrons.

  Input geometry:
  | No unit cell requested.
  | Atomic structure:
  |       Atom                x [A]            y [A]            z [A]
  |    1: Species O             0.00000000        0.00001836        0.19077151
  |    2: Species H             0.82425584       -0.47587261        0.47423563
  |    3: Species H            -0.82425584       -0.47787261        0.47423563
  |    4: Species H            -0.00000000        0.95172688        0.47446636
  |

  | The smallest distance between any two atoms is         0.99308701 AA.
  |
  | The first atom of this pair is atom number                      1 .
  | The second atom of this pair is atom number                     2 .

  Number of empty states per atom not set in control.in - providing a guess from actual geometry.
  | Total number of empty states used during s.c.f. cycle:        8
  If you use a very high smearing, use empty_states (per atom!) in control.in to increase this value.

  Structure-dependent array size parameters: 
  | Maximum number of distinct radial functions  :        9
  | Maximum number of basis functions            :       29
  | Number of Kohn-Sham states (occupied + empty):       13
------------------------------------------------------------

------------------------------------------------------------
          Preparing all fixed parts of the calculation.
------------------------------------------------------------
  Determining machine precision:
     2.2250738585072014E-308
  Setting up grids for atomic and cluster calculations.

  Creating wave function, potential, and density for free atoms.

  Species: H

  List of occupied orbitals and eigenvalues:
    n    l              occ      energy [Ha]    energy [eV]
    1    0           1.0000        -0.232375        -6.3233


  Species: O

  List of occupied orbitals and eigenvalues:
    n    l              occ      energy [Ha]    energy [eV]
    1    0           2.0000       -18.757744      -510.4242
    2    0           2.0000        -0.870917       -23.6989
    2    1           4.0000        -0.337950        -9.1961

  Creating fixed part of basis set: Ionic, confined, hydrogenic.

  H                    hydrogenic:

  List of hydrogenic basis orbitals: 
    n    l      effective z      eigenvalue [eV]  inner max. [A]     outer max. [A]     outer radius [A]   
    2    0         2.100000       -14.9728           0.193243           1.317208           4.583499
    2    1         3.500000       -41.6669           0.602369           0.602369           3.723403


  O                    hydrogenic:

  List of hydrogenic basis orbitals: 
    n    l      effective z      eigenvalue [eV]  inner max. [A]     outer max. [A]     outer radius [A]   
    2    1         1.800000       -10.9749           1.164242           1.164242           4.578029
    3    2         7.600000       -87.3180           0.624125           0.624125           3.251020
    3    0         6.400000       -61.9207           0.061167           1.081902           4.001998


  Adding cutoff potential to free-atom effective potential.
  Creating atomic-like basis functions for current effective potential.

  Species H                   :

  List of atomic basis orbitals and eigenvalues:
    n    l      energy [Ha]    energy [eV]    outer radius [A]
    1    0        -0.232375        -6.3233       4.527807


  Species O                   :

  List of atomic basis orbitals and eigenvalues:
    n    l      energy [Ha]    energy [eV]    outer radius [A]
    1    0       -18.757744      -510.4242       1.433179
    2    0        -0.870917       -23.6989       4.413171
    2    1        -0.337950        -9.1961       4.522403

  Assembling full basis from fixed parts.
  | Species H :   atomic orbital   1 s accepted.
  | Species H :    hydro orbital   2 s accepted.
  | Species H :    hydro orbital   2 p accepted.
  | Species O :   atomic orbital   1 s accepted.
  | Species O :    hydro orbital   3 s accepted.
  | Species O :   atomic orbital   2 s accepted.
  | Species O :   atomic orbital   2 p accepted.
  | Species O :    hydro orbital   2 p accepted.
  | Species O :    hydro orbital   3 d accepted.

  Basis size parameters after reduction:
  | Total number of radial functions:        9
  | Total number of basis functions :       29

  Per-task memory consumption for arrays in subroutine allocate_ext:
  |           2.249476MB.
  Testing on-site integration grid accuracy.
  |  Species  Function  <phi|h_atom|phi> (log., in eV)  <phi|h_atom|phi> (rad., in eV)
           1        1                 -6.3245358373                 -6.3232436907
           1        2                 14.1326137532                 14.1384481100
           1        3                 25.3627025200                 25.3628451197
           2        4               -510.4241781769               -510.4240769412
           2        5                 14.9072942218                 14.9072945276
           2        6                -21.2004736467                -21.2005650544
           2        7                 -9.1962086499                 -9.1963509828
           2        8                  8.1896755011                  8.1702200086
           2        9                 45.7920584945                 45.7920228528

  Preparing densities etc. for the partition functions (integrals / Hartree potential).

  Preparations completed.
  max(cpu_time)          :      0.051 s.
  Wall clock time (cpu1) :      0.051 s.
------------------------------------------------------------

------------------------------------------------------------
          Begin self-consistency loop: Initialization.

          Date     :  20190509, Time     :  114713.959
------------------------------------------------------------

  Initializing index lists of integration centers etc. from given atomic structure:
  | Number of centers in hartree potential         :         4
  | Number of centers in hartree multipole         :         4
  | Number of centers in electron density summation:         4
  | Number of centers in basis integrals           :         4
  | Number of centers in integrals                 :         4
  | Number of centers in hamiltonian               :         4
  Partitioning the integration grid into batches with maxmin method.
  | Maximal weight for a single point:     1.000
  | Minimal weight for a single point:     0.000
  | Number of batches:      256
  | Maximal batch size:      83
  | Minimal batch size:      78
  | Average batch size:      80.719
  | Standard deviation of batch sizes:       1.484
  Initializing partition tables, free-atom densities, potentials, etc. across the integration grid (initialize_grid_storage).
  | initialize_grid_storage: Actual outermost partition radius vs. multipole_radius_free
  | (-- VB: in principle, multipole_radius_free should be larger, hence this output)
  | Species        1: Confinement radius =              4.999999999999999 AA, multipole_radius_free =              5.054417573612229 AA.
  | Species        1: outer_partition_radius set to              5.054417573612229 AA .
  | Species        2: Confinement radius =              4.999999999999999 AA, multipole_radius_free =              5.048384829883283 AA.
  | Species        2: outer_partition_radius set to              5.048384829883283 AA .
  | Original list of interatomic distances with           4 x          4 entries is created.
  | Net number of integration points:    20664
  | of which are non-zero points    :    18386
  Renormalizing the initial density to the exact electron count on the 3D integration grid.
  | Initial density: Formal number of electrons (from input files) :      11.0000000000
  | Integrated number of electrons on 3D grid     :      10.9999418557
  | Charge integration error                      :      -0.0000581443
  | Normalization factor for density and gradient :       1.0000052859
  Obtaining max. number of non-zero basis functions in each batch (get_n_compute_maxes).
  | Maximal number of non-zero basis functions:       29 in task     0
  Selecting the method for density update.
  Loop over occupied states selected for charge density update.
  Allocating        0.003 MB for KS_eigenvector
  Integrating Hamiltonian matrix: batch-based integration.
  Time summed over all CPUs for integration: real work        0.029 s, elapsed        0.029 s
  Integrating overlap matrix.
  Time summed over all CPUs for integration: real work        0.015 s, elapsed        0.015 s

  Updating Kohn-Sham eigenvalues, eigenvectors, occupation numbers, and Fermi level.
  Solving generalized eigenproblem
  Updating Kohn-Sham eigenvalues and eigenfunctions.
  Transforming overlap matrix and checking for singularities.
  Overlap matrix is nonsingular:
  | Lowest eigenvalue:  0.148271E-01
  Solving real generalised eigenvalue problem by standard LAPACK (fast)

  Obtaining occupation numbers and chemical potential using ELSI.
  | Chemical potential (Fermi level):    -6.77073902eV
  Writing Kohn-Sham eigenvalues.

  State    Occupation    Eigenvalue [Ha]    Eigenvalue [eV]
      1       2.00000         -18.911364         -514.60440
      2       2.00000          -1.150663          -31.31112
      3       2.00000          -0.670928          -18.25687
      4       2.00000          -0.670525          -18.24590
      5       2.00000          -0.507357          -13.80589
      6       0.00000          -0.090528           -2.46339
      7       0.00000           0.002217            0.06034
      8       0.00000           0.002488            0.06771
      9       0.00000           0.199785            5.43642
     10       0.00000           0.264661            7.20179
     11       0.00000           0.265052            7.21243
     12       0.00000           0.466776           12.70161
     13       0.00000           0.669010           18.20469

  Highest occupied state (VBM) at    -13.80588794 eV
  | Occupation number:      2.00000000

  Lowest unoccupied state (CBM) at    -2.46338795 eV
  | Occupation number:      0.00000000

  Overall HOMO-LUMO gap:     11.34249999 eV.
  Calculating total energy contributions from superposition of free atom densities.

  Total energy components:
  | Sum of eigenvalues            :         -43.82167179 Ha       -1192.44836043 eV
  | XC energy correction          :          -8.86325328 Ha        -241.18139280 eV
  | XC potential correction       :          11.67084177 Ha         317.57976271 eV
  | Free-atom electrostatic energy:         -35.29912246 Ha        -960.53799377 eV
  | Hartree energy correction     :          -0.00000000 Ha          -0.00000000 eV
  | Entropy correction            :          -0.00000000 Ha          -0.00000000 eV
  | ---------------------------
  | Total energy                  :         -76.31320576 Ha       -2076.58798428 eV
  | Total energy, T -> 0          :         -76.31320576 Ha       -2076.58798428 eV  <-- do not rely on this value for anything but (periodic) metals
  | Electronic free energy        :         -76.31320576 Ha       -2076.58798428 eV

  Derived energy quantities:
  | Kinetic energy                :          75.66347434 Ha        2058.90789283 eV
  | Electrostatic energy          :        -143.11342682 Ha       -3894.31448430 eV
  | Energy correction for multipole
  | error in Hartree potential    :           0.00000000 Ha           0.00000000 eV
  | Sum of eigenvalues per atom                           :        -298.11209011 eV
  | Total energy (T->0) per atom                          :        -519.14699607 eV  <-- do not rely on this value for anything but (periodic) metals
  | Electronic free energy per atom                       :        -519.14699607 eV
  Initialize hartree_potential_storage
  Max. number of atoms included in rho_multipole:            4

  End scf initialization - timings             :  max(cpu_time)    wall_clock(cpu1)
  | Time for scf. initialization               :        0.085 s           0.085 s
  | Boundary condition initialization          :        0.000 s           0.000 s
  | Integration                                :        0.044 s           0.044 s
  | Solution of K.-S. eqns.                    :        0.001 s           0.000 s
  | Grid partitioning                          :        0.014 s           0.014 s
  | Preloading free-atom quantities on grid    :        0.001 s           0.001 s
  | Free-atom superposition energy             :        0.013 s           0.013 s
  | Total energy evaluation                    :        0.000 s           0.000 s

  Partial memory accounting:
  | Current value for overall tracked memory usage on task 0  :           0.017 MB
  | Peak value for overall tracked memory usage on task 0     :           0.075 MB after allocating wave
  | Largest tracked array allocation on task 0 so far         :           0.019 MB  when allocating H_times_psi
  Note:  These values currently only include a subset of arrays which are explicitly tracked.
  The "true" memory usage will be greater.
------------------------------------------------------------

------------------------------------------------------------
          Begin self-consistency iteration #    1

  Date     :  20190509, Time     :  114714.044
------------------------------------------------------------
  Evaluating new KS density.
  Integration grid: deviation in total charge (<rho> - N_e) =   1.598721E-14
  Pulay mixing of updated and previous charge densities.

  Evaluating partitioned Hartree potential by multipole expansion.
  | Analytical far-field extrapolation by fixed multipoles:
  | Hartree multipole sum: apparent total charge =   0.499220E-01
  Summing up the Hartree potential.
  Time summed over all CPUs for potential: real work        0.016 s, elapsed        0.016 s
  | RMS charge density error from multipole expansion :   0.485749E-03

  Integrating Hamiltonian matrix: batch-based integration.
  Time summed over all CPUs for integration: real work        0.028 s, elapsed        0.028 s

  Updating Kohn-Sham eigenvalues, eigenvectors, occupation numbers, and Fermi level.
  Solving generalized eigenproblem
  Updating Kohn-Sham eigenvalues and eigenfunctions.
  Solving real generalised eigenvalue problem by standard LAPACK (fast)

  Obtaining occupation numbers and chemical potential using ELSI.
  | Chemical potential (Fermi level):    -6.98855317eV
  Writing Kohn-Sham eigenvalues.

  State    Occupation    Eigenvalue [Ha]    Eigenvalue [eV]
      1       2.00000         -18.901825         -514.34483
      2       2.00000          -1.154812          -31.42403
      3       2.00000          -0.676368          -18.40490
      4       2.00000          -0.675966          -18.39396
      5       2.00000          -0.510002          -13.87786
      6       0.00000          -0.100832           -2.74377
      7       0.00000          -0.007420           -0.20192
      8       0.00000          -0.007144           -0.19439
      9       0.00000           0.192659            5.24251
     10       0.00000           0.254794            6.93331
     11       0.00000           0.255184            6.94392
     12       0.00000           0.456134           12.41204
     13       0.00000           0.660143           17.96339

  Highest occupied state (VBM) at    -13.87786177 eV
  | Occupation number:      2.00000000

  Lowest unoccupied state (CBM) at    -2.74377388 eV
  | Occupation number:      0.00000000

  Overall HOMO-LUMO gap:     11.13408789 eV.

  Total energy components:
  | Sum of eigenvalues            :         -43.83794506 Ha       -1192.89117861 eV
  | XC energy correction          :          -8.86638889 Ha        -241.26671712 eV
  | XC potential correction       :          11.67519384 Ha         317.69818871 eV
  | Free-atom electrostatic energy:         -35.29912246 Ha        -960.53799377 eV
  | Hartree energy correction     :           0.03285146 Ha           0.89393379 eV
  | Entropy correction            :          -0.00000000 Ha          -0.00000000 eV
  | ---------------------------
  | Total energy                  :         -76.29541110 Ha       -2076.10376700 eV
  | Total energy, T -> 0          :         -76.29541110 Ha       -2076.10376700 eV  <-- do not rely on this value for anything but (periodic) metals
  | Electronic free energy        :         -76.29541110 Ha       -2076.10376700 eV

  Derived energy quantities:
  | Kinetic energy                :          75.75246929 Ha        2061.32956858 eV
  | Electrostatic energy          :        -143.18149150 Ha       -3896.16661846 eV
  | Energy correction for multipole
  | error in Hartree potential    :           0.00050696 Ha           0.01379496 eV
  | Sum of eigenvalues per atom                           :        -298.22279465 eV
  | Total energy (T->0) per atom                          :        -519.02594175 eV  <-- do not rely on this value for anything but (periodic) metals
  | Electronic free energy per atom                       :        -519.02594175 eV

  Self-consistency convergence accuracy:
  | Change of charge density      :  0.2572E+00
  | Change of sum of eigenvalues  : -0.4428E+00 eV
  | Change of total energy        :  0.4842E+00 eV

  End self-consistency iteration #     1       :  max(cpu_time)    wall_clock(cpu1)
  | Time for this iteration                    :        0.059 s           0.059 s
  | Charge density update                      :        0.013 s           0.013 s
  | Density mixing                             :        0.000 s           0.000 s
  | Hartree multipole update                   :        0.002 s           0.001 s
  | Hartree multipole summation                :        0.017 s           0.017 s
  | Integration                                :        0.028 s           0.028 s
  | Solution of K.-S. eqns.                    :        0.000 s           0.000 s
  | Total energy evaluation                    :        0.000 s           0.000 s

  Partial memory accounting:
  | Current value for overall tracked memory usage on task 0  :           0.017 MB
  | Peak value for overall tracked memory usage on task 0     :           0.082 MB after allocating wave
  | Largest tracked array allocation on task 0 so far         :           0.019 MB  when allocating H_times_psi
  Note:  These values currently only include a subset of arrays which are explicitly tracked.
  The "true" memory usage will be greater.
------------------------------------------------------------

------------------------------------------------------------
          Begin self-consistency iteration #    2

  Date     :  20190509, Time     :  114714.103
------------------------------------------------------------
  Evaluating new KS density.
  Integration grid: deviation in total charge (<rho> - N_e) =  -7.105427E-15
  Pulay mixing of updated and previous charge densities.

  Evaluating partitioned Hartree potential by multipole expansion.
  | Analytical far-field extrapolation by fixed multipoles:
  | Hartree multipole sum: apparent total charge =   0.436336E+00
  Summing up the Hartree potential.
  Time summed over all CPUs for potential: real work        0.017 s, elapsed        0.017 s
  | RMS charge density error from multipole expansion :   0.418610E-02

  Integrating Hamiltonian matrix: batch-based integration.
  Time summed over all CPUs for integration: real work        0.029 s, elapsed        0.029 s

  Updating Kohn-Sham eigenvalues, eigenvectors, occupation numbers, and Fermi level.
  Solving generalized eigenproblem
  Updating Kohn-Sham eigenvalues and eigenfunctions.
  Solving real generalised eigenvalue problem by standard LAPACK (fast)

  Obtaining occupation numbers and chemical potential using ELSI.
  | Chemical potential (Fermi level):    -8.70806853eV
  Highest occupied state (VBM) at    -14.66668229 eV
  | Occupation number:      2.00000000

  Lowest unoccupied state (CBM) at    -4.88163869 eV
  | Occupation number:      0.00000000

  Overall HOMO-LUMO gap:      9.78504360 eV.

  Checking to see if s.c.f. parameters should be adjusted.
  The system likely has a gap. Increased the default Pulay mixing parameter (charge_mix_param). Value:   0.200000 .
  Kept the default occupation width. Value:   0.010000 eV.

  Total energy components:
  | Sum of eigenvalues            :         -44.06282010 Ha       -1199.01033997 eV
  | XC energy correction          :          -8.88956883 Ha        -241.89747536 eV
  | XC potential correction       :          11.70736390 Ha         318.57358055 eV
  | Free-atom electrostatic energy:         -35.29912246 Ha        -960.53799377 eV
  | Hartree energy correction     :           0.33572418 Ha           9.13551974 eV
  | Entropy correction            :          -0.00000000 Ha          -0.00000000 eV
  | ---------------------------
  | Total energy                  :         -76.20842331 Ha       -2073.73670880 eV
  | Total energy, T -> 0          :         -76.20842331 Ha       -2073.73670880 eV  <-- do not rely on this value for anything but (periodic) metals
  | Electronic free energy        :         -76.20842331 Ha       -2073.73670880 eV

  Derived energy quantities:
  | Kinetic energy                :          76.28403910 Ha        2075.79431907 eV
  | Electrostatic energy          :        -143.60289358 Ha       -3907.63355252 eV
  | Energy correction for multipole
  | error in Hartree potential    :           0.00418110 Ha           0.11377353 eV
  | Sum of eigenvalues per atom                           :        -299.75258499 eV
  | Total energy (T->0) per atom                          :        -518.43417720 eV  <-- do not rely on this value for anything but (periodic) metals
  | Electronic free energy per atom                       :        -518.43417720 eV

  Self-consistency convergence accuracy:
  | Change of charge density      :  0.2323E+00
  | Change of sum of eigenvalues  : -0.6119E+01 eV
  | Change of total energy        :  0.2367E+01 eV

  End self-consistency iteration #     2       :  max(cpu_time)    wall_clock(cpu1)
  | Time for this iteration                    :        0.060 s           0.060 s
  | Charge density update                      :        0.012 s           0.012 s
  | Density mixing                             :        0.000 s           0.000 s
  | Hartree multipole update                   :        0.002 s           0.002 s
  | Hartree multipole summation                :        0.017 s           0.017 s
  | Integration                                :        0.029 s           0.029 s
  | Solution of K.-S. eqns.                    :        0.000 s           0.000 s
  | Total energy evaluation                    :        0.000 s           0.000 s

  Partial memory accounting:
  | Current value for overall tracked memory usage on task 0  :           0.018 MB
  | Peak value for overall tracked memory usage on task 0     :           0.083 MB after allocating wave
  | Largest tracked array allocation on task 0 so far         :           0.019 MB  when allocating H_times_psi
  Note:  These values currently only include a subset of arrays which are explicitly tracked.
  The "true" memory usage will be greater.
------------------------------------------------------------

------------------------------------------------------------
          Begin self-consistency iteration #    3

  Date     :  20190509, Time     :  114714.163
------------------------------------------------------------
  Evaluating new KS density.
  Integration grid: deviation in total charge (<rho> - N_e) =   3.019807E-14
  Pulay mixing of updated and previous charge densities.

  Evaluating partitioned Hartree potential by multipole expansion.
  | Analytical far-field extrapolation by fixed multipoles:
  | Hartree multipole sum: apparent total charge =   0.853601E+00
  Summing up the Hartree potential.
  Time summed over all CPUs for potential: real work        0.017 s, elapsed        0.017 s
  | RMS charge density error from multipole expansion :   0.782422E-02

  Integrating Hamiltonian matrix: batch-based integration.
  Time summed over all CPUs for integration: real work        0.028 s, elapsed        0.028 s

  Updating Kohn-Sham eigenvalues, eigenvectors, occupation numbers, and Fermi level.
  Solving generalized eigenproblem
  Updating Kohn-Sham eigenvalues and eigenfunctions.
  Solving real generalised eigenvalue problem by standard LAPACK (fast)

  Obtaining occupation numbers and chemical potential using ELSI.
  | Chemical potential (Fermi level):   -11.61866116eV
  Highest occupied state (VBM) at    -18.15424837 eV
  | Occupation number:      2.00000000

  Lowest unoccupied state (CBM) at    -7.59743291 eV
  | Occupation number:      0.00000000

  Overall HOMO-LUMO gap:     10.55681546 eV.

  Total energy components:
  | Sum of eigenvalues            :         -45.44929180 Ha       -1236.73815449 eV
  | XC energy correction          :          -8.79498539 Ha        -239.32372916 eV
  | XC potential correction       :          11.58385600 Ha         315.21275955 eV
  | Free-atom electrostatic energy:         -35.29912246 Ha        -960.53799377 eV
  | Hartree energy correction     :           1.78333176 Ha          48.52692631 eV
  | Entropy correction            :          -0.00000000 Ha          -0.00000000 eV
  | ---------------------------
  | Total energy                  :         -76.17621189 Ha       -2072.86019156 eV
  | Total energy, T -> 0          :         -76.17621189 Ha       -2072.86019156 eV  <-- do not rely on this value for anything but (periodic) metals
  | Electronic free energy        :         -76.17621189 Ha       -2072.86019156 eV

  Derived energy quantities:
  | Kinetic energy                :          75.81768353 Ha        2063.10413849 eV
  | Electrostatic energy          :        -143.19891003 Ha       -3896.64060089 eV
  | Energy correction for multipole
  | error in Hartree potential    :           0.00574236 Ha           0.15625756 eV
  | Sum of eigenvalues per atom                           :        -309.18453862 eV
  | Total energy (T->0) per atom                          :        -518.21504789 eV  <-- do not rely on this value for anything but (periodic) metals
  | Electronic free energy per atom                       :        -518.21504789 eV

  Self-consistency convergence accuracy:
  | Change of charge density      :  0.1082E+00
  | Change of sum of eigenvalues  : -0.3773E+02 eV
  | Change of total energy        :  0.8765E+00 eV

  End self-consistency iteration #     3       :  max(cpu_time)    wall_clock(cpu1)
  | Time for this iteration                    :        0.058 s           0.058 s
  | Charge density update                      :        0.011 s           0.011 s
  | Density mixing                             :        0.000 s           0.001 s
  | Hartree multipole update                   :        0.002 s           0.001 s
  | Hartree multipole summation                :        0.017 s           0.017 s
  | Integration                                :        0.028 s           0.028 s
  | Solution of K.-S. eqns.                    :        0.000 s           0.000 s
  | Total energy evaluation                    :        0.000 s           0.000 s

  Partial memory accounting:
  | Current value for overall tracked memory usage on task 0  :           0.018 MB
  | Peak value for overall tracked memory usage on task 0     :           0.083 MB after allocating wave
  | Largest tracked array allocation on task 0 so far         :           0.019 MB  when allocating H_times_psi
  Note:  These values currently only include a subset of arrays which are explicitly tracked.
  The "true" memory usage will be greater.
------------------------------------------------------------

------------------------------------------------------------
          Begin self-consistency iteration #    4

  Date     :  20190509, Time     :  114714.221
------------------------------------------------------------
  Evaluating new KS density.
  Integration grid: deviation in total charge (<rho> - N_e) =   1.598721E-14
  Pulay mixing of updated and previous charge densities.

  Evaluating partitioned Hartree potential by multipole expansion.
  | Analytical far-field extrapolation by fixed multipoles:
  | Hartree multipole sum: apparent total charge =   0.100710E+01
  Summing up the Hartree potential.
  Time summed over all CPUs for potential: real work        0.018 s, elapsed        0.018 s
  | RMS charge density error from multipole expansion :   0.924812E-02

  Integrating Hamiltonian matrix: batch-based integration.
  Time summed over all CPUs for integration: real work        0.029 s, elapsed        0.029 s

  Updating Kohn-Sham eigenvalues, eigenvectors, occupation numbers, and Fermi level.
  Solving generalized eigenproblem
  Updating Kohn-Sham eigenvalues and eigenfunctions.
  Solving real generalised eigenvalue problem by standard LAPACK (fast)

  Obtaining occupation numbers and chemical potential using ELSI.
  | Chemical potential (Fermi level):   -12.33555207eV
  Highest occupied state (VBM) at    -18.92304557 eV
  | Occupation number:      2.00000000

  Lowest unoccupied state (CBM) at    -8.36120756 eV
  | Occupation number:      0.00000000

  Overall HOMO-LUMO gap:     10.56183801 eV.

  Total energy components:
  | Sum of eigenvalues            :         -45.73653646 Ha       -1244.55447928 eV
  | XC energy correction          :          -8.79108952 Ha        -239.21771709 eV
  | XC potential correction       :          11.57918109 Ha         315.08554871 eV
  | Free-atom electrostatic energy:         -35.29912246 Ha        -960.53799377 eV
  | Hartree energy correction     :           2.07368661 Ha          56.42788369 eV
  | Entropy correction            :          -0.00000000 Ha          -0.00000000 eV
  | ---------------------------
  | Total energy                  :         -76.17388074 Ha       -2072.79675773 eV
  | Total energy, T -> 0          :         -76.17388074 Ha       -2072.79675773 eV  <-- do not rely on this value for anything but (periodic) metals
  | Electronic free energy        :         -76.17388074 Ha       -2072.79675773 eV

  Derived energy quantities:
  | Kinetic energy                :          75.79938620 Ha        2062.60624272 eV
  | Electrostatic energy          :        -143.18217742 Ha       -3896.18528336 eV
  | Energy correction for multipole
  | error in Hartree potential    :           0.00665690 Ha           0.18114342 eV
  | Sum of eigenvalues per atom                           :        -311.13861982 eV
  | Total energy (T->0) per atom                          :        -518.19918943 eV  <-- do not rely on this value for anything but (periodic) metals
  | Electronic free energy per atom                       :        -518.19918943 eV

  Self-consistency convergence accuracy:
  | Change of charge density      :  0.4482E-01
  | Change of sum of eigenvalues  : -0.7816E+01 eV
  | Change of total energy        :  0.6343E-01 eV

  End self-consistency iteration #     4       :  max(cpu_time)    wall_clock(cpu1)
  | Time for this iteration                    :        0.062 s           0.062 s
  | Charge density update                      :        0.012 s           0.012 s
  | Density mixing                             :        0.000 s           0.001 s
  | Hartree multipole update                   :        0.003 s           0.002 s
  | Hartree multipole summation                :        0.018 s           0.018 s
  | Integration                                :        0.028 s           0.029 s
  | Solution of K.-S. eqns.                    :        0.000 s           0.000 s
  | Total energy evaluation                    :        0.000 s           0.000 s

  Partial memory accounting:
  | Current value for overall tracked memory usage on task 0  :           0.019 MB
  | Peak value for overall tracked memory usage on task 0     :           0.083 MB after allocating wave
  | Largest tracked array allocation on task 0 so far         :           0.019 MB  when allocating H_times_psi
  Note:  These values currently only include a subset of arrays which are explicitly tracked.
  The "true" memory usage will be greater.
------------------------------------------------------------

------------------------------------------------------------
          Begin self-consistency iteration #    5

  Date     :  20190509, Time     :  114714.283
------------------------------------------------------------
  Evaluating new KS density.
  Integration grid: deviation in total charge (<rho> - N_e) =  -3.552714E-15
  Pulay mixing of updated and previous charge densities.

  Evaluating partitioned Hartree potential by multipole expansion.
  | Analytical far-field extrapolation by fixed multipoles:
  | Hartree multipole sum: apparent total charge =   0.101052E+01
  Summing up the Hartree potential.
  Time summed over all CPUs for potential: real work        0.017 s, elapsed        0.017 s
  | RMS charge density error from multipole expansion :   0.934727E-02

  Integrating Hamiltonian matrix: batch-based integration.
  Time summed over all CPUs for integration: real work        0.028 s, elapsed        0.028 s

  Updating Kohn-Sham eigenvalues, eigenvectors, occupation numbers, and Fermi level.
  Solving generalized eigenproblem
  Updating Kohn-Sham eigenvalues and eigenfunctions.
  Solving real generalised eigenvalue problem by standard LAPACK (fast)

  Obtaining occupation numbers and chemical potential using ELSI.
  | Chemical potential (Fermi level):   -12.17486047eV
  Highest occupied state (VBM) at    -18.70551779 eV
  | Occupation number:      2.00000000

  Lowest unoccupied state (CBM) at    -8.24044536 eV
  | Occupation number:      0.00000000

  Overall HOMO-LUMO gap:     10.46507244 eV.

  Total energy components:
  | Sum of eigenvalues            :         -45.64230791 Ha       -1241.99038998 eV
  | XC energy correction          :          -8.80465717 Ha        -239.58691151 eV
  | XC potential correction       :          11.59705595 Ha         315.57194846 eV
  | Free-atom electrostatic energy:         -35.29912246 Ha        -960.53799377 eV
  | Hartree energy correction     :           1.97525090 Ha          53.74931184 eV
  | Entropy correction            :          -0.00000000 Ha          -0.00000000 eV
  | ---------------------------
  | Total energy                  :         -76.17378068 Ha       -2072.79403495 eV
  | Total energy, T -> 0          :         -76.17378068 Ha       -2072.79403495 eV  <-- do not rely on this value for anything but (periodic) metals
  | Electronic free energy        :         -76.17378068 Ha       -2072.79403495 eV

  Derived energy quantities:
  | Kinetic energy                :          75.84704847 Ha        2063.90319916 eV
  | Electrostatic energy          :        -143.21617199 Ha       -3897.11032260 eV
  | Energy correction for multipole
  | error in Hartree potential    :           0.00645674 Ha           0.17569682 eV
  | Sum of eigenvalues per atom                           :        -310.49759750 eV
  | Total energy (T->0) per atom                          :        -518.19850874 eV  <-- do not rely on this value for anything but (periodic) metals
  | Electronic free energy per atom                       :        -518.19850874 eV

  Self-consistency convergence accuracy:
  | Change of charge density      :  0.1073E-01
  | Change of sum of eigenvalues  :  0.2564E+01 eV
  | Change of total energy        :  0.2723E-02 eV

  End self-consistency iteration #     5       :  max(cpu_time)    wall_clock(cpu1)
  | Time for this iteration                    :        0.059 s           0.059 s
  | Charge density update                      :        0.011 s           0.011 s
  | Density mixing                             :        0.001 s           0.001 s
  | Hartree multipole update                   :        0.001 s           0.001 s
  | Hartree multipole summation                :        0.017 s           0.017 s
  | Integration                                :        0.028 s           0.028 s
  | Solution of K.-S. eqns.                    :        0.000 s           0.000 s
  | Total energy evaluation                    :        0.000 s           0.000 s

  Partial memory accounting:
  | Current value for overall tracked memory usage on task 0  :           0.019 MB
  | Peak value for overall tracked memory usage on task 0     :           0.083 MB after allocating wave
  | Largest tracked array allocation on task 0 so far         :           0.019 MB  when allocating H_times_psi
  Note:  These values currently only include a subset of arrays which are explicitly tracked.
  The "true" memory usage will be greater.
------------------------------------------------------------

------------------------------------------------------------
          Begin self-consistency iteration #    6

  Date     :  20190509, Time     :  114714.342
------------------------------------------------------------
  Evaluating new KS density.
  Integration grid: deviation in total charge (<rho> - N_e) =   3.552714E-15
  Pulay mixing of updated and previous charge densities.

  Evaluating partitioned Hartree potential by multipole expansion.
  | Analytical far-field extrapolation by fixed multipoles:
  | Hartree multipole sum: apparent total charge =   0.100145E+01
  Summing up the Hartree potential.
  Time summed over all CPUs for potential: real work        0.017 s, elapsed        0.017 s
  | RMS charge density error from multipole expansion :   0.925396E-02

  Integrating Hamiltonian matrix: batch-based integration.
  Time summed over all CPUs for integration: real work        0.029 s, elapsed        0.029 s

  Updating Kohn-Sham eigenvalues, eigenvectors, occupation numbers, and Fermi level.
  Solving generalized eigenproblem
  Updating Kohn-Sham eigenvalues and eigenfunctions.
  Solving real generalised eigenvalue problem by standard LAPACK (fast)

  Obtaining occupation numbers and chemical potential using ELSI.
  | Chemical potential (Fermi level):   -12.20436264eV
  Highest occupied state (VBM) at    -18.75560074 eV
  | Occupation number:      2.00000000

  Lowest unoccupied state (CBM) at    -8.24067441 eV
  | Occupation number:      0.00000000

  Overall HOMO-LUMO gap:     10.51492634 eV.

  Total energy components:
  | Sum of eigenvalues            :         -45.66773693 Ha       -1242.68234883 eV
  | XC energy correction          :          -8.79946446 Ha        -239.44561078 eV
  | XC potential correction       :          11.59017484 Ha         315.38470400 eV
  | Free-atom electrostatic energy:         -35.29912246 Ha        -960.53799377 eV
  | Hartree energy correction     :           2.00239166 Ha          54.48784945 eV
  | Entropy correction            :          -0.00000000 Ha          -0.00000000 eV
  | ---------------------------
  | Total energy                  :         -76.17375735 Ha       -2072.79339993 eV
  | Total energy, T -> 0          :         -76.17375735 Ha       -2072.79339993 eV  <-- do not rely on this value for anything but (periodic) metals
  | Electronic free energy        :         -76.17375735 Ha       -2072.79339993 eV

  Derived energy quantities:
  | Kinetic energy                :          75.81659733 Ha        2063.07458135 eV
  | Electrostatic energy          :        -143.19089021 Ha       -3896.42237050 eV
  | Energy correction for multipole
  | error in Hartree potential    :           0.00635068 Ha           0.17281082 eV
  | Sum of eigenvalues per atom                           :        -310.67058721 eV
  | Total energy (T->0) per atom                          :        -518.19834998 eV  <-- do not rely on this value for anything but (periodic) metals
  | Electronic free energy per atom                       :        -518.19834998 eV

  Self-consistency convergence accuracy:
  | Change of charge density      :  0.7277E-02
  | Change of sum of eigenvalues  : -0.6920E+00 eV
  | Change of total energy        :  0.6350E-03 eV

  End self-consistency iteration #     6       :  max(cpu_time)    wall_clock(cpu1)
  | Time for this iteration                    :        0.060 s           0.059 s
  | Charge density update                      :        0.011 s           0.011 s
  | Density mixing                             :        0.001 s           0.000 s
  | Hartree multipole update                   :        0.002 s           0.002 s
  | Hartree multipole summation                :        0.017 s           0.017 s
  | Integration                                :        0.029 s           0.029 s
  | Solution of K.-S. eqns.                    :        0.000 s           0.000 s
  | Total energy evaluation                    :        0.000 s           0.000 s

  Partial memory accounting:
  | Current value for overall tracked memory usage on task 0  :           0.019 MB
  | Peak value for overall tracked memory usage on task 0     :           0.084 MB after allocating wave
  | Largest tracked array allocation on task 0 so far         :           0.019 MB  when allocating H_times_psi
  Note:  These values currently only include a subset of arrays which are explicitly tracked.
  The "true" memory usage will be greater.
------------------------------------------------------------

------------------------------------------------------------
          Begin self-consistency iteration #    7

  Date     :  20190509, Time     :  114714.401
------------------------------------------------------------
  Evaluating new KS density.
  Integration grid: deviation in total charge (<rho> - N_e) =  -1.776357E-15
  Pulay mixing of updated and previous charge densities.

  Evaluating partitioned Hartree potential by multipole expansion.
  | Analytical far-field extrapolation by fixed multipoles:
  | Hartree multipole sum: apparent total charge =   0.999109E+00
  Summing up the Hartree potential.
  Time summed over all CPUs for potential: real work        0.017 s, elapsed        0.017 s
  | RMS charge density error from multipole expansion :   0.924791E-02

  Integrating Hamiltonian matrix: batch-based integration.
  Time summed over all CPUs for integration: real work        0.028 s, elapsed        0.028 s

  Updating Kohn-Sham eigenvalues, eigenvectors, occupation numbers, and Fermi level.
  Solving generalized eigenproblem
  Updating Kohn-Sham eigenvalues and eigenfunctions.
  Solving real generalised eigenvalue problem by standard LAPACK (fast)

  Obtaining occupation numbers and chemical potential using ELSI.
  | Chemical potential (Fermi level):   -12.15205914eV
  Highest occupied state (VBM) at    -18.67628264 eV
  | Occupation number:      2.00000000

  Lowest unoccupied state (CBM) at    -8.19661312 eV
  | Occupation number:      0.00000000

  Overall HOMO-LUMO gap:     10.47966952 eV.

  Total energy components:
  | Sum of eigenvalues            :         -45.63727694 Ha       -1241.85349032 eV
  | XC energy correction          :          -8.80300804 Ha        -239.54203666 eV
  | XC potential correction       :          11.59483098 Ha         315.51140400 eV
  | Free-atom electrostatic energy:         -35.29912246 Ha        -960.53799377 eV
  | Hartree energy correction     :           1.97083376 Ha          53.62911534 eV
  | Entropy correction            :          -0.00000000 Ha          -0.00000000 eV
  | ---------------------------
  | Total energy                  :         -76.17374270 Ha       -2072.79300142 eV
  | Total energy, T -> 0          :         -76.17374270 Ha       -2072.79300142 eV  <-- do not rely on this value for anything but (periodic) metals
  | Electronic free energy        :         -76.17374270 Ha       -2072.79300142 eV

  Derived energy quantities:
  | Kinetic energy                :          75.82633542 Ha        2063.33956825 eV
  | Electrostatic energy          :        -143.19707007 Ha       -3896.59053300 eV
  | Energy correction for multipole
  | error in Hartree potential    :           0.00624116 Ha           0.16983060 eV
  | Sum of eigenvalues per atom                           :        -310.46337258 eV
  | Total energy (T->0) per atom                          :        -518.19825035 eV  <-- do not rely on this value for anything but (periodic) metals
  | Electronic free energy per atom                       :        -518.19825035 eV

  Self-consistency convergence accuracy:
  | Change of charge density      :  0.3747E-02
  | Change of sum of eigenvalues  :  0.8289E+00 eV
  | Change of total energy        :  0.3985E-03 eV

  End self-consistency iteration #     7       :  max(cpu_time)    wall_clock(cpu1)
  | Time for this iteration                    :        0.058 s           0.059 s
  | Charge density update                      :        0.012 s           0.012 s
  | Density mixing                             :        0.001 s           0.001 s
  | Hartree multipole update                   :        0.002 s           0.001 s
  | Hartree multipole summation                :        0.016 s           0.017 s
  | Integration                                :        0.028 s           0.028 s
  | Solution of K.-S. eqns.                    :        0.000 s           0.000 s
  | Total energy evaluation                    :        0.000 s           0.000 s

  Partial memory accounting:
  | Current value for overall tracked memory usage on task 0  :           0.019 MB
  | Peak value for overall tracked memory usage on task 0     :           0.084 MB after allocating wave
  | Largest tracked array allocation on task 0 so far         :           0.019 MB  when allocating H_times_psi
  Note:  These values currently only include a subset of arrays which are explicitly tracked.
  The "true" memory usage will be greater.
------------------------------------------------------------

------------------------------------------------------------
          Begin self-consistency iteration #    8

  Date     :  20190509, Time     :  114714.460
------------------------------------------------------------
  Evaluating new KS density.
  Integration grid: deviation in total charge (<rho> - N_e) =   0.000000E+00
  Pulay mixing of updated and previous charge densities.

  Evaluating partitioned Hartree potential by multipole expansion.
  | Analytical far-field extrapolation by fixed multipoles:
  | Hartree multipole sum: apparent total charge =   0.999326E+00
  Summing up the Hartree potential.
  Time summed over all CPUs for potential: real work        0.016 s, elapsed        0.016 s
  | RMS charge density error from multipole expansion :   0.925108E-02

  Integrating Hamiltonian matrix: batch-based integration.
  Time summed over all CPUs for integration: real work        0.029 s, elapsed        0.029 s

  Updating Kohn-Sham eigenvalues, eigenvectors, occupation numbers, and Fermi level.
  Solving generalized eigenproblem
  Updating Kohn-Sham eigenvalues and eigenfunctions.
  Solving real generalised eigenvalue problem by standard LAPACK (fast)

  Obtaining occupation numbers and chemical potential using ELSI.
  | Chemical potential (Fermi level):   -12.14802216eV
  Highest occupied state (VBM) at    -18.67057509 eV
  | Occupation number:      2.00000000

  Lowest unoccupied state (CBM) at    -8.19364158 eV
  | Occupation number:      0.00000000

  Overall HOMO-LUMO gap:     10.47693351 eV.

  Total energy components:
  | Sum of eigenvalues            :         -45.63516616 Ha       -1241.79605320 eV
  | XC energy correction          :          -8.80334478 Ha        -239.55119981 eV
  | XC potential correction       :          11.59527417 Ha         315.52346392 eV
  | Free-atom electrostatic energy:         -35.29912246 Ha        -960.53799377 eV
  | Hartree energy correction     :           1.96861672 Ha          53.56878645 eV
  | Entropy correction            :          -0.00000000 Ha          -0.00000000 eV
  | ---------------------------
  | Total energy                  :         -76.17374252 Ha       -2072.79299641 eV
  | Total energy, T -> 0          :         -76.17374252 Ha       -2072.79299641 eV  <-- do not rely on this value for anything but (periodic) metals
  | Electronic free energy        :         -76.17374252 Ha       -2072.79299641 eV

  Derived energy quantities:
  | Kinetic energy                :          75.82679590 Ha        2063.35209857 eV
  | Electrostatic energy          :        -143.19719363 Ha       -3896.59389517 eV
  | Energy correction for multipole
  | error in Hartree potential    :           0.00622679 Ha           0.16943950 eV
  | Sum of eigenvalues per atom                           :        -310.44901330 eV
  | Total energy (T->0) per atom                          :        -518.19824910 eV  <-- do not rely on this value for anything but (periodic) metals
  | Electronic free energy per atom                       :        -518.19824910 eV

  Self-consistency convergence accuracy:
  | Change of charge density      :  0.5250E-03
  | Change of sum of eigenvalues  :  0.5744E-01 eV
  | Change of total energy        :  0.5005E-05 eV

  End self-consistency iteration #     8       :  max(cpu_time)    wall_clock(cpu1)
  | Time for this iteration                    :        0.060 s           0.060 s
  | Charge density update                      :        0.011 s           0.011 s
  | Density mixing                             :        0.001 s           0.001 s
  | Hartree multipole update                   :        0.001 s           0.001 s
  | Hartree multipole summation                :        0.016 s           0.017 s
  | Integration                                :        0.030 s           0.029 s
  | Solution of K.-S. eqns.                    :        0.000 s           0.001 s
  | Total energy evaluation                    :        0.000 s           0.000 s

  Partial memory accounting:
  | Current value for overall tracked memory usage on task 0  :           0.020 MB
  | Peak value for overall tracked memory usage on task 0     :           0.084 MB after allocating wave
  | Largest tracked array allocation on task 0 so far         :           0.019 MB  when allocating H_times_psi
  Note:  These values currently only include a subset of arrays which are explicitly tracked.
  The "true" memory usage will be greater.
------------------------------------------------------------

------------------------------------------------------------
          Begin self-consistency iteration #    9

  Date     :  20190509, Time     :  114714.520
------------------------------------------------------------
  Evaluating new KS density.
  Integration grid: deviation in total charge (<rho> - N_e) =   1.776357E-14
  Pulay mixing of updated and previous charge densities.

  Evaluating partitioned Hartree potential by multipole expansion.
  | Analytical far-field extrapolation by fixed multipoles:
  | Hartree multipole sum: apparent total charge =   0.999550E+00
  Summing up the Hartree potential.
  Time summed over all CPUs for potential: real work        0.018 s, elapsed        0.018 s
  | RMS charge density error from multipole expansion :   0.925133E-02

  Integrating Hamiltonian matrix: batch-based integration.
  Time summed over all CPUs for integration: real work        0.028 s, elapsed        0.028 s

  Updating Kohn-Sham eigenvalues, eigenvectors, occupation numbers, and Fermi level.
  Solving generalized eigenproblem
  Updating Kohn-Sham eigenvalues and eigenfunctions.
  Solving real generalised eigenvalue problem by standard LAPACK (fast)

  Obtaining occupation numbers and chemical potential using ELSI.
  | Chemical potential (Fermi level):   -12.14713152eV
  Highest occupied state (VBM) at    -18.66952476 eV
  | Occupation number:      2.00000000

  Lowest unoccupied state (CBM) at    -8.19304067 eV
  | Occupation number:      0.00000000

  Overall HOMO-LUMO gap:     10.47648409 eV.

  Total energy components:
  | Sum of eigenvalues            :         -45.63509660 Ha       -1241.79416028 eV
  | XC energy correction          :          -8.80339333 Ha        -239.55252087 eV
  | XC potential correction       :          11.59533764 Ha         315.52519097 eV
  | Free-atom electrostatic energy:         -35.29912246 Ha        -960.53799377 eV
  | Hartree energy correction     :           1.96853255 Ha          53.56649617 eV
  | Entropy correction            :          -0.00000000 Ha          -0.00000000 eV
  | ---------------------------
  | Total energy                  :         -76.17374220 Ha       -2072.79298776 eV
  | Total energy, T -> 0          :         -76.17374220 Ha       -2072.79298776 eV  <-- do not rely on this value for anything but (periodic) metals
  | Electronic free energy        :         -76.17374220 Ha       -2072.79298776 eV

  Derived energy quantities:
  | Kinetic energy                :          75.82597830 Ha        2063.32985051 eV
  | Electrostatic energy          :        -143.19632716 Ha       -3896.57031741 eV
  | Energy correction for multipole
  | error in Hartree potential    :           0.00621024 Ha           0.16898926 eV
  | Sum of eigenvalues per atom                           :        -310.44854007 eV
  | Total energy (T->0) per atom                          :        -518.19824694 eV  <-- do not rely on this value for anything but (periodic) metals
  | Electronic free energy per atom                       :        -518.19824694 eV

  Self-consistency convergence accuracy:
  | Change of charge density      :  0.2095E-03
  | Change of sum of eigenvalues  :  0.1893E-02 eV
  | Change of total energy        :  0.8650E-05 eV

  End self-consistency iteration #     9       :  max(cpu_time)    wall_clock(cpu1)
  | Time for this iteration                    :        0.061 s           0.061 s
  | Charge density update                      :        0.011 s           0.011 s
  | Density mixing                             :        0.001 s           0.001 s
  | Hartree multipole update                   :        0.001 s           0.002 s
  | Hartree multipole summation                :        0.018 s           0.018 s
  | Integration                                :        0.029 s           0.028 s
  | Solution of K.-S. eqns.                    :        0.000 s           0.000 s
  | Total energy evaluation                    :        0.000 s           0.000 s

  Partial memory accounting:
  | Current value for overall tracked memory usage on task 0  :           0.020 MB
  | Peak value for overall tracked memory usage on task 0     :           0.085 MB after allocating wave
  | Largest tracked array allocation on task 0 so far         :           0.019 MB  when allocating H_times_psi
  Note:  These values currently only include a subset of arrays which are explicitly tracked.
  The "true" memory usage will be greater.
------------------------------------------------------------

------------------------------------------------------------
          Begin self-consistency iteration #   10

  Date     :  20190509, Time     :  114714.581
------------------------------------------------------------
  Evaluating new KS density.
  Integration grid: deviation in total charge (<rho> - N_e) =   7.105427E-15
  Pulay mixing of updated and previous charge densities.

  Evaluating partitioned Hartree potential by multipole expansion.
  | Analytical far-field extrapolation by fixed multipoles:
  | Hartree multipole sum: apparent total charge =   0.999556E+00
  Summing up the Hartree potential.
  Time summed over all CPUs for potential: real work        0.017 s, elapsed        0.017 s
  | RMS charge density error from multipole expansion :   0.925144E-02

  Integrating Hamiltonian matrix: batch-based integration.
  Time summed over all CPUs for integration: real work        0.029 s, elapsed        0.029 s

  Updating Kohn-Sham eigenvalues, eigenvectors, occupation numbers, and Fermi level.
  Solving generalized eigenproblem
  Updating Kohn-Sham eigenvalues and eigenfunctions.
  Solving real generalised eigenvalue problem by standard LAPACK (fast)

  Obtaining occupation numbers and chemical potential using ELSI.
  | Chemical potential (Fermi level):   -12.14721061eV
  Highest occupied state (VBM) at    -18.66972978 eV
  | Occupation number:      2.00000000

  Lowest unoccupied state (CBM) at    -8.19309860 eV
  | Occupation number:      0.00000000

  Overall HOMO-LUMO gap:     10.47663119 eV.

  Total energy components:
  | Sum of eigenvalues            :         -45.63519007 Ha       -1241.79670381 eV
  | XC energy correction          :          -8.80338392 Ha        -239.55226467 eV
  | XC potential correction       :          11.59532521 Ha         315.52485270 eV
  | Free-atom electrostatic energy:         -35.29912246 Ha        -960.53799377 eV
  | Hartree energy correction     :           1.96862905 Ha          53.56912198 eV
  | Entropy correction            :          -0.00000000 Ha          -0.00000000 eV
  | ---------------------------
  | Total energy                  :         -76.17374219 Ha       -2072.79298757 eV
  | Total energy, T -> 0          :         -76.17374219 Ha       -2072.79298757 eV  <-- do not rely on this value for anything but (periodic) metals
  | Electronic free energy        :         -76.17374219 Ha       -2072.79298757 eV

  Derived energy quantities:
  | Kinetic energy                :          75.82592075 Ha        2063.32828452 eV
  | Electrostatic energy          :        -143.19627902 Ha       -3896.56900741 eV
  | Energy correction for multipole
  | error in Hartree potential    :           0.00620996 Ha           0.16898166 eV
  | Sum of eigenvalues per atom                           :        -310.44917595 eV
  | Total energy (T->0) per atom                          :        -518.19824689 eV  <-- do not rely on this value for anything but (periodic) metals
  | Electronic free energy per atom                       :        -518.19824689 eV

  Self-consistency convergence accuracy:
  | Change of charge density      :  0.2323E-04
  | Change of sum of eigenvalues  : -0.2544E-02 eV
  | Change of total energy        :  0.1903E-06 eV

  End self-consistency iteration #    10       :  max(cpu_time)    wall_clock(cpu1)
  | Time for this iteration                    :        0.060 s           0.060 s
  | Charge density update                      :        0.011 s           0.011 s
  | Density mixing                             :        0.001 s           0.001 s
  | Hartree multipole update                   :        0.002 s           0.001 s
  | Hartree multipole summation                :        0.017 s           0.017 s
  | Integration                                :        0.030 s           0.029 s
  | Solution of K.-S. eqns.                    :        0.000 s           0.001 s
  | Total energy evaluation                    :        0.000 s           0.000 s

  Partial memory accounting:
  | Current value for overall tracked memory usage on task 0  :           0.020 MB
  | Peak value for overall tracked memory usage on task 0     :           0.085 MB after allocating wave
  | Largest tracked array allocation on task 0 so far         :           0.019 MB  when allocating H_times_psi
  Note:  These values currently only include a subset of arrays which are explicitly tracked.
  The "true" memory usage will be greater.
------------------------------------------------------------

------------------------------------------------------------
          Begin self-consistency iteration #   11

  Date     :  20190509, Time     :  114714.641
------------------------------------------------------------
  Evaluating new KS density.
  Integration grid: deviation in total charge (<rho> - N_e) =   1.065814E-14
  Pulay mixing of updated and previous charge densities.

  Evaluating partitioned Hartree potential by multipole expansion.
  | Analytical far-field extrapolation by fixed multipoles:
  | Hartree multipole sum: apparent total charge =   0.999566E+00
  Summing up the Hartree potential.
  Time summed over all CPUs for potential: real work        0.016 s, elapsed        0.016 s
  | RMS charge density error from multipole expansion :   0.925147E-02

  Integrating Hamiltonian matrix: batch-based integration.
  Time summed over all CPUs for integration: real work        0.028 s, elapsed        0.028 s

  Updating Kohn-Sham eigenvalues, eigenvectors, occupation numbers, and Fermi level.
  Solving generalized eigenproblem
  Updating Kohn-Sham eigenvalues and eigenfunctions.
  Solving real generalised eigenvalue problem by standard LAPACK (fast)

  Obtaining occupation numbers and chemical potential using ELSI.
  | Chemical potential (Fermi level):   -12.14722202eV
  Highest occupied state (VBM) at    -18.66976561 eV
  | Occupation number:      2.00000000

  Lowest unoccupied state (CBM) at    -8.19311340 eV
  | Occupation number:      0.00000000

  Overall HOMO-LUMO gap:     10.47665220 eV.

  Total energy components:
  | Sum of eigenvalues            :         -45.63521431 Ha       -1241.79736334 eV
  | XC energy correction          :          -8.80338266 Ha        -239.55223043 eV
  | XC potential correction       :          11.59532355 Ha         315.52480743 eV
  | Free-atom electrostatic energy:         -35.29912246 Ha        -960.53799377 eV
  | Hartree energy correction     :           1.96865370 Ha          53.56979281 eV
  | Entropy correction            :          -0.00000000 Ha          -0.00000000 eV
  | ---------------------------
[...]
  | Largest tracked array allocation on task 0 so far         :           0.019 MB  when allocating H_times_psi
  Note:  These values currently only include a subset of arrays which are explicitly tracked.
  The "true" memory usage will be greater.
------------------------------------------------------------

------------------------------------------------------------
          Begin self-consistency iteration #   12

  Date     :  20190509, Time     :  114714.702
------------------------------------------------------------
  Evaluating new KS density.
  Integration grid: deviation in total charge (<rho> - N_e) =   1.953993E-14
  Pulay mixing of updated and previous charge densities.

  Evaluating partitioned Hartree potential by multipole expansion.
  | Analytical far-field extrapolation by fixed multipoles:
  | Hartree multipole sum: apparent total charge =   0.999567E+00
  Summing up the Hartree potential.
  Time summed over all CPUs for potential: real work        0.016 s, elapsed        0.016 s
  | RMS charge density error from multipole expansion :   0.925148E-02

  Integrating Hamiltonian matrix: batch-based integration.
  Time summed over all CPUs for integration: real work        0.029 s, elapsed        0.029 s

  Updating Kohn-Sham eigenvalues, eigenvectors, occupation numbers, and Fermi level.
  Solving generalized eigenproblem
  Updating Kohn-Sham eigenvalues and eigenfunctions.
  Solving real generalised eigenvalue problem by standard LAPACK (fast)

  Obtaining occupation numbers and chemical potential using ELSI.
  | Chemical potential (Fermi level):   -12.14721717eV
  Highest occupied state (VBM) at    -18.66976014 eV
  | Occupation number:      2.00000000

  Lowest unoccupied state (CBM) at    -8.19311074 eV
  | Occupation number:      0.00000000

  Overall HOMO-LUMO gap:     10.47664940 eV.

  Total energy components:
  | Sum of eigenvalues            :         -45.63521152 Ha       -1241.79728732 eV
  | XC energy correction          :          -8.80338315 Ha        -239.55224366 eV
  | XC potential correction       :          11.59532419 Ha         315.52482489 eV
  | Free-atom electrostatic energy:         -35.29912246 Ha        -960.53799377 eV
  | Hartree energy correction     :           1.96865075 Ha          53.56971253 eV
  | Entropy correction            :          -0.00000000 Ha          -0.00000000 eV
  | ---------------------------
  | Total energy                  :         -76.17374218 Ha       -2072.79298732 eV
  | Total energy, T -> 0          :         -76.17374218 Ha       -2072.79298732 eV  <-- do not rely on this value for anything but (periodic) metals
  | Electronic free energy        :         -76.17374218 Ha       -2072.79298732 eV

  Derived energy quantities:
  | Kinetic energy                :          75.82588965 Ha        2063.32743833 eV
  | Electrostatic energy          :        -143.19624869 Ha       -3896.56818199 eV
  | Energy correction for multipole
  | error in Hartree potential    :           0.00620951 Ha           0.16896941 eV
  | Sum of eigenvalues per atom                           :        -310.44932183 eV
  | Total energy (T->0) per atom                          :        -518.19824683 eV  <-- do not rely on this value for anything but (periodic) metals
  | Electronic free energy per atom                       :        -518.19824683 eV

  Self-consistency convergence accuracy:
  | Change of charge density      :  0.6889E-06
  | Change of sum of eigenvalues  :  0.7602E-04 eV
  | Change of total energy        : -0.2345E-07 eV

  Electronic self-consistency reached - switching on the force computation.

  End self-consistency iteration #    12       :  max(cpu_time)    wall_clock(cpu1)
  | Time for this iteration                    :        0.060 s           0.059 s
  | Charge density & force component update    :        0.011 s           0.011 s
  | Density mixing                             :        0.001 s           0.001 s
  | Hartree multipole update                   :        0.001 s           0.002 s
  | Hartree multipole summation                :        0.017 s           0.016 s
  | Integration                                :        0.029 s           0.029 s
  | Solution of K.-S. eqns.                    :        0.000 s           0.000 s
  | Total energy evaluation                    :        0.000 s           0.000 s

  Partial memory accounting:
  | Current value for overall tracked memory usage on task 0  :           0.020 MB
  | Peak value for overall tracked memory usage on task 0     :           0.085 MB after allocating wave
  | Largest tracked array allocation on task 0 so far         :           0.019 MB  when allocating H_times_psi
  Note:  These values currently only include a subset of arrays which are explicitly tracked.
  The "true" memory usage will be greater.
------------------------------------------------------------

------------------------------------------------------------
          Begin self-consistency iteration #   13

  Date     :  20190509, Time     :  114714.761
------------------------------------------------------------
  Evaluating new KS density and force components.
  Integration grid: deviation in total charge (<rho> - N_e) =  -3.552714E-15
  Pulay mixing of updated and previous charge densities.

  Evaluating partitioned Hartree potential by multipole expansion.
  | Analytical far-field extrapolation by fixed multipoles:
  | Hartree multipole sum: apparent total charge =   0.999567E+00
  Summing up the Hartree potential.
  Time summed over all CPUs for potential: real work        0.050 s, elapsed        0.050 s
  | RMS charge density error from multipole expansion :   0.925148E-02

  Integrating Hamiltonian matrix: batch-based integration.
  Time summed over all CPUs for integration: real work        0.028 s, elapsed        0.028 s

  Updating Kohn-Sham eigenvalues, eigenvectors, occupation numbers, and Fermi level.
  Solving generalized eigenproblem
  Updating Kohn-Sham eigenvalues and eigenfunctions.
  Solving real generalised eigenvalue problem by standard LAPACK (fast)

  Obtaining occupation numbers and chemical potential using ELSI.
  | Chemical potential (Fermi level):   -12.14721672eV
  Highest occupied state (VBM) at    -18.66975943 eV
  | Occupation number:      2.00000000

  Lowest unoccupied state (CBM) at    -8.19311038 eV
  | Occupation number:      0.00000000

  Overall HOMO-LUMO gap:     10.47664904 eV.

  Total energy components:
  | Sum of eigenvalues            :         -45.63521118 Ha       -1241.79727816 eV
  | XC energy correction          :          -8.80338319 Ha        -239.55224482 eV
  | XC potential correction       :          11.59532424 Ha         315.52482643 eV
  | Free-atom electrostatic energy:         -35.29912246 Ha        -960.53799377 eV
  | Hartree energy correction     :           1.96865040 Ha          53.56970299 eV
  | Entropy correction            :          -0.00000000 Ha          -0.00000000 eV
  | ---------------------------
  | Total energy                  :         -76.17374218 Ha       -2072.79298733 eV
  | Total energy, T -> 0          :         -76.17374218 Ha       -2072.79298733 eV  <-- do not rely on this value for anything but (periodic) metals
  | Electronic free energy        :         -76.17374218 Ha       -2072.79298733 eV

  Derived energy quantities:
  | Kinetic energy                :          75.82588989 Ha        2063.32744486 eV
  | Electrostatic energy          :        -143.19624888 Ha       -3896.56818736 eV
  | Energy correction for multipole
  | error in Hartree potential    :           0.00620951 Ha           0.16896944 eV
  | Sum of eigenvalues per atom                           :        -310.44931954 eV
  | Total energy (T->0) per atom                          :        -518.19824683 eV  <-- do not rely on this value for anything but (periodic) metals
  | Electronic free energy per atom                       :        -518.19824683 eV

  atomic forces [eV/Ang]:
  -----------------------
  atom #    1
   Hellmann-Feynman              : -0.282177E-01 -0.267471E-01 -0.882895E+01
   Ionic forces                  :  0.000000E+00  0.000000E+00  0.000000E+00
   Multipole                     : -0.890611E-03  0.164303E-02 -0.324782E+00
   Pulay                         :  0.130986E-02 -0.445004E-02  0.916366E+01
   ----------------------------------------------------------------
   Total forces(   1)            : -0.277985E-01 -0.295541E-01  0.992857E-02
  atom #    2
   Hellmann-Feynman              :  0.209968E+00 -0.117114E+00  0.133044E+00
   Ionic forces                  :  0.000000E+00  0.000000E+00  0.000000E+00
   Multipole                     :  0.498028E-01 -0.287091E-01  0.626083E-01
   Pulay                         : -0.257345E+00  0.148817E+00 -0.196478E+00
   ----------------------------------------------------------------
   Total forces(   2)            :  0.242577E-02  0.299380E-02 -0.825179E-03
  atom #    3
   Hellmann-Feynman              : -0.175462E+00 -0.913121E-01  0.122944E+00
   Ionic forces                  :  0.000000E+00  0.000000E+00  0.000000E+00
   Multipole                     : -0.497252E-01 -0.288762E-01  0.625630E-01
   Pulay                         :  0.256111E+00  0.148918E+00 -0.195895E+00
   ----------------------------------------------------------------
   Total forces(   3)            :  0.309237E-01  0.287294E-01 -0.103885E-01
  atom #    4
   Hellmann-Feynman              : -0.546096E-02  0.237739E+00  0.136841E+00
   Ionic forces                  :  0.000000E+00  0.000000E+00  0.000000E+00
   Multipole                     :  0.800807E-04  0.576047E-01  0.628064E-01
   Pulay                         : -0.167178E-03 -0.297351E+00 -0.196450E+00
   ----------------------------------------------------------------
   Total forces(   4)            : -0.554806E-02 -0.200786E-02  0.319773E-02


  Self-consistency convergence accuracy:
  | Change of charge density      :  0.4614E-07
  | Change of sum of eigenvalues  :  0.9164E-05 eV
  | Change of total energy        : -0.1674E-08 eV
  | Change of forces              :  0.4587E+01 eV/A

  Writing Kohn-Sham eigenvalues.

  State    Occupation    Eigenvalue [Ha]    Eigenvalue [eV]
      1       2.00000         -19.024176         -517.67418
      2       2.00000          -1.348331          -36.68994
      3       2.00000          -0.879691          -23.93761
      4       2.00000          -0.879307          -23.92715
      5       2.00000          -0.686101          -18.66976
      6       0.00000          -0.301091           -8.19311
      7       0.00000          -0.207337           -5.64192
      8       0.00000          -0.206965           -5.63181
      9       0.00000           0.016604            0.45181
     10       0.00000           0.052346            1.42441
     11       0.00000           0.052703            1.43411
     12       0.00000           0.240460            6.54325
     13       0.00000           0.467259           12.71476

  Highest occupied state (VBM) at    -18.66975943 eV
  | Occupation number:      2.00000000

  Lowest unoccupied state (CBM) at    -8.19311038 eV
  | Occupation number:      0.00000000

  Overall HOMO-LUMO gap:     10.47664904 eV.

  Self-consistency cycle converged.

  End self-consistency iteration #    13       :  max(cpu_time)    wall_clock(cpu1)
  | Time for this iteration                    :        0.121 s           0.122 s
  | Charge density & force component update    :        0.040 s           0.040 s
  | Density mixing                             :        0.001 s           0.001 s
  | Hartree multipole update                   :        0.001 s           0.002 s
  | Hartree multipole summation                :        0.050 s           0.050 s
  | Integration                                :        0.028 s           0.028 s
  | Solution of K.-S. eqns.                    :        0.000 s           0.000 s
  | Total energy evaluation                    :        0.000 s           0.000 s

  Partial memory accounting:
  | Current value for overall tracked memory usage on task 0  :           0.020 MB
  | Peak value for overall tracked memory usage on task 0     :           0.116 MB after allocating h_times_wave
  | Largest tracked array allocation on task 0 so far         :           0.058 MB  when allocating gradient_basis_wave
  Note:  These values currently only include a subset of arrays which are explicitly tracked.
  The "true" memory usage will be greater.
------------------------------------------------------------
  ------------------------------------------------------------
   Computing monopole / dipole moments for complete molecule:
  | Total electronic charge [e]         :          0.100000000126010E+02
  | Total ionic charge [e]              :          0.110000000000000E+02
  | Total charge [e]                    :          0.999999987399015E+00
 * Warning: The system has a total charge of      0.99999999 .
 * The dipole moment depends on the choice of the origin.
  | Total dipole moment [eAng]          :         -0.231340262192596E-03        -0.891035524348280E-03         0.587661141301426E+00
  | Absolute dipole moment              :          0.587661862347998E+00 eAng              /                   0.282222031218558E+01 Debye  .
  Removing unitary transformations (pure translations, rotations) from forces on atoms.
  Atomic forces before filtering:
  | Net force on center of mass :   0.288082E-05  0.161222E-03  0.191257E-02 eV/A
  | Net torque on center of mass:   0.131038E-04 -0.385883E-05 -0.132940E-07 eV
  Atomic forces after filtering:
  | Net force on center of mass :   0.487829E-17 -0.696899E-18  0.696899E-18 eV/A
  | Net torque on center of mass:   0.265063E-17  0.175172E-17  0.442540E-17 eV

  Energy and forces in a compact form:
  | Total energy uncorrected      :         -0.207279298732666E+04 eV
  | Total energy corrected        :         -0.207279298732666E+04 eV  <-- do not rely on this value for anything but (periodic) metals
  | Electronic free energy        :         -0.207279298732666E+04 eV
  Total atomic forces (unitary forces cleaned) [eV/Ang]:
  |   1         -0.277997741935561E-01         -0.295963427084670E-01          0.945041668556864E-02
  |   2          0.242524251178307E-02          0.295414904810551E-02         -0.130117241309453E-02
  |   3          0.309231255901897E-01          0.286896993012958E-01         -0.108600471198878E-01
  |   4         -0.554859390841670E-02         -0.204750564093430E-02          0.271080284741363E-02

  ------------------------------------ 
  Start decomposition of the XC Energy 
  ------------------------------------ 
  X and C from original XC functional choice 
  Hartree-Fock Energy :          0.000000000 Ha              0.000000000 eV
  X Energy            :         -8.139772960 Ha           -221.494491747 eV
  C Energy            :         -0.663610228 Ha            -18.057753077 eV
  Total XC Energy     :         -8.803383188 Ha           -239.552244825 eV
  ------------------------------------ 
  LDA X and C from self-consistent density 
  X Energy LDA        :         -8.139772960 Ha           -221.494491747 eV
  C Energy LDA        :         -0.663610228 Ha            -18.057753077 eV
  ------------------------------------ 
  End decomposition of the XC Energy 
  ------------------------------------ 

------------------------------------------------------------

------------------------------------------------------------------------------
  Final output of selected total energy values:

  The following output summarizes some interesting total energy values
  at the end of a run (AFTER all relaxation, molecular dynamics, etc.).

  | Total energy of the DFT / Hartree-Fock s.c.f. calculation      :          -2072.792987327 eV
  | Final zero-broadening corrected energy (caution - metals only) :          -2072.792987327 eV
  | For reference only, the value of 1 Hartree used in FHI-aims is :             27.211384500 eV

  Before relying on these values, please be sure to understand exactly which
  total energy value is referred to by a given number. Different objects may
  all carry the same name 'total energy'. Definitions:

  Total energy of the DFT / Hartree-Fock s.c.f. calculation:
  | Note that this energy does not include ANY quantities calculated after the
  | s.c.f. cycle, in particular not ANY RPA, MP2, etc. many-body perturbation terms.

  Final zero-broadening corrected energy:
  | For metallic systems only, a broadening of the occupation numbers at the Fermi
  | level can be extrapolated back to zero broadening by an electron-gas inspired
  | formula. For all systems that are not real metals, this value can be
  | meaningless and should be avoided.

------------------------------------------------------------------------------
  Methods described in the following list of references were used in this FHI-aims run.
  If you publish the results, please make sure to cite these reference if they apply.
  FHI-aims is an academic code, and for our developers (often, Ph.D. students
  and postdocs), scientific credit in the community is essential.
  Thank you for helping us!

  For any use of FHI-aims, please cite:

    Volker Blum, Ralf Gehrke, Felix Hanke, Paula Havu, Ville Havu,
    Xinguo Ren, Karsten Reuter, and Matthias Scheffler
    'Ab initio molecular simulations with numeric atom-centered orbitals'
    Computer Physics Communications 180, 2175-2196 (2009)
    http://dx.doi.org/10.1016/j.cpc.2009.06.022


  For the real-space grid partitioning and parallelization used in this calculation, please cite:

    Ville Havu, Volker Blum, Paula Havu, and Matthias Scheffler,
    'Efficient O(N) integration for all-electron electronic structure calculation'
    'using numerically tabulated basis functions'
    Journal of Computational Physics 228, 8367-8379 (2009).
    http://dx.doi.org/10.1016/j.jcp.2009.08.008

  Of course, there are many other important community references, e.g., those cited in the
  above references. Our list is limited to references that describe implementations in the
  FHI-aims code. The reason is purely practical (length of this list) - please credit others as well.

------------------------------------------------------------
          Leaving FHI-aims.
          Date     :  20190509, Time     :  114714.896

          Computational steps:
          | Number of self-consistency cycles          :           13
          | Number of SCF (re)initializations          :            1

          Detailed time accounting                     :  max(cpu_time)    wall_clock(cpu1)
          | Total time                                 :        0.989 s           0.989 s
          | Preparation time                           :        0.051 s           0.051 s
          | Boundary condition initalization           :        0.000 s           0.000 s
          | Grid partitioning                          :        0.014 s           0.014 s
          | Preloading free-atom quantities on grid    :        0.001 s           0.001 s
          | Free-atom superposition energy             :        0.013 s           0.013 s
          | Total time for integrations                :        0.415 s           0.414 s
          | Total time for solution of K.-S. equations :        0.003 s           0.003 s
          | Total time for density & force components  :        0.178 s           0.178 s
          | Total time for mixing                      :        0.009 s           0.011 s
          | Total time for Hartree multipole update    :        0.021 s           0.020 s
          | Total time for Hartree multipole sum       :        0.253 s           0.254 s
          | Total time for total energy evaluation     :        0.001 s           0.000 s

 This is a stub MPI_ALLREDUCE call.
 You should not be here. Check your
 setting on the use_mpi variable, or
 link against true MPI-libraries.
