------------------------------------------------------------
          Invoking FHI-aims ...
          Version 171221_1
          Compiled on 2019/05/06 at 14:26:40 on host ffph0xx.

          When using FHI-aims, please cite the following reference:

          Volker Blum, Ralf Gehrke, Felix Hanke, Paula Havu,
          Ville Havu, Xinguo Ren, Karsten Reuter, and Matthias Scheffler,
          'Ab Initio Molecular Simulations with Numeric Atom-Centered Orbitals',
          Computer Physics Communications 180, 2175-2196 (2009)

          For any questions about FHI-aims, please visit the aimsclub website
          with its forums and wiki. Contributions to both the forums and the
          wiki are warmly encouraged - they are for you, and everyone is welcome there.

------------------------------------------------------------



  Date     :  20190509, Time     :  111316.367
  Time zero on CPU 1             :   0.375800000000000E-02  s.
  Internal wall clock time zero  :           326632396.367  s.

  FHI-aims created a unique identifier for this run for later identification
  aims_uuid : 5CBA53E3-6CC5-4D2B-AAB0-BCE5174FA384


  Performing system and environment tests:
  *** Environment variable OMP_NUM_THREADS is not set
  *** For performance reasons you might want to set it to 1
  | Stacksize not measured: no C compiler

  Obtaining array dimensions for all initial allocations:
  
  -----------------------------------------------------------------------
  Parsing control.in (first pass over file, find array dimensions only).
  The contents of control.in will be repeated verbatim below
  unless switched off by setting 'verbatim_writeout .false.' .
  in the first line of control.in .
  -----------------------------------------------------------------------
  
  # Sample input file for the relaxation
  # of the H3O+ molecule
  #######################################
    xc  pw-lda
    charge 1.0
    spin none
  
  #######Iteration limit####################
    sc_iter_limit 100
  
  #######Relaxation######################
    relax_geometry trm 1E-3
  
  #######Species#########################
  ################################################################################
  #
  #  FHI-aims code project
  #  VB, Fritz-Haber Institut, 2009
  #
  #  Suggested "light" defaults for H atom (to be pasted into control.in file)
  #  Be sure to double-check any results obtained with these settings for post-processing,
  #  e.g., with the "tight" defaults and larger basis sets.
  #
  ################################################################################
    species        H
  #     global species definitions
      nucleus             1
      mass                1.00794
  #
      l_hartree           4
  #
      cut_pot             3.5  1.5  1.0
      basis_dep_cutoff    1e-4
  #
      radial_base         24 5.0
      radial_multiplier   1
      angular_grids       specified
        division   0.2421   50
        division   0.3822  110
        division   0.4799  194
        division   0.5341  302
  #      division   0.5626  434
  #      division   0.5922  590
  #      division   0.6542  770
  #      division   0.6868 1202
  #      outer_grid  770
        outer_grid  302
  ################################################################################
  #
  #  Definition of "minimal" basis
  #
  ################################################################################
  #     valence basis states
      valence      1  s   1.
  #     ion occupancy
      ion_occ      1  s   0.5
  ################################################################################
  #
  #  Suggested additional basis functions. For production calculations,
  #  uncomment them one after another (the most important basis functions are
  #  listed first).
  #
  #  Basis constructed for dimers: 0.5 A, 0.7 A, 1.0 A, 1.5 A, 2.5 A
  #
  ################################################################################
  #  "First tier" - improvements: -1014.90 meV to -62.69 meV
       hydro 2 s 2.1
       hydro 2 p 3.5
  #  "Second tier" - improvements: -12.89 meV to -1.83 meV
  #     hydro 1 s 0.85
  #     hydro 2 p 3.7
  #     hydro 2 s 1.2
  #     hydro 3 d 7
  #  "Third tier" - improvements: -0.25 meV to -0.12 meV
  #     hydro 4 f 11.2
  #     hydro 3 p 4.8
  #     hydro 4 d 9
  #     hydro 3 s 3.2
  ################################################################################
  #
  #  FHI-aims code project
  #  VB, Fritz-Haber Institut, 2009
  #
  #  Suggested "light" defaults for O atom (to be pasted into control.in file)
  #  Be sure to double-check any results obtained with these settings for post-processing,
  #  e.g., with the "tight" defaults and larger basis sets.
  #
  ################################################################################
    species        O
  #     global species definitions
      nucleus             8
      mass                15.9994
  #
      l_hartree           4
  #
      cut_pot             3.5  1.5  1.0
      basis_dep_cutoff    1e-4
  #
      radial_base         36 5.0
      radial_multiplier   1
       angular_grids specified
        division   0.2659   50
        division   0.4451  110
        division   0.6052  194
        division   0.7543  302
  #      division   0.8014  434
  #      division   0.8507  590
  #      division   0.8762  770
  #      division   0.9023  974
  #      division   1.2339 1202
  #      outer_grid 974
        outer_grid 302
  ################################################################################
  #
  #  Definition of "minimal" basis
  #
  ################################################################################
  #     valence basis states
      valence      2  s   2.
      valence      2  p   4.
  #     ion occupancy
      ion_occ      2  s   1.
      ion_occ      2  p   3.
  ################################################################################
  #
  #  Suggested additional basis functions. For production calculations,
  #  uncomment them one after another (the most important basis functions are
  #  listed first).
  #
  #  Constructed for dimers: 1.0 A, 1.208 A, 1.5 A, 2.0 A, 3.0 A
  #
  ################################################################################
  #  "First tier" - improvements: -699.05 meV to -159.38 meV
       hydro 2 p 1.8
       hydro 3 d 7.6
       hydro 3 s 6.4
  #  "Second tier" - improvements: -49.91 meV to -5.39 meV
  #     hydro 4 f 11.6
  #     hydro 3 p 6.2
  #     hydro 3 d 5.6
  #     hydro 5 g 17.6
  #     hydro 1 s 0.75
  #  "Third tier" - improvements: -2.83 meV to -0.50 meV
  #     ionic 2 p auto
  #     hydro 4 f 10.8
  #     hydro 4 d 4.7
  #     hydro 2 s 6.8
  #  "Fourth tier" - improvements: -0.40 meV to -0.12 meV
  #     hydro 3 p 5
  #     hydro 3 s 3.3
  #     hydro 5 g 15.6
  #     hydro 4 f 17.6
  #     hydro 4 d 14
  # Further basis functions - -0.08 meV and below
  #     hydro 3 s 2.1
  #     hydro 4 d 11.6
  #     hydro 3 p 16
  #     hydro 2 s 17.2
  /afs/ictp.it/public/shared/smr2475/fhi-aims/species_defaults/light/01_H_default
  
  -----------------------------------------------------------------------
  Completed first pass over input file control.in .
  -----------------------------------------------------------------------
  
  
  -----------------------------------------------------------------------
  Parsing geometry.in (first pass over file, find array dimensions only).
  The contents of geometry.in will be repeated verbatim below
  unless switched off by setting 'verbatim_writeout .false.' .
  in the first line of geometry.in .
  -----------------------------------------------------------------------
  
  #
  # distorted structure-file for based on eigenmodes
  # vibration     1 :  -616.744 1/cm
  #
  atom    0.00000000   -0.00002909   -0.10817729   O
  atom    0.85488761   -0.49352202    0.57386939   H
  atom   -0.85488761   -0.49352202    0.57386939   H
  atom   -0.00000000    0.98707314    0.57414764   H
  
  -----------------------------------------------------------------------
  Completed first pass over input file geometry.in .
  -----------------------------------------------------------------------
  

  Basic array size parameters:
  | Number of species                 :        2
  | Number of atoms                   :        4
  | Max. basis fn. angular momentum   :        2
  | Max. atomic/ionic basis occupied n:        2
  | Max. number of basis fn. types    :        2
  | Max. radial fns per species/type  :        3
  | Max. logarithmic grid size        :     1301
  | Max. radial integration grid size :       36
  | Max. angular integration grid size:      302
  | Max. angular grid division number :        8
  | Radial grid for Hartree potential :     1301
  | Number of spin channels           :        1

------------------------------------------------------------
          Reading file control.in.
------------------------------------------------------------
  XC: Using Perdew-Wang parametrisation of Ceperley-Alder LDA.
  Charged system requested: Charge =   0.100000E+01.
  Spin treatment: No spin polarisation.
  Maximum number of s.-c. iterations  :   100
  Geometry relaxation: Modified BFGS - TRM (trust radius method, i.e., trusted quadratic extrapolation).
  Convergence accuracy for geometry relaxation: Maximum force <   0.100000E-02 eV/A.

  Reading configuration options for species H                   .
  | Found nuclear charge :   1.0000
  | Found atomic mass :    1.0079400000000001      amu
  | Found l_max for Hartree potential  :   4
  | Found cutoff potl. onset [A], width [A], scale factor :    3.50000    1.50000    1.00000
  | Threshold for basis-dependent cutoff potential is   0.100000E-03
  | Found data for basic radial integration grid :    24 points, outermost radius =    5.000 A
  | Found multiplier for basic radial grid :   1
  | Found angular grid specification: user-specified.
  | Specified grid contains     5 separate shells.
  | Check grid settings after all constraints further below.
  | Found free-atom valence shell :  1 s   1.000
  | No ionic wave fns used. Skipping ion_occ.
  | Found hydrogenic basis function :  2 s   2.100
  | Found hydrogenic basis function :  2 p   3.500
  Species H                   : Missing cutoff potential type.
  Defaulting to exp(1/x)/(1-x)^2 type cutoff potential.
  Species H : No 'logarithmic' tag. Using default grid for free atom:
  | Default logarithmic grid data [bohr] : 0.1000E-03 0.1000E+03 0.1012E+01
  Species H : On-site basis accuracy parameter (for Gram-Schmidt orthonormalisation) not specified.
  Using default value basis_acc =  0.1000000E-03.
  Species H                   : Using default innermost maximum threshold i_radial=  2 for radial functions.
  Species H                   : Default cutoff onset for free atom density etc. : 0.35000000E+01 AA.
  Species H                   : Basic radial grid will be enhanced according to radial_multiplier =   1, to contain    24 grid points.

  Reading configuration options for species O                   .
  | Found nuclear charge :   8.0000
  | Found atomic mass :    15.999400000000000      amu
  | Found l_max for Hartree potential  :   4
  | Found cutoff potl. onset [A], width [A], scale factor :    3.50000    1.50000    1.00000
  | Threshold for basis-dependent cutoff potential is   0.100000E-03
  | Found data for basic radial integration grid :    36 points, outermost radius =    5.000 A
  | Found multiplier for basic radial grid :   1
  | Found angular grid specification: user-specified.
  | Specified grid contains     5 separate shells.
  | Check grid settings after all constraints further below.
  | Found free-atom valence shell :  2 s   2.000
  | Found free-atom valence shell :  2 p   4.000
  | No ionic wave fns used. Skipping ion_occ.
  | No ionic wave fns used. Skipping ion_occ.
  | Found hydrogenic basis function :  2 p   1.800
  | Found hydrogenic basis function :  3 d   7.600
  | Found hydrogenic basis function :  3 s   6.400
  Species O                   : Missing cutoff potential type.
  Defaulting to exp(1/x)/(1-x)^2 type cutoff potential.
  Species O : No 'logarithmic' tag. Using default grid for free atom:
  | Default logarithmic grid data [bohr] : 0.1000E-03 0.1000E+03 0.1012E+01
  Species O : On-site basis accuracy parameter (for Gram-Schmidt orthonormalisation) not specified.
  Using default value basis_acc =  0.1000000E-03.
  Species O                   : Using default innermost maximum threshold i_radial=  2 for radial functions.
  Species O                   : Default cutoff onset for free atom density etc. : 0.35000000E+01 AA.
  Species O                   : Basic radial grid will be enhanced according to radial_multiplier =   1, to contain    36 grid points.

  Finished reading input file 'control.in'. Consistency checks are next.

  MPI_IN_PLACE appears to work with this MPI implementation.
  | Keeping use_mpi_in_place .true. (see manual).
  Target number of points in a grid batch is not set. Defaulting to  100
  Method for grid partitioning is not set. Defaulting to 'maxmin' partitioning.
  Batch size limit is not set. Defaulting to    200
  By default, will store active basis functions for each batch.
  If in need of memory, prune_basis_once .false. can be used to disable this option.
  communication_type for Hartree potential was not specified.
  Defaulting to calc_hartree .
 * Attention: 
 * You may want to set distributed_spline_storage to .true. in order to save memory.
 * This doesn't harm performance and is perfectly ok unless:
 * - you get error messages in postprocessing (about missing atoms in get_rho_multipole_spl)
 * - you need full spline storage in hirshfeld_analysis
  Defaulting to Pulay charge density mixer.
  Pulay mixer: Number of relevant iterations not set.
  Defaulting to    8 iterations.
  Pulay mixer: Number of initial linear mixing iterations not set.
  Defaulting to    0 iterations.
  Work space size for distributed Hartree potential not set.
  Defaulting to   0.200000E+03 MB.
  Mixing parameter for charge density mixing has not been set.
  Using default: charge_mix_param =     0.0500.
  The mixing parameter will be adjusted in iteration number     2 of the first full s.c.f. cycle only.
  Algorithm-dependent basis array size parameters:
  | n_max_pulay                         :        8
 * Notice: The s.c.f. convergence criterion sc_accuracy_rho was not provided.
 * We used to stop in this case, and ask the user to provide reasonable
 * scf convergence criteria. However, this led some users to employ criteria
 * that led to extremely long run times, e.g., for simple relaxation.
 * We now preset a default value for sc_accuracy_rho if it is not set.
 * You may still wish to check if this setting is too tight or too loose for your needs.
 * Based on n_atoms, FHI-aims chose sc_accuracy_rho =  0.100000E-05 .
  Presetting      1001 iterations before the initial mixing cycle
  is restarted anyway using the sc_init_iter criterion / keyword.
  Presetting a factor      1.000 between actual scf density residual
  and density convergence criterion sc_accuracy_rho below which sc_init_iter
  takes no effect.
 * No s.c.f. convergence criteria (sc_accuracy_*) were provided in control.in.
 * The run will proceed with a reasonable default guess, but please check whether.
 * the s.c.f. cycles seem to take too much or too little time.
  No maximum number of relaxation steps, defaulting to     1000
  Default initial Hessian is Lindh matrix (thres = 15.00) plus  0.200000E+01 eV/A^2 times unity.
  No maximum energy tolerance for TRM/BFGS moves, defaulting to   0.200000E-03
  No harmonic length scale. Defaulting to   0.250000E-01 A.
  No trust radius initializer. Defaulting to   0.200000E+00 A.
  Force calculation: scf convergence accuracy of forces not set.
  Defaulting to 'sc_accuracy_forces not_checked'.
  Handling of forces: Unphysical translation and rotation will be removed from forces.
  No accuracy limit for integral partition fn. given. Defaulting to  0.1000E-14.
  No threshold value for u(r) in integrations given. Defaulting to  0.1000E-05.
  No occupation type (smearing scheme) given. Defaulting to Gaussian broadening, width =  0.1000E-01 eV.
  The width will be adjusted in iteration number     2 of the first full s.c.f. cycle only.
  S.C.F. convergence parameters will be adjusted in iteration number     2 of the first full s.c.f. cycle only.
  No accuracy for occupation numbers given. Defaulting to  0.1000E-12.
  No threshold value for occupation numbers given. Defaulting to  0.0000E+00.
  No accuracy for fermi level given. Defaulting to  0.1000E-19.
  Maximum # of iterations to find E_F not set. Defaulting to  200.
  Preferred method for the eigenvalue solver ('KS_method') not specified in 'control.in'.
  Defaulting to serial version, 'lapack_fast'.
  Will not use alltoall communication since running on < 1024 CPUs.
  Threshold for basis singularities not set.
  Default threshold for basis singularities:  0.1000E-04
  partition_type (choice of integration weights) for integrals was not specified.
  | Using a version of the partition function of Stratmann and coworkers ('stratmann_smoother').
  | At each grid point, the set of atoms used to build the partition table is smoothly restricted to
  | only those atoms whose free-atom density would be non-zero at that grid point.
  Partitioning for Hartree potential was not defined. Using partition_type for integrals.
  | Adjusted default value of keyword multip_moments_threshold to:       0.10000000E-11
  | This value may affect high angular momentum components of the Hartree potential in periodic systems.
  No q(lm)/r^(l+1) cutoff set for long-range Hartree potential.
  | Using default value of  0.100000E-09 .
  | Verify using the multipole_threshold keyword.
  Defaulting to new monopole extrapolation.
  Density update method: automatic selection selected.
  Geometry relaxation: A file "geometry.in.next_step" is written out by default after each step.
  | This file contains the geometry of the current relaxation step as well as
  | the current Hessian matrix needed to restart the relaxation algorithm.
  | If you do not want part or all of this information, use the keywords
  | "write_restart_geometry" or "hessian_to_restart_geometry" to switch the output off.
------------------------------------------------------------


------------------------------------------------------------
          Reading geometry description geometry.in.
------------------------------------------------------------
 * Warning: Initial charge and total charge of the system are inconsistent.
 * Selected charge in control.in:     1.0000* Sum of initial charges in geometry.in:     0.0000
 * Warning! You did not set the 'relativistic' flag in input file 'control.in'.
 * Since you are not attempting to treat any elements beyond Ca(Z=20), FHI-aims
 * will default to 'relativistic none'.
 * You must ensure that this is really what you want!!
 * For example, DO NOT compute total-energy differences between results from
 * different settings of the 'relativistic' flag.
  Input structure read successfully.
  The structure contains        4 atoms,  and a total of         10.000 electrons.

  Input geometry:
  | No unit cell requested.
  | Atomic structure:
  |       Atom                x [A]            y [A]            z [A]
  |    1: Species O             0.00000000       -0.00002909       -0.10817729
  |    2: Species H             0.85488761       -0.49352202        0.57386939
  |    3: Species H            -0.85488761       -0.49352202        0.57386939
  |    4: Species H            -0.00000000        0.98707314        0.57414764
  |

  | The smallest distance between any two atoms is         1.19981489 AA.
  |
  | The first atom of this pair is atom number                      1 .
  | The second atom of this pair is atom number                     2 .

  Number of empty states per atom not set in control.in - providing a guess from actual geometry.
  | Total number of empty states used during s.c.f. cycle:        8
  If you use a very high smearing, use empty_states (per atom!) in control.in to increase this value.

  Structure-dependent array size parameters: 
  | Maximum number of distinct radial functions  :        9
  | Maximum number of basis functions            :       29
  | Number of Kohn-Sham states (occupied + empty):       13
------------------------------------------------------------

------------------------------------------------------------
          Preparing all fixed parts of the calculation.
------------------------------------------------------------
  Determining machine precision:
     2.2250738585072014E-308
  Setting up grids for atomic and cluster calculations.

  Creating wave function, potential, and density for free atoms.

  Species: H

  List of occupied orbitals and eigenvalues:
    n    l              occ      energy [Ha]    energy [eV]
    1    0           1.0000        -0.232375        -6.3233


  Species: O

  List of occupied orbitals and eigenvalues:
    n    l              occ      energy [Ha]    energy [eV]
    1    0           2.0000       -18.757744      -510.4242
    2    0           2.0000        -0.870917       -23.6989
    2    1           4.0000        -0.337950        -9.1961

  Creating fixed part of basis set: Ionic, confined, hydrogenic.

  H                    hydrogenic:

  List of hydrogenic basis orbitals: 
    n    l      effective z      eigenvalue [eV]  inner max. [A]     outer max. [A]     outer radius [A]   
    2    0         2.100000       -14.9728           0.193243           1.317208           4.583499
    2    1         3.500000       -41.6669           0.602369           0.602369           3.723403


  O                    hydrogenic:

  List of hydrogenic basis orbitals: 
    n    l      effective z      eigenvalue [eV]  inner max. [A]     outer max. [A]     outer radius [A]   
    2    1         1.800000       -10.9749           1.164242           1.164242           4.578029
    3    2         7.600000       -87.3180           0.624125           0.624125           3.251020
    3    0         6.400000       -61.9207           0.061167           1.081902           4.001998


  Adding cutoff potential to free-atom effective potential.
  Creating atomic-like basis functions for current effective potential.

  Species H                   :

  List of atomic basis orbitals and eigenvalues:
    n    l      energy [Ha]    energy [eV]    outer radius [A]
    1    0        -0.232375        -6.3233       4.527807


  Species O                   :

  List of atomic basis orbitals and eigenvalues:
    n    l      energy [Ha]    energy [eV]    outer radius [A]
    1    0       -18.757744      -510.4242       1.433179
    2    0        -0.870917       -23.6989       4.413171
    2    1        -0.337950        -9.1961       4.522403

  Assembling full basis from fixed parts.
  | Species H :   atomic orbital   1 s accepted.
  | Species H :    hydro orbital   2 s accepted.
  | Species H :    hydro orbital   2 p accepted.
  | Species O :   atomic orbital   1 s accepted.
  | Species O :    hydro orbital   3 s accepted.
  | Species O :   atomic orbital   2 s accepted.
  | Species O :   atomic orbital   2 p accepted.
  | Species O :    hydro orbital   2 p accepted.
  | Species O :    hydro orbital   3 d accepted.

  Basis size parameters after reduction:
  | Total number of radial functions:        9
  | Total number of basis functions :       29

  Per-task memory consumption for arrays in subroutine allocate_ext:
  |           2.249476MB.
  Testing on-site integration grid accuracy.
  |  Species  Function  <phi|h_atom|phi> (log., in eV)  <phi|h_atom|phi> (rad., in eV)
           1        1                 -6.3245358373                 -6.3232436907
           1        2                 14.1326137532                 14.1384481100
           1        3                 25.3627025200                 25.3628451197
           2        4               -510.4241781769               -510.4240769412
           2        5                 14.9072942218                 14.9072945276
           2        6                -21.2004736467                -21.2005650544
           2        7                 -9.1962086499                 -9.1963509828
           2        8                  8.1896755011                  8.1702200086
           2        9                 45.7920584945                 45.7920228528

  Preparing densities etc. for the partition functions (integrals / Hartree potential).

  Preparations completed.
  max(cpu_time)          :      0.049 s.
  Wall clock time (cpu1) :      0.055 s.
------------------------------------------------------------

------------------------------------------------------------
          Begin self-consistency loop: Initialization.

          Date     :  20190509, Time     :  111316.434
------------------------------------------------------------

  Initializing index lists of integration centers etc. from given atomic structure:
  | Number of centers in hartree potential         :         4
  | Number of centers in hartree multipole         :         4
  | Number of centers in electron density summation:         4
  | Number of centers in basis integrals           :         4
  | Number of centers in integrals                 :         4
  | Number of centers in hamiltonian               :         4
  Initializing relaxation algorithms.
  Partitioning the integration grid into batches with maxmin method.
  | Maximal weight for a single point:     1.000
  | Minimal weight for a single point:     0.000
  | Number of batches:      256
  | Maximal batch size:      83
  | Minimal batch size:      78
  | Average batch size:      80.719
  | Standard deviation of batch sizes:       1.484
  Initializing partition tables, free-atom densities, potentials, etc. across the integration grid (initialize_grid_storage).
  | initialize_grid_storage: Actual outermost partition radius vs. multipole_radius_free
  | (-- VB: in principle, multipole_radius_free should be larger, hence this output)
  | Species        1: Confinement radius =              4.999999999999999 AA, multipole_radius_free =              5.054417573612229 AA.
  | Species        1: outer_partition_radius set to              5.054417573612229 AA .
  | Species        2: Confinement radius =              4.999999999999999 AA, multipole_radius_free =              5.048384829883283 AA.
  | Species        2: outer_partition_radius set to              5.048384829883283 AA .
  | Original list of interatomic distances with           4 x          4 entries is created.
  | Net number of integration points:    20664
  | of which are non-zero points    :    18574
  Renormalizing the initial density to the exact electron count on the 3D integration grid.
  | Initial density: Formal number of electrons (from input files) :      11.0000000000
  | Integrated number of electrons on 3D grid     :      10.9999700241
  | Charge integration error                      :      -0.0000299759
  | Normalization factor for density and gradient :       1.0000027251
  Obtaining max. number of non-zero basis functions in each batch (get_n_compute_maxes).
  | Maximal number of non-zero basis functions:       29 in task     0
  Selecting the method for density update.
  Loop over occupied states selected for charge density update.
  Allocating        0.003 MB for KS_eigenvector
  Integrating Hamiltonian matrix: batch-based integration.
  Time summed over all CPUs for integration: real work        0.029 s, elapsed        0.029 s
  Integrating overlap matrix.
  Time summed over all CPUs for integration: real work        0.014 s, elapsed        0.014 s

  Updating Kohn-Sham eigenvalues, eigenvectors, occupation numbers, and Fermi level.
  Solving generalized eigenproblem
  Updating Kohn-Sham eigenvalues and eigenfunctions.
  Transforming overlap matrix and checking for singularities.
  Overlap matrix is nonsingular:
  | Lowest eigenvalue:  0.393771E-01
  Solving real generalised eigenvalue problem by standard LAPACK (fast)

  Obtaining occupation numbers and chemical potential using ELSI.
  | Chemical potential (Fermi level):    -7.93499342eV
  Writing Kohn-Sham eigenvalues.

  State    Occupation    Eigenvalue [Ha]    Eigenvalue [eV]
      1       2.00000         -18.830547         -512.40526
      2       2.00000          -1.030981          -28.05442
      3       2.00000          -0.523203          -14.23709
      4       2.00000          -0.523152          -14.23568
      5       2.00000          -0.486832          -13.24738
      6       0.00000          -0.132213           -3.59771
      7       0.00000          -0.062391           -1.69774
      8       0.00000          -0.062355           -1.69675
      9       0.00000           0.207512            5.64669
     10       0.00000           0.309235            8.41472
     11       0.00000           0.309244            8.41495
     12       0.00000           0.520139           14.15369
     13       0.00000           0.620146           16.87502

  Highest occupied state (VBM) at    -13.24737859 eV
  | Occupation number:      2.00000000

  Lowest unoccupied state (CBM) at    -3.59770731 eV
  | Occupation number:      0.00000000

  Overall HOMO-LUMO gap:      9.64967128 eV.
  Calculating total energy contributions from superposition of free atom densities.

  Total energy components:
  | Sum of eigenvalues            :         -42.78943061 Ha       -1164.35964878 eV
  | XC energy correction          :          -8.75125475 Ha        -238.13375798 eV
  | XC potential correction       :          11.52322558 Ha         313.56292191 eV
  | Free-atom electrostatic energy:         -36.21776468 Ha        -985.53552045 eV
  | Hartree energy correction     :          -0.00000000 Ha          -0.00000000 eV
  | Entropy correction            :          -0.00000000 Ha          -0.00000000 eV
  | ---------------------------
  | Total energy                  :         -76.23522446 Ha       -2074.46600529 eV
  | Total energy, T -> 0          :         -76.23522446 Ha       -2074.46600529 eV  <-- do not rely on this value for anything but (periodic) metals
  | Electronic free energy        :         -76.23522446 Ha       -2074.46600529 eV

  Derived energy quantities:
  | Kinetic energy                :          75.52387009 Ha        2055.10906789 eV
  | Electrostatic energy          :        -143.00783980 Ha       -3891.44131521 eV
  | Energy correction for multipole
  | error in Hartree potential    :           0.00000000 Ha           0.00000000 eV
  | Sum of eigenvalues per atom                           :        -291.08991219 eV
  | Total energy (T->0) per atom                          :        -518.61650132 eV  <-- do not rely on this value for anything but (periodic) metals
  | Electronic free energy per atom                       :        -518.61650132 eV
  Initialize hartree_potential_storage
  Max. number of atoms included in rho_multipole:            4

  End scf initialization - timings             :  max(cpu_time)    wall_clock(cpu1)
  | Time for scf. initialization               :        0.083 s           0.091 s
  | Boundary condition initialization          :        0.000 s           0.001 s
  | Relaxation initialization                  :        0.000 s           0.001 s
  | Integration                                :        0.043 s           0.043 s
  | Solution of K.-S. eqns.                    :        0.001 s           0.002 s
  | Grid partitioning                          :        0.014 s           0.015 s
  | Preloading free-atom quantities on grid    :        0.001 s           0.000 s
  | Free-atom superposition energy             :        0.011 s           0.012 s
  | Total energy evaluation                    :        0.000 s           0.000 s

  Partial memory accounting:
  | Current value for overall tracked memory usage on task 0  :           0.017 MB
  | Peak value for overall tracked memory usage on task 0     :           0.075 MB after allocating wave
  | Largest tracked array allocation on task 0 so far         :           0.019 MB  when allocating H_times_psi
  Note:  These values currently only include a subset of arrays which are explicitly tracked.
  The "true" memory usage will be greater.
------------------------------------------------------------

------------------------------------------------------------
          Begin self-consistency iteration #    1

  Date     :  20190509, Time     :  111316.526
------------------------------------------------------------
  Evaluating new KS density.
  Integration grid: deviation in total charge (<rho> - N_e) =  -2.486900E-14
  Pulay mixing of updated and previous charge densities.

  Evaluating partitioned Hartree potential by multipole expansion.
  | Analytical far-field extrapolation by fixed multipoles:
  | Hartree multipole sum: apparent total charge =   0.499516E-01
  Summing up the Hartree potential.
  Time summed over all CPUs for potential: real work        0.018 s, elapsed        0.018 s
  | RMS charge density error from multipole expansion :   0.281333E-03

  Integrating Hamiltonian matrix: batch-based integration.
  Time summed over all CPUs for integration: real work        0.029 s, elapsed        0.029 s

  Updating Kohn-Sham eigenvalues, eigenvectors, occupation numbers, and Fermi level.
  Solving generalized eigenproblem
  Updating Kohn-Sham eigenvalues and eigenfunctions.
  Solving real generalised eigenvalue problem by standard LAPACK (fast)

  Obtaining occupation numbers and chemical potential using ELSI.
  | Chemical potential (Fermi level):    -8.22740972eV
  Writing Kohn-Sham eigenvalues.

  State    Occupation    Eigenvalue [Ha]    Eigenvalue [eV]
      1       2.00000         -18.828356         -512.34564
      2       2.00000          -1.038102          -28.24820
      3       2.00000          -0.531279          -14.45682
      4       2.00000          -0.531226          -14.45541
      5       2.00000          -0.492796          -13.40967
      6       0.00000          -0.143972           -3.91767
      7       0.00000          -0.074073           -2.01562
      8       0.00000          -0.074035           -2.01459
      9       0.00000           0.200502            5.45594
     10       0.00000           0.299901            8.16072
     11       0.00000           0.299909            8.16094
     12       0.00000           0.507464           13.80879
     13       0.00000           0.608763           16.56529

  Highest occupied state (VBM) at    -13.40966552 eV
  | Occupation number:      2.00000000

  Lowest unoccupied state (CBM) at    -3.91766550 eV
  | Occupation number:      0.00000000

  Overall HOMO-LUMO gap:      9.49200002 eV.

  Total energy components:
  | Sum of eigenvalues            :         -42.84351961 Ha       -1165.83148548 eV
  | XC energy correction          :          -8.74811551 Ha        -238.04833469 eV
  | XC potential correction       :          11.51929119 Ha         313.45586182 eV
  | Free-atom electrostatic energy:         -36.21776468 Ha        -985.53552045 eV
  | Hartree energy correction     :           0.07177831 Ha           1.95318710 eV
  | Entropy correction            :          -0.00000000 Ha          -0.00000000 eV
  | ---------------------------
  | Total energy                  :         -76.21833030 Ha       -2074.00629170 eV
  | Total energy, T -> 0          :         -76.21833030 Ha       -2074.00629170 eV  <-- do not rely on this value for anything but (periodic) metals
  | Electronic free energy        :         -76.21833030 Ha       -2074.00629170 eV

  Derived energy quantities:
  | Kinetic energy                :          75.56762648 Ha        2056.29973985 eV
  | Electrostatic energy          :        -143.03784127 Ha       -3892.25769685 eV
  | Energy correction for multipole
  | error in Hartree potential    :           0.00014256 Ha           0.00387926 eV
  | Sum of eigenvalues per atom                           :        -291.45787137 eV
  | Total energy (T->0) per atom                          :        -518.50157292 eV  <-- do not rely on this value for anything but (periodic) metals
  | Electronic free energy per atom                       :        -518.50157292 eV

  Self-consistency convergence accuracy:
  | Change of charge density      :  0.1919E+00
  | Change of sum of eigenvalues  : -0.1472E+01 eV
  | Change of total energy        :  0.4597E+00 eV

  End self-consistency iteration #     1       :  max(cpu_time)    wall_clock(cpu1)
  | Time for this iteration                    :        0.062 s           0.062 s
  | Charge density update                      :        0.013 s           0.013 s
  | Density mixing                             :        0.000 s           0.000 s
  | Hartree multipole update                   :        0.002 s           0.002 s
  | Hartree multipole summation                :        0.018 s           0.018 s
  | Integration                                :        0.029 s           0.029 s
  | Solution of K.-S. eqns.                    :        0.000 s           0.000 s
  | Total energy evaluation                    :        0.000 s           0.000 s

  Partial memory accounting:
  | Current value for overall tracked memory usage on task 0  :           0.017 MB
  | Peak value for overall tracked memory usage on task 0     :           0.082 MB after allocating wave
  | Largest tracked array allocation on task 0 so far         :           0.019 MB  when allocating H_times_psi
  Note:  These values currently only include a subset of arrays which are explicitly tracked.
  The "true" memory usage will be greater.
------------------------------------------------------------

------------------------------------------------------------
          Begin self-consistency iteration #    2

  Date     :  20190509, Time     :  111316.588
------------------------------------------------------------
  Evaluating new KS density.
  Integration grid: deviation in total charge (<rho> - N_e) =  -7.105427E-15
  Pulay mixing of updated and previous charge densities.

  Evaluating partitioned Hartree potential by multipole expansion.
  | Analytical far-field extrapolation by fixed multipoles:
  | Hartree multipole sum: apparent total charge =   0.334969E+00
  Summing up the Hartree potential.
  Time summed over all CPUs for potential: real work        0.017 s, elapsed        0.017 s
  | RMS charge density error from multipole expansion :   0.188449E-02

  Integrating Hamiltonian matrix: batch-based integration.
  Time summed over all CPUs for integration: real work        0.030 s, elapsed        0.030 s

  Updating Kohn-Sham eigenvalues, eigenvectors, occupation numbers, and Fermi level.
  Solving generalized eigenproblem
  Updating Kohn-Sham eigenvalues and eigenfunctions.
  Solving real generalised eigenvalue problem by standard LAPACK (fast)

  Obtaining occupation numbers and chemical potential using ELSI.
  | Chemical potential (Fermi level):    -9.91007851eV
  Highest occupied state (VBM) at    -14.50478497 eV
  | Occupation number:      2.00000000

  Lowest unoccupied state (CBM) at    -5.74240793 eV
  | Occupation number:      0.00000000

  Overall HOMO-LUMO gap:      8.76237705 eV.

  Checking to see if s.c.f. parameters should be adjusted.
  The system likely has a gap. Increased the default Pulay mixing parameter (charge_mix_param). Value:   0.200000 .
  Kept the default occupation width. Value:   0.010000 eV.

  Total energy components:
  | Sum of eigenvalues            :         -43.23235516 Ha       -1176.41223903 eV
  | XC energy correction          :          -8.72617847 Ha        -237.45139769 eV
  | XC potential correction       :          11.49148874 Ha         312.69931871 eV
  | Free-atom electrostatic energy:         -36.21776468 Ha        -985.53552045 eV
  | Hartree energy correction     :           0.53429879 Ha          14.53900979 eV
  | Entropy correction            :          -0.00000000 Ha          -0.00000000 eV
  | ---------------------------
  | Total energy                  :         -76.15051078 Ha       -2072.16082867 eV
  | Total energy, T -> 0          :         -76.15051078 Ha       -2072.16082867 eV  <-- do not rely on this value for anything but (periodic) metals
  | Electronic free energy        :         -76.15051078 Ha       -2072.16082867 eV

  Derived energy quantities:
  | Kinetic energy                :          75.71867436 Ha        2060.40996175 eV
  | Electrostatic energy          :        -143.14300666 Ha       -3895.11939273 eV
  | Energy correction for multipole
  | error in Hartree potential    :           0.00089136 Ha           0.02425524 eV
  | Sum of eigenvalues per atom                           :        -294.10305976 eV
  | Total energy (T->0) per atom                          :        -518.04020717 eV  <-- do not rely on this value for anything but (periodic) metals
  | Electronic free energy per atom                       :        -518.04020717 eV

  Self-consistency convergence accuracy:
  | Change of charge density      :  0.1697E+00
  | Change of sum of eigenvalues  : -0.1058E+02 eV
  | Change of total energy        :  0.1845E+01 eV

  End self-consistency iteration #     2       :  max(cpu_time)    wall_clock(cpu1)
  | Time for this iteration                    :        0.061 s           0.062 s
  | Charge density update                      :        0.011 s           0.012 s
  | Density mixing                             :        0.000 s           0.000 s
  | Hartree multipole update                   :        0.002 s           0.002 s
  | Hartree multipole summation                :        0.017 s           0.017 s
  | Integration                                :        0.030 s           0.030 s
  | Solution of K.-S. eqns.                    :        0.000 s           0.000 s
  | Total energy evaluation                    :        0.000 s           0.000 s

  Partial memory accounting:
  | Current value for overall tracked memory usage on task 0  :           0.018 MB
  | Peak value for overall tracked memory usage on task 0     :           0.083 MB after allocating wave
  | Largest tracked array allocation on task 0 so far         :           0.019 MB  when allocating H_times_psi
  Note:  These values currently only include a subset of arrays which are explicitly tracked.
  The "true" memory usage will be greater.
------------------------------------------------------------

------------------------------------------------------------
          Begin self-consistency iteration #    3

  Date     :  20190509, Time     :  111316.650
------------------------------------------------------------
  Evaluating new KS density.
  Integration grid: deviation in total charge (<rho> - N_e) =   5.329071E-15
  Pulay mixing of updated and previous charge densities.

  Evaluating partitioned Hartree potential by multipole expansion.
  | Analytical far-field extrapolation by fixed multipoles:
  | Hartree multipole sum: apparent total charge =   0.792523E+00
  Summing up the Hartree potential.
  Time summed over all CPUs for potential: real work        0.018 s, elapsed        0.018 s
  | RMS charge density error from multipole expansion :   0.460568E-02

  Integrating Hamiltonian matrix: batch-based integration.
  Time summed over all CPUs for integration: real work        0.029 s, elapsed        0.029 s

  Updating Kohn-Sham eigenvalues, eigenvectors, occupation numbers, and Fermi level.
  Solving generalized eigenproblem
  Updating Kohn-Sham eigenvalues and eigenfunctions.
  Solving real generalised eigenvalue problem by standard LAPACK (fast)

  Obtaining occupation numbers and chemical potential using ELSI.
  | Chemical potential (Fermi level):   -13.11215866eV
  Highest occupied state (VBM) at    -18.22325485 eV
  | Occupation number:      2.00000000

  Lowest unoccupied state (CBM) at    -9.07568218 eV
  | Occupation number:      0.00000000

  Overall HOMO-LUMO gap:      9.14757267 eV.

  Total energy components:
  | Sum of eigenvalues            :         -44.72839958 Ha       -1217.12167901 eV
  | XC energy correction          :          -8.60901684 Ha        -234.26326727 eV
  | XC potential correction       :          11.33844064 Ha         308.53466795 eV
  | Free-atom electrostatic energy:         -36.21776468 Ha        -985.53552045 eV
  | Hartree energy correction     :           2.11281211 Ha          57.49254274 eV
  | Entropy correction            :          -0.00000000 Ha          -0.00000000 eV
  | ---------------------------
  | Total energy                  :         -76.10392834 Ha       -2070.89325605 eV
  | Total energy, T -> 0          :         -76.10392834 Ha       -2070.89325605 eV  <-- do not rely on this value for anything but (periodic) metals
  | Electronic free energy        :         -76.10392834 Ha       -2070.89325605 eV

  Derived energy quantities:
  | Kinetic energy                :          75.28048289 Ha        2048.48616525 eV
  | Electrostatic energy          :        -142.77539440 Ha       -3885.11615403 eV
  | Energy correction for multipole
  | error in Hartree potential    :           0.00169994 Ha           0.04625771 eV
  | Sum of eigenvalues per atom                           :        -304.28041975 eV
  | Total energy (T->0) per atom                          :        -517.72331401 eV  <-- do not rely on this value for anything but (periodic) metals
  | Electronic free energy per atom                       :        -517.72331401 eV

  Self-consistency convergence accuracy:
  | Change of charge density      :  0.9623E-01
  | Change of sum of eigenvalues  : -0.4071E+02 eV
  | Change of total energy        :  0.1268E+01 eV

  End self-consistency iteration #     3       :  max(cpu_time)    wall_clock(cpu1)
  | Time for this iteration                    :        0.061 s           0.061 s
  | Charge density update                      :        0.012 s           0.012 s
  | Density mixing                             :        0.000 s           0.001 s
  | Hartree multipole update                   :        0.002 s           0.001 s
  | Hartree multipole summation                :        0.017 s           0.018 s
  | Integration                                :        0.029 s           0.029 s
  | Solution of K.-S. eqns.                    :        0.000 s           0.000 s
  | Total energy evaluation                    :        0.000 s           0.000 s

  Partial memory accounting:
  | Current value for overall tracked memory usage on task 0  :           0.018 MB
  | Peak value for overall tracked memory usage on task 0     :           0.083 MB after allocating wave
  | Largest tracked array allocation on task 0 so far         :           0.019 MB  when allocating H_times_psi
  Note:  These values currently only include a subset of arrays which are explicitly tracked.
  The "true" memory usage will be greater.
------------------------------------------------------------

------------------------------------------------------------
          Begin self-consistency iteration #    4

  Date     :  20190509, Time     :  111316.711
------------------------------------------------------------
  Evaluating new KS density.
  Integration grid: deviation in total charge (<rho> - N_e) =  -1.776357E-14
  Pulay mixing of updated and previous charge densities.

  Evaluating partitioned Hartree potential by multipole expansion.
  | Analytical far-field extrapolation by fixed multipoles:
  | Hartree multipole sum: apparent total charge =   0.101026E+01
  Summing up the Hartree potential.
  Time summed over all CPUs for potential: real work        0.017 s, elapsed        0.017 s
  | RMS charge density error from multipole expansion :   0.593040E-02

  Integrating Hamiltonian matrix: batch-based integration.
  Time summed over all CPUs for integration: real work        0.028 s, elapsed        0.028 s

  Updating Kohn-Sham eigenvalues, eigenvectors, occupation numbers, and Fermi level.
  Solving generalized eigenproblem
  Updating Kohn-Sham eigenvalues and eigenfunctions.
  Solving real generalised eigenvalue problem by standard LAPACK (fast)

  Obtaining occupation numbers and chemical potential using ELSI.
  | Chemical potential (Fermi level):   -14.31417807eV
  Highest occupied state (VBM) at    -19.40261266 eV
  | Occupation number:      2.00000000

  Lowest unoccupied state (CBM) at   -10.40015596 eV
  | Occupation number:      0.00000000

  Overall HOMO-LUMO gap:      9.00245669 eV.

  Total energy components:
  | Sum of eigenvalues            :         -45.17542096 Ha       -1229.28574977 eV
  | XC energy correction          :          -8.58829968 Ha        -233.69952472 eV
  | XC potential correction       :          11.31182031 Ha         307.81029194 eV
  | Free-atom electrostatic energy:         -36.21776468 Ha        -985.53552045 eV
  | Hartree energy correction     :           2.57068376 Ha          69.95186422 eV
  | Entropy correction            :          -0.00000000 Ha          -0.00000000 eV
  | ---------------------------
  | Total energy                  :         -76.09898125 Ha       -2070.75863878 eV
  | Total energy, T -> 0          :         -76.09898125 Ha       -2070.75863878 eV  <-- do not rely on this value for anything but (periodic) metals
  | Electronic free energy        :         -76.09898125 Ha       -2070.75863878 eV

  Derived energy quantities:
  | Kinetic energy                :          75.21622969 Ha        2046.73774666 eV
  | Electrostatic energy          :        -142.72691126 Ha       -3883.79686073 eV
  | Energy correction for multipole
  | error in Hartree potential    :           0.00225205 Ha           0.06128132 eV
  | Sum of eigenvalues per atom                           :        -307.32143744 eV
  | Total energy (T->0) per atom                          :        -517.68965970 eV  <-- do not rely on this value for anything but (periodic) metals
  | Electronic free energy per atom                       :        -517.68965970 eV

  Self-consistency convergence accuracy:
  | Change of charge density      :  0.5082E-01
  | Change of sum of eigenvalues  : -0.1216E+02 eV
  | Change of total energy        :  0.1346E+00 eV

  End self-consistency iteration #     4       :  max(cpu_time)    wall_clock(cpu1)
  | Time for this iteration                    :        0.060 s           0.061 s
  | Charge density update                      :        0.011 s           0.012 s
  | Density mixing                             :        0.001 s           0.000 s
  | Hartree multipole update                   :        0.002 s           0.002 s
  | Hartree multipole summation                :        0.017 s           0.018 s
  | Integration                                :        0.029 s           0.028 s
  | Solution of K.-S. eqns.                    :        0.000 s           0.001 s
  | Total energy evaluation                    :        0.000 s           0.000 s

  Partial memory accounting:
  | Current value for overall tracked memory usage on task 0  :           0.019 MB
  | Peak value for overall tracked memory usage on task 0     :           0.083 MB after allocating wave
  | Largest tracked array allocation on task 0 so far         :           0.019 MB  when allocating H_times_psi
  Note:  These values currently only include a subset of arrays which are explicitly tracked.
  The "true" memory usage will be greater.
------------------------------------------------------------

------------------------------------------------------------
          Begin self-consistency iteration #    5

  Date     :  20190509, Time     :  111316.772
------------------------------------------------------------
  Evaluating new KS density.
  Integration grid: deviation in total charge (<rho> - N_e) =   1.421085E-14
  Pulay mixing of updated and previous charge densities.

  Evaluating partitioned Hartree potential by multipole expansion.
  | Analytical far-field extrapolation by fixed multipoles:
  | Hartree multipole sum: apparent total charge =   0.102412E+01
  Summing up the Hartree potential.
  Time summed over all CPUs for potential: real work        0.017 s, elapsed        0.017 s
  | RMS charge density error from multipole expansion :   0.623684E-02

  Integrating Hamiltonian matrix: batch-based integration.
  Time summed over all CPUs for integration: real work        0.028 s, elapsed        0.028 s

  Updating Kohn-Sham eigenvalues, eigenvectors, occupation numbers, and Fermi level.
  Solving generalized eigenproblem
  Updating Kohn-Sham eigenvalues and eigenfunctions.
  Solving real generalised eigenvalue problem by standard LAPACK (fast)

  Obtaining occupation numbers and chemical potential using ELSI.
  | Chemical potential (Fermi level):   -14.23995912eV
  Highest occupied state (VBM) at    -19.35583110 eV
  | Occupation number:      2.00000000

  Lowest unoccupied state (CBM) at   -10.31336932 eV
  | Occupation number:      0.00000000

  Overall HOMO-LUMO gap:      9.04246178 eV.

  Total energy components:
  | Sum of eigenvalues            :         -45.12815631 Ha       -1227.99961321 eV
  | XC energy correction          :          -8.59913421 Ha        -233.99434725 eV
  | XC potential correction       :          11.32612200 Ha         308.19946054 eV
  | Free-atom electrostatic energy:         -36.21776468 Ha        -985.53552045 eV
  | Hartree energy correction     :           2.52006669 Ha          68.57450360 eV
  | Entropy correction            :          -0.00000000 Ha          -0.00000000 eV
  | ---------------------------
  | Total energy                  :         -76.09886652 Ha       -2070.75551677 eV
  | Total energy, T -> 0          :         -76.09886652 Ha       -2070.75551677 eV  <-- do not rely on this value for anything but (periodic) metals
  | Electronic free energy        :         -76.09886652 Ha       -2070.75551677 eV

  Derived energy quantities:
  | Kinetic energy                :          75.27320721 Ha        2048.28818397 eV
  | Electrostatic energy          :        -142.77293952 Ha       -3885.04935349 eV
  | Energy correction for multipole
  | error in Hartree potential    :           0.00241032 Ha           0.06558817 eV
  | Sum of eigenvalues per atom                           :        -306.99990330 eV
  | Total energy (T->0) per atom                          :        -517.68887919 eV  <-- do not rely on this value for anything but (periodic) metals
  | Electronic free energy per atom                       :        -517.68887919 eV

  Self-consistency convergence accuracy:
  | Change of charge density      :  0.1234E-01
  | Change of sum of eigenvalues  :  0.1286E+01 eV
  | Change of total energy        :  0.3122E-02 eV

  End self-consistency iteration #     5       :  max(cpu_time)    wall_clock(cpu1)
  | Time for this iteration                    :        0.060 s           0.060 s
  | Charge density update                      :        0.012 s           0.012 s
  | Density mixing                             :        0.001 s           0.000 s
  | Hartree multipole update                   :        0.002 s           0.002 s
  | Hartree multipole summation                :        0.017 s           0.017 s
  | Integration                                :        0.029 s           0.028 s
  | Solution of K.-S. eqns.                    :        0.000 s           0.000 s
  | Total energy evaluation                    :        0.000 s           0.001 s

  Partial memory accounting:
  | Current value for overall tracked memory usage on task 0  :           0.019 MB
  | Peak value for overall tracked memory usage on task 0     :           0.083 MB after allocating wave
  | Largest tracked array allocation on task 0 so far         :           0.019 MB  when allocating H_times_psi
  Note:  These values currently only include a subset of arrays which are explicitly tracked.
  The "true" memory usage will be greater.
------------------------------------------------------------

------------------------------------------------------------
          Begin self-consistency iteration #    6

  Date     :  20190509, Time     :  111316.832
------------------------------------------------------------
  Evaluating new KS density.
  Integration grid: deviation in total charge (<rho> - N_e) =  -3.552714E-15
  Pulay mixing of updated and previous charge densities.

  Evaluating partitioned Hartree potential by multipole expansion.
  | Analytical far-field extrapolation by fixed multipoles:
  | Hartree multipole sum: apparent total charge =   0.100983E+01
  Summing up the Hartree potential.
  Time summed over all CPUs for potential: real work        0.017 s, elapsed        0.017 s
  | RMS charge density error from multipole expansion :   0.613302E-02

  Integrating Hamiltonian matrix: batch-based integration.
  Time summed over all CPUs for integration: real work        0.031 s, elapsed        0.031 s

  Updating Kohn-Sham eigenvalues, eigenvectors, occupation numbers, and Fermi level.
  Solving generalized eigenproblem
  Updating Kohn-Sham eigenvalues and eigenfunctions.
  Solving real generalised eigenvalue problem by standard LAPACK (fast)

  Obtaining occupation numbers and chemical potential using ELSI.
  | Chemical potential (Fermi level):   -14.20972960eV
  Highest occupied state (VBM) at    -19.35535080 eV
  | Occupation number:      2.00000000

  Lowest unoccupied state (CBM) at   -10.27450092 eV
  | Occupation number:      0.00000000

  Overall HOMO-LUMO gap:      9.08084988 eV.

  Total energy components:
  | Sum of eigenvalues            :         -45.13745092 Ha       -1228.25253223 eV
  | XC energy correction          :          -8.59558137 Ha        -233.89766957 eV
  | XC potential correction       :          11.32138690 Ha         308.07061208 eV
  | Free-atom electrostatic energy:         -36.21776468 Ha        -985.53552045 eV
  | Hartree energy correction     :           2.53064414 Ha          68.86233069 eV
  | Entropy correction            :          -0.00000000 Ha          -0.00000000 eV
  | ---------------------------
  | Total energy                  :         -76.09876592 Ha       -2070.75277948 eV
  | Total energy, T -> 0          :         -76.09876592 Ha       -2070.75277948 eV  <-- do not rely on this value for anything but (periodic) metals
  | Electronic free energy        :         -76.09876592 Ha       -2070.75277948 eV

  Derived energy quantities:
  | Kinetic energy                :          75.24955068 Ha        2047.64445703 eV
  | Electrostatic energy          :        -142.75273524 Ha       -3884.49956694 eV
  | Energy correction for multipole
  | error in Hartree potential    :           0.00233151 Ha           0.06344365 eV
  | Sum of eigenvalues per atom                           :        -307.06313306 eV
  | Total energy (T->0) per atom                          :        -517.68819487 eV  <-- do not rely on this value for anything but (periodic) metals
  | Electronic free energy per atom                       :        -517.68819487 eV

  Self-consistency convergence accuracy:
  | Change of charge density      :  0.1149E-01
  | Change of sum of eigenvalues  : -0.2529E+00 eV
  | Change of total energy        :  0.2737E-02 eV

  End self-consistency iteration #     6       :  max(cpu_time)    wall_clock(cpu1)
  | Time for this iteration                    :        0.061 s           0.061 s
  | Charge density update                      :        0.011 s           0.011 s
  | Density mixing                             :        0.001 s           0.001 s
  | Hartree multipole update                   :        0.002 s           0.001 s
  | Hartree multipole summation                :        0.017 s           0.017 s
  | Integration                                :        0.030 s           0.031 s
  | Solution of K.-S. eqns.                    :        0.000 s           0.000 s
  | Total energy evaluation                    :        0.000 s           0.000 s

  Partial memory accounting:
  | Current value for overall tracked memory usage on task 0  :           0.019 MB
  | Peak value for overall tracked memory usage on task 0     :           0.084 MB after allocating wave
  | Largest tracked array allocation on task 0 so far         :           0.019 MB  when allocating H_times_psi
  Note:  These values currently only include a subset of arrays which are explicitly tracked.
  The "true" memory usage will be greater.
------------------------------------------------------------

------------------------------------------------------------
          Begin self-consistency iteration #    7

  Date     :  20190509, Time     :  111316.893
------------------------------------------------------------
  Evaluating new KS density.
  Integration grid: deviation in total charge (<rho> - N_e) =   5.329071E-15
  Pulay mixing of updated and previous charge densities.

  Evaluating partitioned Hartree potential by multipole expansion.
  | Analytical far-field extrapolation by fixed multipoles:
  | Hartree multipole sum: apparent total charge =   0.999529E+00
  Summing up the Hartree potential.
  Time summed over all CPUs for potential: real work        0.017 s, elapsed        0.017 s
  | RMS charge density error from multipole expansion :   0.610951E-02

  Integrating Hamiltonian matrix: batch-based integration.
  Time summed over all CPUs for integration: real work        0.031 s, elapsed        0.031 s

  Updating Kohn-Sham eigenvalues, eigenvectors, occupation numbers, and Fermi level.
  Solving generalized eigenproblem
  Updating Kohn-Sham eigenvalues and eigenfunctions.
  Solving real generalised eigenvalue problem by standard LAPACK (fast)

  Obtaining occupation numbers and chemical potential using ELSI.
  | Chemical potential (Fermi level):   -14.12900085eV
  Highest occupied state (VBM) at    -19.25177730 eV
  | Occupation number:      2.00000000

  Lowest unoccupied state (CBM) at   -10.18796830 eV
  | Occupation number:      0.00000000

  Overall HOMO-LUMO gap:      9.06380900 eV.

  Total energy components:
  | Sum of eigenvalues            :         -45.09687372 Ha       -1227.14837063 eV
  | XC energy correction          :          -8.59917698 Ha        -233.99551121 eV
  | XC potential correction       :          11.32608960 Ha         308.19857898 eV
  | Free-atom electrostatic energy:         -36.21776468 Ha        -985.53552045 eV
  | Hartree energy correction     :           2.48897927 Ha          67.72857204 eV
  | Entropy correction            :          -0.00000000 Ha          -0.00000000 eV
  | ---------------------------
  | Total energy                  :         -76.09874651 Ha       -2070.75225128 eV
  | Total energy, T -> 0          :         -76.09874651 Ha       -2070.75225128 eV  <-- do not rely on this value for anything but (periodic) metals
  | Electronic free energy        :         -76.09874651 Ha       -2070.75225128 eV

  Derived energy quantities:
  | Kinetic energy                :          75.26328679 Ha        2048.01823552 eV
  | Electrostatic energy          :        -142.76285632 Ha       -3884.77497559 eV
  | Energy correction for multipole
  | error in Hartree potential    :           0.00229662 Ha           0.06249434 eV
  | Sum of eigenvalues per atom                           :        -306.78709266 eV
  | Total energy (T->0) per atom                          :        -517.68806282 eV  <-- do not rely on this value for anything but (periodic) metals
  | Electronic free energy per atom                       :        -517.68806282 eV

  Self-consistency convergence accuracy:
  | Change of charge density      :  0.2092E-02
  | Change of sum of eigenvalues  :  0.1104E+01 eV
  | Change of total energy        :  0.5282E-03 eV

  End self-consistency iteration #     7       :  max(cpu_time)    wall_clock(cpu1)
  | Time for this iteration                    :        0.064 s           0.064 s
  | Charge density update                      :        0.012 s           0.012 s
  | Density mixing                             :        0.001 s           0.001 s
  | Hartree multipole update                   :        0.002 s           0.002 s
  | Hartree multipole summation                :        0.018 s           0.017 s
  | Integration                                :        0.031 s           0.031 s
  | Solution of K.-S. eqns.                    :        0.000 s           0.000 s
  | Total energy evaluation                    :        0.000 s           0.001 s

  Partial memory accounting:
  | Current value for overall tracked memory usage on task 0  :           0.019 MB
  | Peak value for overall tracked memory usage on task 0     :           0.084 MB after allocating wave
  | Largest tracked array allocation on task 0 so far         :           0.019 MB  when allocating H_times_psi
  Note:  These values currently only include a subset of arrays which are explicitly tracked.
  The "true" memory usage will be greater.
------------------------------------------------------------

------------------------------------------------------------
          Begin self-consistency iteration #    8

  Date     :  20190509, Time     :  111316.957
------------------------------------------------------------
  Evaluating new KS density.
  Integration grid: deviation in total charge (<rho> - N_e) =   1.421085E-14
  Pulay mixing of updated and previous charge densities.

  Evaluating partitioned Hartree potential by multipole expansion.
  | Analytical far-field extrapolation by fixed multipoles:
  | Hartree multipole sum: apparent total charge =   0.999316E+00
  Summing up the Hartree potential.
  Time summed over all CPUs for potential: real work        0.019 s, elapsed        0.019 s
  | RMS charge density error from multipole expansion :   0.611137E-02

  Integrating Hamiltonian matrix: batch-based integration.
  Time summed over all CPUs for integration: real work        0.030 s, elapsed        0.030 s

  Updating Kohn-Sham eigenvalues, eigenvectors, occupation numbers, and Fermi level.
  Solving generalized eigenproblem
  Updating Kohn-Sham eigenvalues and eigenfunctions.
  Solving real generalised eigenvalue problem by standard LAPACK (fast)

  Obtaining occupation numbers and chemical potential using ELSI.
  | Chemical potential (Fermi level):   -14.12601316eV
  Highest occupied state (VBM) at    -19.24779944 eV
  | Occupation number:      2.00000000

  Lowest unoccupied state (CBM) at   -10.18489620 eV
  | Occupation number:      0.00000000

  Overall HOMO-LUMO gap:      9.06290324 eV.

  Total energy components:
  | Sum of eigenvalues            :         -45.09535601 Ha       -1227.10707165 eV
  | XC energy correction          :          -8.59934621 Ha        -234.00011628 eV
  | XC potential correction       :          11.32631128 Ha         308.20461119 eV
  | Free-atom electrostatic energy:         -36.21776468 Ha        -985.53552045 eV
  | Hartree energy correction     :           2.48740914 Ha          67.68584643 eV
  | Entropy correction            :          -0.00000000 Ha          -0.00000000 eV
  | ---------------------------
  | Total energy                  :         -76.09874649 Ha       -2070.75225076 eV
  | Total energy, T -> 0          :         -76.09874649 Ha       -2070.75225076 eV  <-- do not rely on this value for anything but (periodic) metals
  | Electronic free energy        :         -76.09874649 Ha       -2070.75225076 eV

  Derived energy quantities:
  | Kinetic energy                :          75.26358452 Ha        2048.02633721 eV
  | Electrostatic energy          :        -142.76298480 Ha       -3884.77847169 eV
  | Energy correction for multipole
  | error in Hartree potential    :           0.00229347 Ha           0.06240851 eV
  | Sum of eigenvalues per atom                           :        -306.77676791 eV
  | Total energy (T->0) per atom                          :        -517.68806269 eV  <-- do not rely on this value for anything but (periodic) metals
  | Electronic free energy per atom                       :        -517.68806269 eV

  Self-consistency convergence accuracy:
  | Change of charge density      :  0.4098E-03
  | Change of sum of eigenvalues  :  0.4130E-01 eV
  | Change of total energy        :  0.5224E-06 eV

  End self-consistency iteration #     8       :  max(cpu_time)    wall_clock(cpu1)
  | Time for this iteration                    :        0.064 s           0.064 s
  | Charge density update                      :        0.012 s           0.012 s
  | Density mixing                             :        0.001 s           0.001 s
  | Hartree multipole update                   :        0.002 s           0.002 s
  | Hartree multipole summation                :        0.019 s           0.019 s
  | Integration                                :        0.030 s           0.030 s
  | Solution of K.-S. eqns.                    :        0.000 s           0.000 s
  | Total energy evaluation                    :        0.000 s           0.000 s

  Partial memory accounting:
  | Current value for overall tracked memory usage on task 0  :           0.020 MB
  | Peak value for overall tracked memory usage on task 0     :           0.084 MB after allocating wave
  | Largest tracked array allocation on task 0 so far         :           0.019 MB  when allocating H_times_psi
  Note:  These values currently only include a subset of arrays which are explicitly tracked.
  The "true" memory usage will be greater.
------------------------------------------------------------

------------------------------------------------------------
          Begin self-consistency iteration #    9

  Date     :  20190509, Time     :  111317.021
------------------------------------------------------------
  Evaluating new KS density.
  Integration grid: deviation in total charge (<rho> - N_e) =  -1.776357E-15
  Pulay mixing of updated and previous charge densities.

  Evaluating partitioned Hartree potential by multipole expansion.
  | Analytical far-field extrapolation by fixed multipoles:
  | Hartree multipole sum: apparent total charge =   0.999608E+00
  Summing up the Hartree potential.
  Time summed over all CPUs for potential: real work        0.017 s, elapsed        0.017 s
  | RMS charge density error from multipole expansion :   0.611468E-02

  Integrating Hamiltonian matrix: batch-based integration.
  Time summed over all CPUs for integration: real work        0.029 s, elapsed        0.029 s

  Updating Kohn-Sham eigenvalues, eigenvectors, occupation numbers, and Fermi level.
  Solving generalized eigenproblem
  Updating Kohn-Sham eigenvalues and eigenfunctions.
  Solving real generalised eigenvalue problem by standard LAPACK (fast)

  Obtaining occupation numbers and chemical potential using ELSI.
  | Chemical potential (Fermi level):   -14.12598958eV
  Highest occupied state (VBM) at    -19.24609233 eV
  | Occupation number:      2.00000000

  Lowest unoccupied state (CBM) at   -10.18510057 eV
  | Occupation number:      0.00000000

  Overall HOMO-LUMO gap:      9.06099176 eV.

  Total energy components:
  | Sum of eigenvalues            :         -45.09477908 Ha       -1227.09137254 eV
  | XC energy correction          :          -8.59943068 Ha        -234.00241482 eV
  | XC potential correction       :          11.32642276 Ha         308.20764470 eV
  | Free-atom electrostatic energy:         -36.21776468 Ha        -985.53552045 eV
  | Hartree energy correction     :           2.48680539 Ha          67.66941775 eV
  | Entropy correction            :          -0.00000000 Ha          -0.00000000 eV
  | ---------------------------
  | Total energy                  :         -76.09874629 Ha       -2070.75224537 eV
  | Total energy, T -> 0          :         -76.09874629 Ha       -2070.75224537 eV  <-- do not rely on this value for anything but (periodic) metals
  | Electronic free energy        :         -76.09874629 Ha       -2070.75224537 eV

  Derived energy quantities:
  | Kinetic energy                :          75.26313559 Ha        2048.01412110 eV
  | Electrostatic energy          :        -142.76245120 Ha       -3884.76395164 eV
  | Energy correction for multipole
  | error in Hartree potential    :           0.00228774 Ha           0.06225268 eV
  | Sum of eigenvalues per atom                           :        -306.77284314 eV
  | Total energy (T->0) per atom                          :        -517.68806134 eV  <-- do not rely on this value for anything but (periodic) metals
  | Electronic free energy per atom                       :        -517.68806134 eV

  Self-consistency convergence accuracy:
  | Change of charge density      :  0.3247E-03
  | Change of sum of eigenvalues  :  0.1570E-01 eV
  | Change of total energy        :  0.5392E-05 eV

  End self-consistency iteration #     9       :  max(cpu_time)    wall_clock(cpu1)
  | Time for this iteration                    :        0.061 s           0.061 s
  | Charge density update                      :        0.011 s           0.011 s
  | Density mixing                             :        0.001 s           0.000 s
  | Hartree multipole update                   :        0.002 s           0.001 s
  | Hartree multipole summation                :        0.017 s           0.017 s
  | Integration                                :        0.029 s           0.029 s
  | Solution of K.-S. eqns.                    :        0.000 s           0.001 s
  | Total energy evaluation                    :        0.000 s           0.000 s

  Partial memory accounting:
  | Current value for overall tracked memory usage on task 0  :           0.020 MB
  | Peak value for overall tracked memory usage on task 0     :           0.085 MB after allocating wave
  | Largest tracked array allocation on task 0 so far         :           0.019 MB  when allocating H_times_psi
  Note:  These values currently only include a subset of arrays which are explicitly tracked.
  The "true" memory usage will be greater.
------------------------------------------------------------

------------------------------------------------------------
          Begin self-consistency iteration #   10

  Date     :  20190509, Time     :  111317.082
------------------------------------------------------------
  Evaluating new KS density.
  Integration grid: deviation in total charge (<rho> - N_e) =  -3.552714E-15
  Pulay mixing of updated and previous charge densities.

  Evaluating partitioned Hartree potential by multipole expansion.
  | Analytical far-field extrapolation by fixed multipoles:
  | Hartree multipole sum: apparent total charge =   0.999602E+00
  Summing up the Hartree potential.
  Time summed over all CPUs for potential: real work        0.017 s, elapsed        0.017 s
  | RMS charge density error from multipole expansion :   0.611463E-02

  Integrating Hamiltonian matrix: batch-based integration.
  Time summed over all CPUs for integration: real work        0.030 s, elapsed        0.030 s

  Updating Kohn-Sham eigenvalues, eigenvectors, occupation numbers, and Fermi level.
  Solving generalized eigenproblem
  Updating Kohn-Sham eigenvalues and eigenfunctions.
  Solving real generalised eigenvalue problem by standard LAPACK (fast)

  Obtaining occupation numbers and chemical potential using ELSI.
  | Chemical potential (Fermi level):   -14.12605984eV
  Highest occupied state (VBM) at    -19.24629306 eV
  | Occupation number:      2.00000000

  Lowest unoccupied state (CBM) at   -10.18517006 eV
  | Occupation number:      0.00000000

  Overall HOMO-LUMO gap:      9.06112300 eV.

  Total energy components:
  | Sum of eigenvalues            :         -45.09487047 Ha       -1227.09385937 eV
  | XC energy correction          :          -8.59941928 Ha        -234.00210459 eV
  | XC potential correction       :          11.32640771 Ha         308.20723520 eV
  | Free-atom electrostatic energy:         -36.21776468 Ha        -985.53552045 eV
  | Hartree energy correction     :           2.48690043 Ha          67.67200393 eV
  | Entropy correction            :          -0.00000000 Ha          -0.00000000 eV
  | ---------------------------
  | Total energy                  :         -76.09874629 Ha       -2070.75224529 eV
  | Total energy, T -> 0          :         -76.09874629 Ha       -2070.75224529 eV  <-- do not rely on this value for anything but (periodic) metals
  | Electronic free energy        :         -76.09874629 Ha       -2070.75224529 eV

  Derived energy quantities:
  | Kinetic energy                :          75.26309163 Ha        2048.01292487 eV
  | Electrostatic energy          :        -142.76241863 Ha       -3884.76306557 eV
  | Energy correction for multipole
  | error in Hartree potential    :           0.00228770 Ha           0.06225135 eV
  | Sum of eigenvalues per atom                           :        -306.77346484 eV
  | Total energy (T->0) per atom                          :        -517.68806132 eV  <-- do not rely on this value for anything but (periodic) metals
  | Electronic free energy per atom                       :        -517.68806132 eV

  Self-consistency convergence accuracy:
  | Change of charge density      :  0.1878E-04
  | Change of sum of eigenvalues  : -0.2487E-02 eV
  | Change of total energy        :  0.7213E-07 eV

  End self-consistency iteration #    10       :  max(cpu_time)    wall_clock(cpu1)
  | Time for this iteration                    :        0.062 s           0.062 s
  | Charge density update                      :        0.011 s           0.011 s
  | Density mixing                             :        0.001 s           0.001 s
  | Hartree multipole update                   :        0.002 s           0.002 s
  | Hartree multipole summation                :        0.017 s           0.017 s
  | Integration                                :        0.030 s           0.030 s
  | Solution of K.-S. eqns.                    :        0.000 s           0.001 s
  | Total energy evaluation                    :        0.000 s           0.000 s

  Partial memory accounting:
  | Current value for overall tracked memory usage on task 0  :           0.020 MB
  | Peak value for overall tracked memory usage on task 0     :           0.085 MB after allocating wave
  | Largest tracked array allocation on task 0 so far         :           0.019 MB  when allocating H_times_psi
  Note:  These values currently only include a subset of arrays which are explicitly tracked.
  The "true" memory usage will be greater.
------------------------------------------------------------

------------------------------------------------------------
          Begin self-consistency iteration #   11

  Date     :  20190509, Time     :  111317.144
------------------------------------------------------------
  Evaluating new KS density.
  Integration grid: deviation in total charge (<rho> - N_e) =  -1.598721E-14
  Pulay mixing of updated and previous charge densities.

  Evaluating partitioned Hartree potential by multipole expansion.
  | Analytical far-field extrapolation by fixed multipoles:
  | Hartree multipole sum: apparent total charge =   0.999624E+00
  Summing up the Hartree potential.
  Time summed over all CPUs for potential: real work        0.017 s, elapsed        0.017 s
  | RMS charge density error from multipole expansion :   0.611478E-02

  Integrating Hamiltonian matrix: batch-based integration.
  Time summed over all CPUs for integration: real work        0.030 s, elapsed        0.030 s

  Updating Kohn-Sham eigenvalues, eigenvectors, occupation numbers, and Fermi level.
  Solving generalized eigenproblem
  Updating Kohn-Sham eigenvalues and eigenfunctions.
  Solving real generalised eigenvalue problem by standard LAPACK (fast)

  Obtaining occupation numbers and chemical potential using ELSI.
  | Chemical potential (Fermi level):   -14.12615125eV
[...]
  Summing up the Hartree potential.
  Time summed over all CPUs for potential: real work        0.017 s, elapsed        0.017 s
  | RMS charge density error from multipole expansion :   0.925693E-02

  Integrating Hamiltonian matrix: batch-based integration.
  Time summed over all CPUs for integration: real work        0.029 s, elapsed        0.029 s

  Updating Kohn-Sham eigenvalues, eigenvectors, occupation numbers, and Fermi level.
  Solving generalized eigenproblem
  Updating Kohn-Sham eigenvalues and eigenfunctions.
  Solving real generalised eigenvalue problem by standard LAPACK (fast)

  Obtaining occupation numbers and chemical potential using ELSI.
  | Chemical potential (Fermi level):   -12.13993096eV
  Highest occupied state (VBM) at    -18.67281661 eV
  | Occupation number:      2.00000000

  Lowest unoccupied state (CBM) at    -8.19029993 eV
  | Occupation number:      0.00000000

  Overall HOMO-LUMO gap:     10.48251668 eV.

  Total energy components:
  | Sum of eigenvalues            :         -45.63670230 Ha       -1241.83785362 eV
  | XC energy correction          :          -8.80375445 Ha        -239.56234746 eV
  | XC potential correction       :          11.59581397 Ha         315.53815249 eV
  | Free-atom electrostatic energy:         -35.29706310 Ha        -960.48195582 eV
  | Hartree energy correction     :           1.96796186 Ha          53.55096690 eV
  | Entropy correction            :          -0.00000000 Ha          -0.00000000 eV
  | ---------------------------
  | Total energy                  :         -76.17374403 Ha       -2072.79303751 eV
  | Total energy, T -> 0          :         -76.17374403 Ha       -2072.79303751 eV  <-- do not rely on this value for anything but (periodic) metals
  | Electronic free energy        :         -76.17374403 Ha       -2072.79303751 eV

  Derived energy quantities:
  | Kinetic energy                :          75.82731777 Ha        2063.36629946 eV
  | Electrostatic energy          :        -143.19730734 Ha       -3896.59698951 eV
  | Energy correction for multipole
  | error in Hartree potential    :           0.00621338 Ha           0.16907455 eV
  | Sum of eigenvalues per atom                           :        -310.45946341 eV
  | Total energy (T->0) per atom                          :        -518.19825938 eV  <-- do not rely on this value for anything but (periodic) metals
  | Electronic free energy per atom                       :        -518.19825938 eV

  Self-consistency convergence accuracy:
  | Change of charge density      :  0.4460E-06
  | Change of sum of eigenvalues  :  0.5327E-05 eV
  | Change of total energy        : -0.5549E-08 eV

  Electronic self-consistency reached - switching on the force computation.

  End self-consistency iteration #     6       :  max(cpu_time)    wall_clock(cpu1)
  | Time for this iteration                    :        0.059 s           0.059 s
  | Charge density & force component update    :        0.011 s           0.011 s
  | Density mixing                             :        0.001 s           0.001 s
  | Hartree multipole update                   :        0.001 s           0.001 s
  | Hartree multipole summation                :        0.017 s           0.017 s
  | Integration                                :        0.029 s           0.029 s
  | Solution of K.-S. eqns.                    :        0.000 s           0.000 s
  | Total energy evaluation                    :        0.000 s           0.000 s

  Partial memory accounting:
  | Current value for overall tracked memory usage on task 0  :           0.023 MB
  | Peak value for overall tracked memory usage on task 0     :           0.119 MB after allocating h_times_wave
  | Largest tracked array allocation on task 0 so far         :           0.058 MB  when allocating gradient_basis_wave
  Note:  These values currently only include a subset of arrays which are explicitly tracked.
  The "true" memory usage will be greater.
------------------------------------------------------------

------------------------------------------------------------
          Begin self-consistency iteration #    7

  Date     :  20190509, Time     :  111323.695
------------------------------------------------------------
  Evaluating new KS density and force components.
  Integration grid: deviation in total charge (<rho> - N_e) =  -3.552714E-15
  Pulay mixing of updated and previous charge densities.

  Evaluating partitioned Hartree potential by multipole expansion.
  | Analytical far-field extrapolation by fixed multipoles:
  | Hartree multipole sum: apparent total charge =   0.999566E+00
  Summing up the Hartree potential.
  Time summed over all CPUs for potential: real work        0.054 s, elapsed        0.054 s
  | RMS charge density error from multipole expansion :   0.925693E-02

  Integrating Hamiltonian matrix: batch-based integration.
  Time summed over all CPUs for integration: real work        0.029 s, elapsed        0.029 s

  Updating Kohn-Sham eigenvalues, eigenvectors, occupation numbers, and Fermi level.
  Solving generalized eigenproblem
  Updating Kohn-Sham eigenvalues and eigenfunctions.
  Solving real generalised eigenvalue problem by standard LAPACK (fast)

  Obtaining occupation numbers and chemical potential using ELSI.
  | Chemical potential (Fermi level):   -12.13993088eV
  Highest occupied state (VBM) at    -18.67281652 eV
  | Occupation number:      2.00000000

  Lowest unoccupied state (CBM) at    -8.19029990 eV
  | Occupation number:      0.00000000

  Overall HOMO-LUMO gap:     10.48251662 eV.

  Total energy components:
  | Sum of eigenvalues            :         -45.63670227 Ha       -1241.83785280 eV
  | XC energy correction          :          -8.80375446 Ha        -239.56234765 eV
  | XC potential correction       :          11.59581398 Ha         315.53815273 eV
  | Free-atom electrostatic energy:         -35.29706310 Ha        -960.48195582 eV
  | Hartree energy correction     :           1.96796183 Ha          53.55096602 eV
  | Entropy correction            :          -0.00000000 Ha          -0.00000000 eV
  | ---------------------------
  | Total energy                  :         -76.17374403 Ha       -2072.79303751 eV
  | Total energy, T -> 0          :         -76.17374403 Ha       -2072.79303751 eV  <-- do not rely on this value for anything but (periodic) metals
  | Electronic free energy        :         -76.17374403 Ha       -2072.79303751 eV

  Derived energy quantities:
  | Kinetic energy                :          75.82731781 Ha        2063.36630052 eV
  | Electrostatic energy          :        -143.19730738 Ha       -3896.59699038 eV
  | Energy correction for multipole
  | error in Hartree potential    :           0.00621338 Ha           0.16907458 eV
  | Sum of eigenvalues per atom                           :        -310.45946320 eV
  | Total energy (T->0) per atom                          :        -518.19825938 eV  <-- do not rely on this value for anything but (periodic) metals
  | Electronic free energy per atom                       :        -518.19825938 eV

  atomic forces [eV/Ang]:
  -----------------------
  atom #    1
   Hellmann-Feynman              : -0.229845E-11  0.133289E-02 -0.883505E+01
   Ionic forces                  :  0.000000E+00  0.000000E+00  0.000000E+00
   Multipole                     :  0.287119E-12  0.147760E-04 -0.325376E+00
   Pulay                         : -0.211244E-12 -0.572945E-03  0.916029E+01
   ----------------------------------------------------------------
   Total forces(   1)            : -0.222257E-11  0.774718E-03 -0.142984E-03
  atom #    2
   Hellmann-Feynman              :  0.207402E+00 -0.120101E+00  0.134396E+00
   Ionic forces                  :  0.000000E+00  0.000000E+00  0.000000E+00
   Multipole                     :  0.498661E-01 -0.287840E-01  0.627725E-01
   Pulay                         : -0.257414E+00  0.148642E+00 -0.196417E+00
   ----------------------------------------------------------------
   Total forces(   2)            : -0.145561E-03 -0.243244E-03  0.752015E-03
  atom #    3
   Hellmann-Feynman              : -0.207402E+00 -0.120101E+00  0.134396E+00
   Ionic forces                  :  0.000000E+00  0.000000E+00  0.000000E+00
   Multipole                     : -0.498661E-01 -0.287840E-01  0.627725E-01
   Pulay                         :  0.257414E+00  0.148642E+00 -0.196417E+00
   ----------------------------------------------------------------
   Total forces(   3)            :  0.145561E-03 -0.243244E-03  0.752015E-03
  atom #    4
   Hellmann-Feynman              :  0.843733E-12  0.239498E+00  0.134280E+00
   Ionic forces                  :  0.000000E+00  0.000000E+00  0.000000E+00
   Multipole                     : -0.751055E-14  0.575297E-01  0.627261E-01
   Pulay                         :  0.414093E-13 -0.297159E+00 -0.196449E+00
   ----------------------------------------------------------------
   Total forces(   4)            :  0.877632E-12 -0.131603E-03  0.556677E-03


  Self-consistency convergence accuracy:
  | Change of charge density      :  0.3951E-07
  | Change of sum of eigenvalues  :  0.8249E-06 eV
  | Change of total energy        : -0.9227E-09 eV
  | Change of forces              :  0.4591E+01 eV/A

  Writing Kohn-Sham eigenvalues.

  State    Occupation    Eigenvalue [Ha]    Eigenvalue [eV]
      1       2.00000         -19.024223         -517.67545
      2       2.00000          -1.348550          -36.69592
      3       2.00000          -0.879689          -23.93755
      4       2.00000          -0.879675          -23.93719
      5       2.00000          -0.686213          -18.67282
      6       0.00000          -0.300988           -8.19030
      7       0.00000          -0.207033           -5.63366
      8       0.00000          -0.207027           -5.63349
      9       0.00000           0.016564            0.45074
     10       0.00000           0.052448            1.42718
     11       0.00000           0.052459            1.42747
     12       0.00000           0.240610            6.54734
     13       0.00000           0.467542           12.72247

  Highest occupied state (VBM) at    -18.67281652 eV
  | Occupation number:      2.00000000

  Lowest unoccupied state (CBM) at    -8.19029990 eV
  | Occupation number:      0.00000000

  Overall HOMO-LUMO gap:     10.48251662 eV.

  Self-consistency cycle converged.

  End self-consistency iteration #     7       :  max(cpu_time)    wall_clock(cpu1)
  | Time for this iteration                    :        0.127 s           0.127 s
  | Charge density & force component update    :        0.041 s           0.041 s
  | Density mixing                             :        0.001 s           0.001 s
  | Hartree multipole update                   :        0.001 s           0.001 s
  | Hartree multipole summation                :        0.053 s           0.054 s
  | Integration                                :        0.030 s           0.029 s
  | Solution of K.-S. eqns.                    :        0.000 s           0.001 s
  | Total energy evaluation                    :        0.000 s           0.000 s

  Partial memory accounting:
  | Current value for overall tracked memory usage on task 0  :           0.023 MB
  | Peak value for overall tracked memory usage on task 0     :           0.119 MB after allocating h_times_wave
  | Largest tracked array allocation on task 0 so far         :           0.058 MB  when allocating gradient_basis_wave
  Note:  These values currently only include a subset of arrays which are explicitly tracked.
  The "true" memory usage will be greater.
------------------------------------------------------------
  Removing unitary transformations (pure translations, rotations) from forces on atoms.
  Atomic forces before filtering:
  | Net force on center of mass :  -0.233906E-12  0.156628E-03  0.191772E-02 eV/A
  | Net torque on center of mass:   0.226199E-04  0.429053E-13 -0.295070E-13 eV
  Atomic forces after filtering:
  | Net force on center of mass :   0.685611E-20 -0.217781E-19  0.000000E+00 eV/A
  | Net torque on center of mass:  -0.115245E-18  0.676383E-19  0.866499E-19 eV

  Energy and forces in a compact form:
  | Total energy uncorrected      :         -0.207279303751402E+04 eV
  | Total energy corrected        :         -0.207279303751402E+04 eV  <-- do not rely on this value for anything but (periodic) metals
  | Electronic free energy        :         -0.207279303751402E+04 eV
  Total atomic forces (unitary forces cleaned) [eV/Ang]:
  |   1         -0.215766798485751E-11          0.732171467857265E-03         -0.622415157093073E-03
  |   2         -0.145560823569648E-03         -0.281271867134608E-03          0.280170064997336E-03
  |   3          0.145560824803687E-03         -0.281271867488543E-03          0.280170064255015E-03
  |   4          0.923629048197045E-12         -0.169627733234113E-03          0.620750278407219E-04

  ------------------------------------ 
  Start decomposition of the XC Energy 
  ------------------------------------ 
  X and C from original XC functional choice 
  Hartree-Fock Energy :          0.000000000 Ha              0.000000000 eV
  X Energy            :         -8.140124735 Ha           -221.504064041 eV
  C Energy            :         -0.663629725 Ha            -18.058283609 eV
  Total XC Energy     :         -8.803754460 Ha           -239.562347649 eV
  ------------------------------------ 
  LDA X and C from self-consistent density 
  X Energy LDA        :         -8.140124735 Ha           -221.504064041 eV
  C Energy LDA        :         -0.663629725 Ha            -18.058283609 eV
  ------------------------------------ 
  End decomposition of the XC Energy 
  ------------------------------------ 

------------------------------------------------------------
  Relaxation / MD: End force evaluation.       :  max(cpu_time)    wall_clock(cpu1)
  | Time for this force evaluation             :        0.560 s           0.560 s

------------------------------------------------------------
  Geometry optimization: Attempting to predict improved coordinates.

  Removing unitary transformations (pure translations, rotations) from forces on atoms.
  Atomic forces before filtering:
  | Net force on center of mass :   0.685611E-20 -0.217781E-19  0.000000E+00 eV/A
  | Net torque on center of mass:  -0.115245E-18  0.676383E-19  0.866499E-19 eV
  Atomic forces after filtering:
  | Net force on center of mass :  -0.310108E-19 -0.217781E-19  0.326671E-19 eV/A
  | Net torque on center of mass:  -0.806713E-19 -0.241533E-19  0.812353E-19 eV
  Net remaining forces (excluding translations, rotations) in present geometry:
  Maximum force component is  0.732171E-03 eV/A.
  Present geometry is converged.

------------------------------------------------------------
  Final atomic structure:
                         x [A]             y [A]             z [A]
            atom         0.00000000        0.00001836        0.19077151  O
            atom         0.82425584       -0.47587261        0.47423563  H
            atom        -0.82425584       -0.47587261        0.47423563  H
            atom        -0.00000000        0.95172688        0.47446636  H
------------------------------------------------------------

------------------------------------------------------------------------------
  Final output of selected total energy values:

  The following output summarizes some interesting total energy values
  at the end of a run (AFTER all relaxation, molecular dynamics, etc.).

  | Total energy of the DFT / Hartree-Fock s.c.f. calculation      :          -2072.793037514 eV
  | Final zero-broadening corrected energy (caution - metals only) :          -2072.793037514 eV
  | For reference only, the value of 1 Hartree used in FHI-aims is :             27.211384500 eV

  Before relying on these values, please be sure to understand exactly which
  total energy value is referred to by a given number. Different objects may
  all carry the same name 'total energy'. Definitions:

  Total energy of the DFT / Hartree-Fock s.c.f. calculation:
  | Note that this energy does not include ANY quantities calculated after the
  | s.c.f. cycle, in particular not ANY RPA, MP2, etc. many-body perturbation terms.

  Final zero-broadening corrected energy:
  | For metallic systems only, a broadening of the occupation numbers at the Fermi
  | level can be extrapolated back to zero broadening by an electron-gas inspired
  | formula. For all systems that are not real metals, this value can be
  | meaningless and should be avoided.

------------------------------------------------------------------------------
  Methods described in the following list of references were used in this FHI-aims run.
  If you publish the results, please make sure to cite these reference if they apply.
  FHI-aims is an academic code, and for our developers (often, Ph.D. students
  and postdocs), scientific credit in the community is essential.
  Thank you for helping us!

  For any use of FHI-aims, please cite:

    Volker Blum, Ralf Gehrke, Felix Hanke, Paula Havu, Ville Havu,
    Xinguo Ren, Karsten Reuter, and Matthias Scheffler
    'Ab initio molecular simulations with numeric atom-centered orbitals'
    Computer Physics Communications 180, 2175-2196 (2009)
    http://dx.doi.org/10.1016/j.cpc.2009.06.022


  For the real-space grid partitioning and parallelization used in this calculation, please cite:

    Ville Havu, Volker Blum, Paula Havu, and Matthias Scheffler,
    'Efficient O(N) integration for all-electron electronic structure calculation'
    'using numerically tabulated basis functions'
    Journal of Computational Physics 228, 8367-8379 (2009).
    http://dx.doi.org/10.1016/j.jcp.2009.08.008

  Of course, there are many other important community references, e.g., those cited in the
  above references. Our list is limited to references that describe implementations in the
  FHI-aims code. The reason is purely practical (length of this list) - please credit others as well.

------------------------------------------------------------
          Leaving FHI-aims.
          Date     :  20190509, Time     :  111323.843

          Computational steps:
          | Number of self-consistency cycles          :           99
          | Number of SCF (re)initializations          :           10
          | Number of relaxation steps                 :            9

          Detailed time accounting                     :  max(cpu_time)    wall_clock(cpu1)
          | Total time                                 :        7.445 s           7.476 s
          | Preparation time                           :        0.049 s           0.055 s
          | Boundary condition initalization           :        0.000 s           0.001 s
          | Grid partitioning                          :        0.146 s           0.146 s
          | Preloading free-atom quantities on grid    :        0.121 s           0.120 s
          | Free-atom superposition energy             :        0.113 s           0.114 s
          | Total time for integrations                :        3.057 s           3.058 s
          | Total time for solution of K.-S. equations :        0.021 s           0.023 s
          | Total time for EV reorthonormalization     :        0.000 s           0.000 s
          | Total time for density & force components  :        1.446 s           1.450 s
          | Total time for mixing                      :        0.062 s           0.064 s
          | Total time for Hartree multipole update    :        0.161 s           0.162 s
          | Total time for Hartree multipole sum       :        2.070 s           2.066 s
          | Total time for total energy evaluation     :        0.012 s           0.012 s

 This is a stub MPI_ALLREDUCE call.
 You should not be here. Check your
 setting on the use_mpi variable, or
 link against true MPI-libraries.
