------------------------------------------------------------
          Invoking FHI-aims ...
          Version 171221_1
          Compiled on 2019/05/06 at 14:26:40 on host ffph0xx.

          When using FHI-aims, please cite the following reference:

          Volker Blum, Ralf Gehrke, Felix Hanke, Paula Havu,
          Ville Havu, Xinguo Ren, Karsten Reuter, and Matthias Scheffler,
          'Ab Initio Molecular Simulations with Numeric Atom-Centered Orbitals',
          Computer Physics Communications 180, 2175-2196 (2009)

          For any questions about FHI-aims, please visit the aimsclub website
          with its forums and wiki. Contributions to both the forums and the
          wiki are warmly encouraged - they are for you, and everyone is welcome there.

------------------------------------------------------------



  Date     :  20190508, Time     :  151834.039
  Time zero on CPU 1             :   0.813000000000000E-03  s.
  Internal wall clock time zero  :           326560714.039  s.

  FHI-aims created a unique identifier for this run for later identification
  aims_uuid : 944540A5-67D9-4182-A133-04619BBB4217


  Performing system and environment tests:
  *** Environment variable OMP_NUM_THREADS is not set
  *** For performance reasons you might want to set it to 1
  | Stacksize not measured: no C compiler

  Obtaining array dimensions for all initial allocations:
  
  -----------------------------------------------------------------------
  Parsing control.in (first pass over file, find array dimensions only).
  The contents of control.in will be repeated verbatim below
  unless switched off by setting 'verbatim_writeout .false.' .
  in the first line of control.in .
  -----------------------------------------------------------------------
  
  #--- Specification of method ---
  xc pbe
  charge 0.0
  
  
  #---
  
  #--- iteration limit ---
  sc_iter_limit 100
  
  # other possible thresholds
  # sc_accuracy_eev ... for sum of Kohn-Sham eigen values
  # sc_accuracy_etot .. total energy
  # sc_accuracy_rho ... electron density
  #---
  
  #--- tasks (what to calculate) ---
  output dipole
  #---
  
  
  ################################################################################
  ############# Species Defaults ####################
  ################################################################################
  
  
  ################################################################################
  #
  #  FHI-aims code project
  # Volker Blum, Fritz Haber Institute Berlin, 2009
  #
  #  Suggested "tight" defaults for O atom (to be pasted into control.in file)
  #
  ################################################################################
    species        O
  #     global species definitions
      nucleus             8
      mass                15.9994
  #
      l_hartree           6
  #
      cut_pot             4.0  2.0  1.0
      basis_dep_cutoff    1e-4
  #
      radial_base         36 7.0
      radial_multiplier   2
       angular_grids specified
        division   0.1817   50
        division   0.3417  110
        division   0.4949  194
        division   0.6251  302
        division   0.8014  434
  #      division   0.8507  590
  #      division   0.8762  770
  #      division   0.9023  974
  #      division   1.2339 1202
  #      outer_grid 974
        outer_grid  434
  ################################################################################
  #
  #  Definition of "minimal" basis
  #
  ################################################################################
  #     valence basis states
      valence      2  s   2.
      valence      2  p   4.
  #     ion occupancy
      ion_occ      2  s   1.
      ion_occ      2  p   3.
  ################################################################################
  #
  #  Suggested additional basis functions. For production calculations,
  #  uncomment them one after another (the most important basis functions are
  #  listed first).
  #
  #  Constructed for dimers: 1.0 A, 1.208 A, 1.5 A, 2.0 A, 3.0 A
  #
  ################################################################################
  #  "First tier" - improvements: -699.05 meV to -159.38 meV
       hydro 2 p 1.8
       hydro 3 d 7.6
       hydro 3 s 6.4
  #  "Second tier" - improvements: -49.91 meV to -5.39 meV
       hydro 4 f 11.6
       hydro 3 p 6.2
       hydro 3 d 5.6
       hydro 5 g 17.6
       hydro 1 s 0.75
  #  "Third tier" - improvements: -2.83 meV to -0.50 meV
  #     ionic 2 p auto
  #     hydro 4 f 10.8
  #     hydro 4 d 4.7
  #     hydro 2 s 6.8
  #  "Fourth tier" - improvements: -0.40 meV to -0.12 meV
  #     hydro 3 p 5
  #     hydro 3 s 3.3
  #     hydro 5 g 15.6
  #     hydro 4 f 17.6
  #     hydro 4 d 14
  # Further basis functions - -0.08 meV and below
  #     hydro 3 s 2.1
  #     hydro 4 d 11.6
  #     hydro 3 p 16
  #     hydro 2 s 17.2
  ################################################################################
  #
  # For methods that use the localized form of the "resolution of identity" for
  # the two-electron Coulomb operator (RI_method LVL), particularly Hartree-Fock and
  # hybrid density functional calculations, the highest accuracy can be obtained by
  # uncommenting the line beginning with "for_aux"  below, thus adding an extra g radial
  # function to the construction of the product basis set for the expansion.
  # See Ref. New J. Phys. 17, 093020 (2015) for more information, particularly Figs. 1 and 6.
  #
  ################################################################################
  #
  # for_aux hydro 5 g 6.0
  
  -----------------------------------------------------------------------
  Completed first pass over input file control.in .
  -----------------------------------------------------------------------
  
  
  -----------------------------------------------------------------------
  Parsing geometry.in (first pass over file, find array dimensions only).
  The contents of geometry.in will be repeated verbatim below
  unless switched off by setting 'verbatim_writeout .false.' .
  in the first line of geometry.in .
  -----------------------------------------------------------------------
  
  # HF with variable bonding distance
  atom 0.0 0.0 0.0 O
  atom 0.0 0.0 1.1 O
  
  -----------------------------------------------------------------------
  Completed first pass over input file geometry.in .
  -----------------------------------------------------------------------
  

  Basic array size parameters:
  | Number of species                 :        1
  | Number of atoms                   :        2
  | Max. basis fn. angular momentum   :        4
  | Max. atomic/ionic basis occupied n:        2
  | Max. number of basis fn. types    :        2
  | Max. radial fns per species/type  :        8
  | Max. logarithmic grid size        :     1301
  | Max. radial integration grid size :       73
  | Max. angular integration grid size:      434
  | Max. angular grid division number :        8
  | Radial grid for Hartree potential :     1301
  | Number of spin channels           :        1

------------------------------------------------------------
          Reading file control.in.
------------------------------------------------------------
  XC: Using PBE gradient-corrected functionals.
  Charge =   0.000000E+00: Neutral system requested explicitly.
  Maximum number of s.-c. iterations  :   100
  Dipole moment will be written out.

  Reading configuration options for species O                   .
  | Found nuclear charge :   8.0000
  | Found atomic mass :    15.999400000000000      amu
  | Found l_max for Hartree potential  :   6
  | Found cutoff potl. onset [A], width [A], scale factor :    4.00000    2.00000    1.00000
  | Threshold for basis-dependent cutoff potential is   0.100000E-03
  | Found data for basic radial integration grid :    36 points, outermost radius =    7.000 A
  | Found multiplier for basic radial grid :   2
  | Found angular grid specification: user-specified.
  | Specified grid contains     6 separate shells.
  | Check grid settings after all constraints further below.
  | Found free-atom valence shell :  2 s   2.000
  | Found free-atom valence shell :  2 p   4.000
  | No ionic wave fns used. Skipping ion_occ.
  | No ionic wave fns used. Skipping ion_occ.
  | Found hydrogenic basis function :  2 p   1.800
  | Found hydrogenic basis function :  3 d   7.600
  | Found hydrogenic basis function :  3 s   6.400
  | Found hydrogenic basis function :  4 f  11.600
  | Found hydrogenic basis function :  3 p   6.200
  | Found hydrogenic basis function :  3 d   5.600
  | Found hydrogenic basis function :  5 g  17.600
  | Found hydrogenic basis function :  1 s   0.750
  Species O                   : Missing cutoff potential type.
  Defaulting to exp(1/x)/(1-x)^2 type cutoff potential.
  Species O : No 'logarithmic' tag. Using default grid for free atom:
  | Default logarithmic grid data [bohr] : 0.1000E-03 0.1000E+03 0.1012E+01
  Species O : On-site basis accuracy parameter (for Gram-Schmidt orthonormalisation) not specified.
  Using default value basis_acc =  0.1000000E-03.
  Species O                   : Using default innermost maximum threshold i_radial=  2 for radial functions.
  Species O                   : Default cutoff onset for free atom density etc. : 0.40000000E+01 AA.
  Species O                   : Basic radial grid will be enhanced according to radial_multiplier =   2, to contain    73 grid points.

  Finished reading input file 'control.in'. Consistency checks are next.

  MPI_IN_PLACE appears to work with this MPI implementation.
  | Keeping use_mpi_in_place .true. (see manual).
  Target number of points in a grid batch is not set. Defaulting to  100
  Method for grid partitioning is not set. Defaulting to 'maxmin' partitioning.
  Batch size limit is not set. Defaulting to    200
  By default, will store active basis functions for each batch.
  If in need of memory, prune_basis_once .false. can be used to disable this option.
  communication_type for Hartree potential was not specified.
  Defaulting to calc_hartree .
 * Attention: 
 * You may want to set distributed_spline_storage to .true. in order to save memory.
 * This doesn't harm performance and is perfectly ok unless:
 * - you get error messages in postprocessing (about missing atoms in get_rho_multipole_spl)
 * - you need full spline storage in hirshfeld_analysis
  Defaulting to Pulay charge density mixer.
  Pulay mixer: Number of relevant iterations not set.
  Defaulting to    8 iterations.
  Pulay mixer: Number of initial linear mixing iterations not set.
  Defaulting to    0 iterations.
  Work space size for distributed Hartree potential not set.
  Defaulting to   0.200000E+03 MB.
  Mixing parameter for charge density mixing has not been set.
  Using default: charge_mix_param =     0.0500.
  The mixing parameter will be adjusted in iteration number     2 of the first full s.c.f. cycle only.
  Algorithm-dependent basis array size parameters:
  | n_max_pulay                         :        8
 * Notice: The s.c.f. convergence criterion sc_accuracy_rho was not provided.
 * We used to stop in this case, and ask the user to provide reasonable
 * scf convergence criteria. However, this led some users to employ criteria
 * that led to extremely long run times, e.g., for simple relaxation.
 * We now preset a default value for sc_accuracy_rho if it is not set.
 * You may still wish to check if this setting is too tight or too loose for your needs.
 * Based on n_atoms, FHI-aims chose sc_accuracy_rho =  0.100000E-05 .
  Presetting      1001 iterations before the initial mixing cycle
  is restarted anyway using the sc_init_iter criterion / keyword.
  Presetting a factor      1.000 between actual scf density residual
  and density convergence criterion sc_accuracy_rho below which sc_init_iter
  takes no effect.
 * No s.c.f. convergence criteria (sc_accuracy_*) were provided in control.in.
 * The run will proceed with a reasonable default guess, but please check whether.
 * the s.c.f. cycles seem to take too much or too little time.
  Calculation of forces was not defined in control.in. No forces will be calculated.
  Geometry relaxation not requested: no relaxation will be performed.
  No accuracy limit for integral partition fn. given. Defaulting to  0.1000E-14.
  No threshold value for u(r) in integrations given. Defaulting to  0.1000E-05.
  No occupation type (smearing scheme) given. Defaulting to Gaussian broadening, width =  0.1000E-01 eV.
  The width will be adjusted in iteration number     2 of the first full s.c.f. cycle only.
  S.C.F. convergence parameters will be adjusted in iteration number     2 of the first full s.c.f. cycle only.
  No accuracy for occupation numbers given. Defaulting to  0.1000E-12.
  No threshold value for occupation numbers given. Defaulting to  0.0000E+00.
  No accuracy for fermi level given. Defaulting to  0.1000E-19.
  Maximum # of iterations to find E_F not set. Defaulting to  200.
  Preferred method for the eigenvalue solver ('KS_method') not specified in 'control.in'.
  Defaulting to serial version, 'lapack_fast'.
  Will not use alltoall communication since running on < 1024 CPUs.
  Threshold for basis singularities not set.
  Default threshold for basis singularities:  0.1000E-04
  partition_type (choice of integration weights) for integrals was not specified.
  | Using a version of the partition function of Stratmann and coworkers ('stratmann_smoother').
  | At each grid point, the set of atoms used to build the partition table is smoothly restricted to
  | only those atoms whose free-atom density would be non-zero at that grid point.
  Partitioning for Hartree potential was not defined. Using partition_type for integrals.
  | Adjusted default value of keyword multip_moments_threshold to:       0.10000000E-11
  | This value may affect high angular momentum components of the Hartree potential in periodic systems.
  Spin handling was not defined in control.in. Defaulting to unpolarized case.
  No q(lm)/r^(l+1) cutoff set for long-range Hartree potential.
  | Using default value of  0.100000E-09 .
  | Verify using the multipole_threshold keyword.
  Defaulting to new monopole extrapolation.
  Density update method: automatic selection selected.
------------------------------------------------------------


------------------------------------------------------------
          Reading geometry description geometry.in.
------------------------------------------------------------
 * Warning! You did not set the 'relativistic' flag in input file 'control.in'.
 * Since you are not attempting to treat any elements beyond Ca(Z=20), FHI-aims
 * will default to 'relativistic none'.
 * You must ensure that this is really what you want!!
 * For example, DO NOT compute total-energy differences between results from
 * different settings of the 'relativistic' flag.
  Input structure read successfully.
  The structure contains        2 atoms,  and a total of         16.000 electrons.

  Input geometry:
  | No unit cell requested.
  | Atomic structure:
  |       Atom                x [A]            y [A]            z [A]
  |    1: Species O             0.00000000        0.00000000        0.00000000
  |    2: Species O             0.00000000        0.00000000        1.10000000
  |

  | The smallest distance between any two atoms is         1.10000000 AA.
  |
  | The first atom of this pair is atom number                      1 .
  | The second atom of this pair is atom number                     2 .

  Number of empty states per atom not set in control.in - providing a guess from actual geometry.
  | Total number of empty states used during s.c.f. cycle:        6
  If you use a very high smearing, use empty_states (per atom!) in control.in to increase this value.

  Structure-dependent array size parameters: 
  | Maximum number of distinct radial functions  :       11
  | Maximum number of basis functions            :       78
  | Number of Kohn-Sham states (occupied + empty):       14
------------------------------------------------------------

------------------------------------------------------------
          Preparing all fixed parts of the calculation.
------------------------------------------------------------
  Determining machine precision:
     2.2250738585072014E-308
  Setting up grids for atomic and cluster calculations.

  Creating wave function, potential, and density for free atoms.

  Species: O

  List of occupied orbitals and eigenvalues:
    n    l              occ      energy [Ha]    energy [eV]
    1    0           2.0000       -18.898576      -514.2564
    2    0           2.0000        -0.878795       -23.9132
    2    1           4.0000        -0.332075        -9.0362

  Creating fixed part of basis set: Ionic, confined, hydrogenic.

  O                    hydrogenic:

  List of hydrogenic basis orbitals: 
    n    l      effective z      eigenvalue [eV]  inner max. [A]     outer max. [A]     outer radius [A]   
    2    1         1.800000       -11.0118           1.178562           1.178562           5.432602
    3    2         7.600000       -87.3182           0.624125           0.624125           3.541477
    3    0         6.400000       -61.9209           0.061167           1.081902           4.306578
    4    3        11.600000      -114.4238           0.731631           0.731631           3.585037
    3    1         6.200000       -58.1113           0.255680           1.030270           4.306578
    3    2         5.600000       -47.4081           0.847233           0.847233           4.413171
    5    4        17.600000      -168.5799           0.749740           0.749740           3.372465
    1    0         0.750000        -7.6499           0.705284           0.705284           5.366593


  Adding cutoff potential to free-atom effective potential.
  Creating atomic-like basis functions for current effective potential.

  Species O                   :

  List of atomic basis orbitals and eigenvalues:
    n    l      energy [Ha]    energy [eV]    outer radius [A]
    1    0       -18.898576      -514.2564       1.415765
    2    0        -0.878795       -23.9132       5.048385
    2    1        -0.332075        -9.0362       5.301386

  Assembling full basis from fixed parts.
  | Species O :   atomic orbital   1 s accepted.
  | Species O :    hydro orbital   3 s accepted.
  | Species O :   atomic orbital   2 s accepted.
  | Species O :    hydro orbital   1 s accepted.
  | Species O :    hydro orbital   3 p accepted.
  | Species O :   atomic orbital   2 p accepted.
  | Species O :    hydro orbital   2 p accepted.
  | Species O :    hydro orbital   3 d accepted.
  | Species O :    hydro orbital   3 d accepted.
  | Species O :    hydro orbital   4 f accepted.
  | Species O :    hydro orbital   5 g accepted.

  Basis size parameters after reduction:
  | Total number of radial functions:       11
  | Total number of basis functions :       78

  Per-task memory consumption for arrays in subroutine allocate_ext:
  |           2.750028MB.
  Testing on-site integration grid accuracy.
  |  Species  Function  <phi|h_atom|phi> (log., in eV)  <phi|h_atom|phi> (rad., in eV)
           1        1               -514.2564144315               -514.2564099626
           1        2                 15.1726678541                 15.1726530877
           1        3                -21.5447785304                -21.5447874973
           1        4                 14.4944558459                 14.4944698284
           1        5                 20.8882174564                 20.8882178906
           1        6                 -2.4850315909                 -2.4850322289
           1        7                 13.8600193195                 13.8599826966
           1        8                 45.8243383616                 45.8243383675
           1        9                 52.1840606465                 52.1840622440
           1       10                 85.4074185510                 85.4074185819
           1       11                142.0983717302                142.0983717339

  Preparing densities etc. for the partition functions (integrals / Hartree potential).

  Preparations completed.
  max(cpu_time)          :      0.071 s.
  Wall clock time (cpu1) :      0.070 s.
------------------------------------------------------------

------------------------------------------------------------
          Begin self-consistency loop: Initialization.

          Date     :  20190508, Time     :  151834.111
------------------------------------------------------------

  Initializing index lists of integration centers etc. from given atomic structure:
  | Number of centers in hartree potential         :         2
  | Number of centers in hartree multipole         :         2
  | Number of centers in electron density summation:         2
  | Number of centers in basis integrals           :         2
  | Number of centers in integrals                 :         2
  | Number of centers in hamiltonian               :         2
  Partitioning the integration grid into batches with maxmin method.
  | Maximal weight for a single point:     1.000
  | Minimal weight for a single point:     0.000
  | Number of batches:      492
  | Maximal batch size:     161
  | Minimal batch size:      76
  | Average batch size:      81.862
  | Standard deviation of batch sizes:      15.691
  Initializing partition tables, free-atom densities, potentials, etc. across the integration grid (initialize_grid_storage).
  | initialize_grid_storage: Actual outermost partition radius vs. multipole_radius_free
  | (-- VB: in principle, multipole_radius_free should be larger, hence this output)
  | Species        1: Confinement radius =              6.000000000000000 AA, multipole_radius_free =              6.064445521808699 AA.
  | Species        1: outer_partition_radius set to              6.064445521808699 AA .
  | Original list of interatomic distances with           2 x          2 entries is created.
  | Net number of integration points:    40276
  | of which are non-zero points    :    37826
  Renormalizing the initial density to the exact electron count on the 3D integration grid.
  | Initial density: Formal number of electrons (from input files) :      16.0000000000
  | Integrated number of electrons on 3D grid     :      15.9999996367
  | Charge integration error                      :      -0.0000003633
  | Normalization factor for density and gradient :       1.0000000227
  Obtaining max. number of non-zero basis functions in each batch (get_n_compute_maxes).
  | Maximal number of non-zero basis functions:       78 in task     0
  Selecting the method for density update.
  Loop over occupied states selected for charge density update.
  Allocating        0.009 MB for KS_eigenvector
  Integrating Hamiltonian matrix: batch-based integration.
  Time summed over all CPUs for integration: real work        0.152 s, elapsed        0.152 s
  Integrating overlap matrix.
  Time summed over all CPUs for integration: real work        0.065 s, elapsed        0.065 s

  Updating Kohn-Sham eigenvalues, eigenvectors, occupation numbers, and Fermi level.
  Solving generalized eigenproblem
  Updating Kohn-Sham eigenvalues and eigenfunctions.
  Transforming overlap matrix and checking for singularities.
  Overlap matrix is nonsingular:
  | Lowest eigenvalue:  0.166944E-03
  Solving real generalised eigenvalue problem by standard LAPACK (fast)

  Obtaining occupation numbers and chemical potential using ELSI.
  | Chemical potential (Fermi level):    -5.89518216eV
  Writing Kohn-Sham eigenvalues.

  State    Occupation    Eigenvalue [Ha]    Eigenvalue [eV]
      1       2.00000         -18.959312         -515.90913
      2       2.00000         -18.959026         -515.90134
      3       2.00000          -1.305634          -35.52811
      4       2.00000          -0.746060          -20.30132
      5       2.00000          -0.549998          -14.96622
      6       2.00000          -0.540533          -14.70866
      7       2.00000          -0.540533          -14.70866
      8       1.00000          -0.216644           -5.89518
      9       1.00000          -0.216644           -5.89518
     10       0.00000           0.089180            2.42670
     11       0.00000           0.098112            2.66977
     12       0.00000           0.126003            3.42871
     13       0.00000           0.126003            3.42871
     14       0.00000           0.201479            5.48253

  Highest occupied state (VBM) at     -5.89518216 eV
  | Occupation number:      1.00000000

  Lowest unoccupied state (CBM) at    -5.89518216 eV
  | Occupation number:      1.00000000

  Overall HOMO-LUMO gap:      0.00000000 eV.
  This system has fractional occupation numbers. Thus, it is a degenerate system
  within the approximate finite broadening function (occupation_type)
  applied to determine the occupation numbers.
  This may not be harmful. However, for some systems (free atoms), a different, non-degenerate
  ground state might exist by using a smaller broadening (see keyword occupation_type).
  Calculating total energy contributions from superposition of free atom densities.

  Total energy components:
  | Sum of eigenvalues            :         -83.63548131 Ha       -2275.83723967 eV
  | XC energy correction          :         -16.83803717 Ha        -458.18630376 eV
  | XC potential correction       :          21.65054874 Ha         589.14140630 eV
  | Free-atom electrostatic energy:         -71.38136793 Ha       -1942.38584886 eV
  | Hartree energy correction     :          -0.00000000 Ha          -0.00000000 eV
  | Entropy correction            :          -0.00020734 Ha          -0.00564190 eV
  | ---------------------------
  | Total energy                  :        -150.20433767 Ha       -4087.26798598 eV
  | Total energy, T -> 0          :        -150.20454501 Ha       -4087.27362788 eV  <-- do not rely on this value for anything but (periodic) metals
  | Electronic free energy        :        -150.20475234 Ha       -4087.27926977 eV

  Derived energy quantities:
  | Kinetic energy                :         149.98308950 Ha        4081.24751684 eV
  | Electrostatic energy          :        -283.34939000 Ha       -7710.32919906 eV
  | Energy correction for multipole
  | error in Hartree potential    :           0.00000000 Ha           0.00000000 eV
  | Sum of eigenvalues per atom                           :       -1137.91861983 eV
  | Total energy (T->0) per atom                          :       -2043.63681394 eV  <-- do not rely on this value for anything but (periodic) metals
  | Electronic free energy per atom                       :       -2043.63963489 eV
  Initialize hartree_potential_storage
  Max. number of atoms included in rho_multipole:            2

  End scf initialization - timings             :  max(cpu_time)    wall_clock(cpu1)
  | Time for scf. initialization               :        0.302 s           0.303 s
  | Boundary condition initialization          :        0.000 s           0.001 s
  | Integration                                :        0.217 s           0.217 s
  | Solution of K.-S. eqns.                    :        0.004 s           0.004 s
  | Grid partitioning                          :        0.033 s           0.032 s
  | Preloading free-atom quantities on grid    :        0.003 s           0.003 s
  | Free-atom superposition energy             :        0.027 s           0.027 s
  | Total energy evaluation                    :        0.000 s           0.000 s

  Partial memory accounting:
  | Current value for overall tracked memory usage on task 0  :           0.107 MB
  | Peak value for overall tracked memory usage on task 0     :           0.410 MB after allocating wave
  | Largest tracked array allocation on task 0 so far         :           0.100 MB  when allocating H_times_psi
  Note:  These values currently only include a subset of arrays which are explicitly tracked.
  The "true" memory usage will be greater.
------------------------------------------------------------

------------------------------------------------------------
          Begin self-consistency iteration #    1

  Date     :  20190508, Time     :  151834.414
------------------------------------------------------------
  Evaluating new KS density.
  Integration grid: deviation in total charge (<rho> - N_e) =  -1.065814E-14
  Pulay mixing of updated and previous charge densities.

  Evaluating partitioned Hartree potential by multipole expansion.
  | Analytical far-field extrapolation by fixed multipoles:
  | Hartree multipole sum: apparent total charge =  -0.367412E-06
  Summing up the Hartree potential.
  Time summed over all CPUs for potential: real work        0.027 s, elapsed        0.027 s
  | RMS charge density error from multipole expansion :   0.128802E-03

  Integrating Hamiltonian matrix: batch-based integration.
  Time summed over all CPUs for integration: real work        0.158 s, elapsed        0.158 s

  Updating Kohn-Sham eigenvalues, eigenvectors, occupation numbers, and Fermi level.
  Solving generalized eigenproblem
  Updating Kohn-Sham eigenvalues and eigenfunctions.
  Solving real generalised eigenvalue problem by standard LAPACK (fast)

  Obtaining occupation numbers and chemical potential using ELSI.
  | Chemical potential (Fermi level):    -5.79310666eV
  Writing Kohn-Sham eigenvalues.

  State    Occupation    Eigenvalue [Ha]    Eigenvalue [eV]
      1       2.00000         -18.951505         -515.69669
      2       2.00000         -18.951219         -515.68890
      3       2.00000          -1.303312          -35.46491
      4       2.00000          -0.741426          -20.17522
      5       2.00000          -0.545234          -14.83657
      6       2.00000          -0.537565          -14.62789
      7       2.00000          -0.537565          -14.62789
      8       1.00000          -0.212893           -5.79311
      9       1.00000          -0.212893           -5.79311
     10       0.00000           0.089963            2.44803
     11       0.00000           0.098990            2.69365
     12       0.00000           0.126527            3.44299
     13       0.00000           0.126527            3.44299
     14       0.00000           0.202125            5.50009

  Highest occupied state (VBM) at     -5.79310666 eV
  | Occupation number:      1.00000000

  Lowest unoccupied state (CBM) at    -5.79310666 eV
  | Occupation number:      1.00000000

  Overall HOMO-LUMO gap:      0.00000000 eV.
  This system has fractional occupation numbers. Thus, it is a degenerate system
  within the approximate finite broadening function (occupation_type)
  applied to determine the occupation numbers.
  This may not be harmful. However, for some systems (free atoms), a different, non-degenerate
  ground state might exist by using a smaller broadening (see keyword occupation_type).

  Total energy components:
  | Sum of eigenvalues            :         -83.56143597 Ha       -2273.82236356 eV
  | XC energy correction          :         -16.84791894 Ha        -458.45520032 eV
  | XC potential correction       :          21.66343249 Ha         589.49199095 eV
  | Free-atom electrostatic energy:         -71.38136793 Ha       -1942.38584886 eV
  | Hartree energy correction     :          -0.07499801 Ha          -2.04079966 eV
  | Entropy correction            :          -0.00020734 Ha          -0.00564190 eV
  | ---------------------------
  | Total energy                  :        -150.20228836 Ha       -4087.21222144 eV
  | Total energy, T -> 0          :        -150.20249570 Ha       -4087.21786334 eV  <-- do not rely on this value for anything but (periodic) metals
  | Electronic free energy        :        -150.20270304 Ha       -4087.22350523 eV

  Derived energy quantities:
  | Kinetic energy                :         150.04200783 Ha        4082.85076608 eV
  | Electrostatic energy          :        -283.39637725 Ha       -7711.60778721 eV
  | Energy correction for multipole
  | error in Hartree potential    :          -0.00008669 Ha          -0.00235891 eV
  | Sum of eigenvalues per atom                           :       -1136.91118178 eV
  | Total energy (T->0) per atom                          :       -2043.60893167 eV  <-- do not rely on this value for anything but (periodic) metals
  | Electronic free energy per atom                       :       -2043.61175262 eV

  Self-consistency convergence accuracy:
  | Change of charge density      :  0.1817E+00
  | Change of sum of eigenvalues  :  0.2015E+01 eV
  | Change of total energy        :  0.5576E-01 eV

  End self-consistency iteration #     1       :  max(cpu_time)    wall_clock(cpu1)
  | Time for this iteration                    :        0.304 s           0.304 s
  | Charge density update                      :        0.114 s           0.114 s
  | Density mixing                             :        0.001 s           0.002 s
  | Hartree multipole update                   :        0.002 s           0.002 s
  | Hartree multipole summation                :        0.027 s           0.027 s
  | Integration                                :        0.157 s           0.158 s
  | Solution of K.-S. eqns.                    :        0.001 s           0.001 s
  | Total energy evaluation                    :        0.000 s           0.000 s

  Partial memory accounting:
  | Current value for overall tracked memory usage on task 0  :           0.107 MB
  | Peak value for overall tracked memory usage on task 0     :           0.509 MB after allocating gradient_basis_wave
  | Largest tracked array allocation on task 0 so far         :           0.301 MB  when allocating gradient_basis_wave
  Note:  These values currently only include a subset of arrays which are explicitly tracked.
  The "true" memory usage will be greater.
------------------------------------------------------------

------------------------------------------------------------
          Begin self-consistency iteration #    2

  Date     :  20190508, Time     :  151834.718
------------------------------------------------------------
  Evaluating new KS density.
  Integration grid: deviation in total charge (<rho> - N_e) =   1.598721E-13
  Pulay mixing of updated and previous charge densities.

  Evaluating partitioned Hartree potential by multipole expansion.
  | Analytical far-field extrapolation by fixed multipoles:
  | Hartree multipole sum: apparent total charge =  -0.494538E-06
  Summing up the Hartree potential.
  Time summed over all CPUs for potential: real work        0.027 s, elapsed        0.027 s
  | RMS charge density error from multipole expansion :   0.167782E-02

  Integrating Hamiltonian matrix: batch-based integration.
  Time summed over all CPUs for integration: real work        0.153 s, elapsed        0.153 s

  Updating Kohn-Sham eigenvalues, eigenvectors, occupation numbers, and Fermi level.
  Solving generalized eigenproblem
  Updating Kohn-Sham eigenvalues and eigenfunctions.
  Solving real generalised eigenvalue problem by standard LAPACK (fast)

  Obtaining occupation numbers and chemical potential using ELSI.
  | Chemical potential (Fermi level):    -4.63511473eV
  Highest occupied state (VBM) at     -4.63511473 eV
  | Occupation number:      1.00000000

  Lowest unoccupied state (CBM) at    -4.63511473 eV
  | Occupation number:      1.00000000

  Overall HOMO-LUMO gap:      0.00000000 eV.
  This system has fractional occupation numbers. Thus, it is a degenerate system
  within the approximate finite broadening function (occupation_type)
  applied to determine the occupation numbers.
  This may not be harmful. However, for some systems (free atoms), a different, non-degenerate
  ground state might exist by using a smaller broadening (see keyword occupation_type).

  Checking to see if s.c.f. parameters should be adjusted.
  Adjusted the Pulay mixing parameter (charge_mix_param) for an expected low-gap system. New value:   0.020000 .
  Adjusted the occupation broadening width for an expected low-gap system. New value:      0.05000000 eV.

  Total energy components:
  | Sum of eigenvalues            :         -82.71973834 Ha       -2250.91860568 eV
  | XC energy correction          :         -16.96476963 Ha        -461.63486949 eV
  | XC potential correction       :          21.81573434 Ha         593.63633527 eV
  | Free-atom electrostatic energy:         -71.38136793 Ha       -1942.38584886 eV
  | Hartree energy correction     :          -0.94183055 Ha         -25.62851330 eV
  | Entropy correction            :          -0.00103668 Ha          -0.02820948 eV
  | ---------------------------
  | Total energy                  :        -150.19197212 Ha       -4086.93150206 eV
  | Total energy, T -> 0          :        -150.19300880 Ha       -4086.95971154 eV  <-- do not rely on this value for anything but (periodic) metals
  | Electronic free energy        :        -150.19404547 Ha       -4086.98792102 eV

  Derived energy quantities:
  | Kinetic energy                :         150.68000599 Ha        4100.21157950 eV
  | Electrostatic energy          :        -283.90720847 Ha       -7725.50821208 eV
  | Energy correction for multipole
  | error in Hartree potential    :          -0.00114233 Ha          -0.03108436 eV
  | Sum of eigenvalues per atom                           :       -1125.45930284 eV
  | Total energy (T->0) per atom                          :       -2043.47985577 eV  <-- do not rely on this value for anything but (periodic) metals
  | Electronic free energy per atom                       :       -2043.49396051 eV

  Self-consistency convergence accuracy:
  | Change of charge density      :  0.1683E+00
  | Change of sum of eigenvalues  :  0.2290E+02 eV
  | Change of total energy        :  0.2807E+00 eV

  End self-consistency iteration #     2       :  max(cpu_time)    wall_clock(cpu1)
  | Time for this iteration                    :        0.296 s           0.297 s
  | Charge density update                      :        0.111 s           0.111 s
  | Density mixing                             :        0.002 s           0.002 s
  | Hartree multipole update                   :        0.002 s           0.002 s
  | Hartree multipole summation                :        0.027 s           0.027 s
  | Integration                                :        0.153 s           0.153 s
  | Solution of K.-S. eqns.                    :        0.001 s           0.001 s
  | Total energy evaluation                    :        0.000 s           0.000 s

  Partial memory accounting:
  | Current value for overall tracked memory usage on task 0  :           0.108 MB
  | Peak value for overall tracked memory usage on task 0     :           0.509 MB after allocating gradient_basis_wave
  | Largest tracked array allocation on task 0 so far         :           0.301 MB  when allocating gradient_basis_wave
  Note:  These values currently only include a subset of arrays which are explicitly tracked.
  The "true" memory usage will be greater.
------------------------------------------------------------

------------------------------------------------------------
          Begin self-consistency iteration #    3

  Date     :  20190508, Time     :  151835.015
------------------------------------------------------------
  Evaluating new KS density.
  Integration grid: deviation in total charge (<rho> - N_e) =  -6.039613E-14
  Pulay mixing of updated and previous charge densities.

  Evaluating partitioned Hartree potential by multipole expansion.
  | Analytical far-field extrapolation by fixed multipoles:
  | Hartree multipole sum: apparent total charge =  -0.609460E-06
  Summing up the Hartree potential.
  Time summed over all CPUs for potential: real work        0.027 s, elapsed        0.027 s
  | RMS charge density error from multipole expansion :   0.230440E-02

  Integrating Hamiltonian matrix: batch-based integration.
  Time summed over all CPUs for integration: real work        0.152 s, elapsed        0.152 s

  Updating Kohn-Sham eigenvalues, eigenvectors, occupation numbers, and Fermi level.
  Solving generalized eigenproblem
  Updating Kohn-Sham eigenvalues and eigenfunctions.
  Solving real generalised eigenvalue problem by standard LAPACK (fast)

  Obtaining occupation numbers and chemical potential using ELSI.
  | Chemical potential (Fermi level):    -5.05197263eV
  Highest occupied state (VBM) at     -5.05197263 eV
  | Occupation number:      1.00000000

  Lowest unoccupied state (CBM) at    -5.05197263 eV
  | Occupation number:      1.00000000

  Overall HOMO-LUMO gap:      0.00000000 eV.
  This system has fractional occupation numbers. Thus, it is a degenerate system
  within the approximate finite broadening function (occupation_type)
  applied to determine the occupation numbers.
  This may not be harmful. However, for some systems (free atoms), a different, non-degenerate
  ground state might exist by using a smaller broadening (see keyword occupation_type).

  Total energy components:
  | Sum of eigenvalues            :         -83.07451680 Ha       -2260.57261887 eV
  | XC energy correction          :         -16.92237747 Ha        -460.48132006 eV
  | XC potential correction       :          21.76018068 Ha         592.12464322 eV
  | Free-atom electrostatic energy:         -71.38136793 Ha       -1942.38584886 eV
  | Hartree energy correction     :          -0.57383608 Ha         -15.61487430 eV
  | Entropy correction            :          -0.00103668 Ha          -0.02820948 eV
  | ---------------------------
  | Total energy                  :        -150.19191761 Ha       -4086.93001886 eV
  | Total energy, T -> 0          :        -150.19295429 Ha       -4086.95822834 eV  <-- do not rely on this value for anything but (periodic) metals
  | Electronic free energy        :        -150.19399097 Ha       -4086.98643782 eV

  Derived energy quantities:
  | Kinetic energy                :         150.20920457 Ha        4087.40042100 eV
  | Electrostatic energy          :        -283.47874471 Ha       -7713.84911981 eV
  | Energy correction for multipole
  | error in Hartree potential    :          -0.00182184 Ha          -0.04957473 eV
  | Sum of eigenvalues per atom                           :       -1130.28630944 eV
  | Total energy (T->0) per atom                          :       -2043.47911417 eV  <-- do not rely on this value for anything but (periodic) metals
  | Electronic free energy per atom                       :       -2043.49321891 eV

  Self-consistency convergence accuracy:
  | Change of charge density      :  0.4325E-01
  | Change of sum of eigenvalues  : -0.9654E+01 eV
  | Change of total energy        :  0.1483E-02 eV

  End self-consistency iteration #     3       :  max(cpu_time)    wall_clock(cpu1)
  | Time for this iteration                    :        0.299 s           0.298 s
  | Charge density update                      :        0.113 s           0.112 s
  | Density mixing                             :        0.003 s           0.003 s
  | Hartree multipole update                   :        0.003 s           0.003 s
  | Hartree multipole summation                :        0.028 s           0.027 s
  | Integration                                :        0.152 s           0.152 s
  | Solution of K.-S. eqns.                    :        0.001 s           0.001 s
  | Total energy evaluation                    :        0.000 s           0.000 s

  Partial memory accounting:
  | Current value for overall tracked memory usage on task 0  :           0.108 MB
  | Peak value for overall tracked memory usage on task 0     :           0.510 MB after allocating gradient_basis_wave
  | Largest tracked array allocation on task 0 so far         :           0.301 MB  when allocating gradient_basis_wave
  Note:  These values currently only include a subset of arrays which are explicitly tracked.
  The "true" memory usage will be greater.
------------------------------------------------------------

------------------------------------------------------------
          Begin self-consistency iteration #    4

  Date     :  20190508, Time     :  151835.313
------------------------------------------------------------
  Evaluating new KS density.
  Integration grid: deviation in total charge (<rho> - N_e) =   6.039613E-14
  Pulay mixing of updated and previous charge densities.

  Evaluating partitioned Hartree potential by multipole expansion.
  | Analytical far-field extrapolation by fixed multipoles:
  | Hartree multipole sum: apparent total charge =  -0.614219E-06
  Summing up the Hartree potential.
  Time summed over all CPUs for potential: real work        0.027 s, elapsed        0.027 s
  | RMS charge density error from multipole expansion :   0.238327E-02

  Integrating Hamiltonian matrix: batch-based integration.
  Time summed over all CPUs for integration: real work        0.158 s, elapsed        0.158 s

  Updating Kohn-Sham eigenvalues, eigenvectors, occupation numbers, and Fermi level.
  Solving generalized eigenproblem
  Updating Kohn-Sham eigenvalues and eigenfunctions.
  Solving real generalised eigenvalue problem by standard LAPACK (fast)

  Obtaining occupation numbers and chemical potential using ELSI.
  | Chemical potential (Fermi level):    -4.92498457eV
  Highest occupied state (VBM) at     -4.92498457 eV
  | Occupation number:      1.00000000

  Lowest unoccupied state (CBM) at    -4.92498457 eV
  | Occupation number:      1.00000000

  Overall HOMO-LUMO gap:      0.00000000 eV.
  This system has fractional occupation numbers. Thus, it is a degenerate system
  within the approximate finite broadening function (occupation_type)
  applied to determine the occupation numbers.
  This may not be harmful. However, for some systems (free atoms), a different, non-degenerate
  ground state might exist by using a smaller broadening (see keyword occupation_type).

  Total energy components:
  | Sum of eigenvalues            :         -82.97812271 Ha       -2257.94960219 eV
  | XC energy correction          :         -16.93549707 Ha        -460.83832260 eV
  | XC potential correction       :          21.77729551 Ha         592.59036142 eV
  | Free-atom electrostatic energy:         -71.38136793 Ha       -1942.38584886 eV
  | Hartree energy correction     :          -0.67406088 Ha         -18.34212986 eV
  | Entropy correction            :          -0.00103668 Ha          -0.02820948 eV
  | ---------------------------
  | Total energy                  :        -150.19175309 Ha       -4086.92554209 eV
  | Total energy, T -> 0          :        -150.19278977 Ha       -4086.95375157 eV  <-- do not rely on this value for anything but (periodic) metals
  | Electronic free energy        :        -150.19382645 Ha       -4086.98196105 eV

  Derived energy quantities:
  | Kinetic energy                :         150.29628439 Ha        4089.76998338 eV
  | Electrostatic energy          :        -283.55254040 Ha       -7715.85720286 eV
  | Energy correction for multipole
  | error in Hartree potential    :          -0.00185789 Ha          -0.05055584 eV
  | Sum of eigenvalues per atom                           :       -1128.97480110 eV
  | Total energy (T->0) per atom                          :       -2043.47687579 eV  <-- do not rely on this value for anything but (periodic) metals
  | Electronic free energy per atom                       :       -2043.49098053 eV

  Self-consistency convergence accuracy:
  | Change of charge density      :  0.2104E-01
  | Change of sum of eigenvalues  :  0.2623E+01 eV
  | Change of total energy        :  0.4477E-02 eV

  End self-consistency iteration #     4       :  max(cpu_time)    wall_clock(cpu1)
  | Time for this iteration                    :        0.302 s           0.302 s
  | Charge density update                      :        0.110 s           0.110 s
  | Density mixing                             :        0.003 s           0.003 s
  | Hartree multipole update                   :        0.002 s           0.002 s
  | Hartree multipole summation                :        0.027 s           0.028 s
  | Integration                                :        0.158 s           0.158 s
  | Solution of K.-S. eqns.                    :        0.001 s           0.001 s
  | Total energy evaluation                    :        0.000 s           0.000 s

  Partial memory accounting:
  | Current value for overall tracked memory usage on task 0  :           0.109 MB
  | Peak value for overall tracked memory usage on task 0     :           0.510 MB after allocating gradient_basis_wave
  | Largest tracked array allocation on task 0 so far         :           0.301 MB  when allocating gradient_basis_wave
  Note:  These values currently only include a subset of arrays which are explicitly tracked.
  The "true" memory usage will be greater.
------------------------------------------------------------

------------------------------------------------------------
          Begin self-consistency iteration #    5

  Date     :  20190508, Time     :  151835.616
------------------------------------------------------------
  Evaluating new KS density.
  Integration grid: deviation in total charge (<rho> - N_e) =  -1.598721E-14
  Pulay mixing of updated and previous charge densities.

  Evaluating partitioned Hartree potential by multipole expansion.
  | Analytical far-field extrapolation by fixed multipoles:
  | Hartree multipole sum: apparent total charge =  -0.620817E-06
  Summing up the Hartree potential.
  Time summed over all CPUs for potential: real work        0.028 s, elapsed        0.028 s
  | RMS charge density error from multipole expansion :   0.256755E-02

  Integrating Hamiltonian matrix: batch-based integration.
  Time summed over all CPUs for integration: real work        0.157 s, elapsed        0.157 s

  Updating Kohn-Sham eigenvalues, eigenvectors, occupation numbers, and Fermi level.
  Solving generalized eigenproblem
  Updating Kohn-Sham eigenvalues and eigenfunctions.
  Solving real generalised eigenvalue problem by standard LAPACK (fast)

  Obtaining occupation numbers and chemical potential using ELSI.
  | Chemical potential (Fermi level):    -4.83530598eV
  Highest occupied state (VBM) at     -4.83530598 eV
  | Occupation number:      1.00000000

  Lowest unoccupied state (CBM) at    -4.83530598 eV
  | Occupation number:      1.00000000

  Overall HOMO-LUMO gap:      0.00000000 eV.
  This system has fractional occupation numbers. Thus, it is a degenerate system
  within the approximate finite broadening function (occupation_type)
  applied to determine the occupation numbers.
  This may not be harmful. However, for some systems (free atoms), a different, non-degenerate
  ground state might exist by using a smaller broadening (see keyword occupation_type).

  Total energy components:
  | Sum of eigenvalues            :         -82.90871429 Ha       -2256.06090291 eV
  | XC energy correction          :         -16.94239649 Ha        -461.02606520 eV
  | XC potential correction       :          21.78630316 Ha         592.83547217 eV
  | Free-atom electrostatic energy:         -71.38136793 Ha       -1942.38584886 eV
  | Hartree energy correction     :          -0.74552046 Ha         -20.28664399 eV
  | Entropy correction            :          -0.00103668 Ha          -0.02820948 eV
  | ---------------------------
  | Total energy                  :        -150.19169601 Ha       -4086.92398878 eV
  | Total energy, T -> 0          :        -150.19273269 Ha       -4086.95219826 eV  <-- do not rely on this value for anything but (periodic) metals
  | Electronic free energy        :        -150.19376937 Ha       -4086.98040774 eV

  Derived energy quantities:
  | Kinetic energy                :         150.33039205 Ha        4090.69810017 eV
  | Electrostatic energy          :        -283.57969157 Ha       -7716.59602376 eV
  | Energy correction for multipole
  | error in Hartree potential    :          -0.00204023 Ha          -0.05551755 eV
  | Sum of eigenvalues per atom                           :       -1128.03045145 eV
  | Total energy (T->0) per atom                          :       -2043.47609913 eV  <-- do not rely on this value for anything but (periodic) metals
  | Electronic free energy per atom                       :       -2043.49020387 eV

  Self-consistency convergence accuracy:
  | Change of charge density      :  0.1056E-01
  | Change of sum of eigenvalues  :  0.1889E+01 eV
  | Change of total energy        :  0.1553E-02 eV

  End self-consistency iteration #     5       :  max(cpu_time)    wall_clock(cpu1)
  | Time for this iteration                    :        0.300 s           0.299 s
  | Charge density update                      :        0.107 s           0.107 s
  | Density mixing                             :        0.003 s           0.003 s
  | Hartree multipole update                   :        0.002 s           0.002 s
  | Hartree multipole summation                :        0.027 s           0.028 s
  | Integration                                :        0.158 s           0.157 s
  | Solution of K.-S. eqns.                    :        0.002 s           0.001 s
  | Total energy evaluation                    :        0.000 s           0.000 s

  Partial memory accounting:
  | Current value for overall tracked memory usage on task 0  :           0.109 MB
  | Peak value for overall tracked memory usage on task 0     :           0.511 MB after allocating gradient_basis_wave
  | Largest tracked array allocation on task 0 so far         :           0.301 MB  when allocating gradient_basis_wave
  Note:  These values currently only include a subset of arrays which are explicitly tracked.
  The "true" memory usage will be greater.
------------------------------------------------------------

------------------------------------------------------------
          Begin self-consistency iteration #    6

  Date     :  20190508, Time     :  151835.915
------------------------------------------------------------
  Evaluating new KS density.
  Integration grid: deviation in total charge (<rho> - N_e) =   1.172396E-13
  Pulay mixing of updated and previous charge densities.

  Evaluating partitioned Hartree potential by multipole expansion.
  | Analytical far-field extrapolation by fixed multipoles:
  | Hartree multipole sum: apparent total charge =  -0.621164E-06
  Summing up the Hartree potential.
  Time summed over all CPUs for potential: real work        0.030 s, elapsed        0.030 s
  | RMS charge density error from multipole expansion :   0.256682E-02

  Integrating Hamiltonian matrix: batch-based integration.
  Time summed over all CPUs for integration: real work        0.151 s, elapsed        0.151 s

  Updating Kohn-Sham eigenvalues, eigenvectors, occupation numbers, and Fermi level.
  Solving generalized eigenproblem
  Updating Kohn-Sham eigenvalues and eigenfunctions.
  Solving real generalised eigenvalue problem by standard LAPACK (fast)

  Obtaining occupation numbers and chemical potential using ELSI.
  | Chemical potential (Fermi level):    -4.83995415eV
  Highest occupied state (VBM) at     -4.83995415 eV
  | Occupation number:      1.00000000

  Lowest unoccupied state (CBM) at    -4.83995415 eV
  | Occupation number:      1.00000000

  Overall HOMO-LUMO gap:      0.00000000 eV.
  This system has fractional occupation numbers. Thus, it is a degenerate system
  within the approximate finite broadening function (occupation_type)
  applied to determine the occupation numbers.
  This may not be harmful. However, for some systems (free atoms), a different, non-degenerate
  ground state might exist by using a smaller broadening (see keyword occupation_type).

  Total energy components:
  | Sum of eigenvalues            :         -82.91249926 Ha       -2256.16389726 eV
  | XC energy correction          :         -16.94198858 Ha        -461.01496542 eV
  | XC potential correction       :          21.78576895 Ha         592.82093551 eV
  | Free-atom electrostatic energy:         -71.38136793 Ha       -1942.38584886 eV
  | Hartree energy correction     :          -0.74160852 Ha         -20.18019466 eV
  | Entropy correction            :          -0.00103668 Ha          -0.02820948 eV
  | ---------------------------
  | Total energy                  :        -150.19169534 Ha       -4086.92397069 eV
  | Total energy, T -> 0          :        -150.19273202 Ha       -4086.95218017 eV  <-- do not rely on this value for anything but (periodic) metals
  | Electronic free energy        :        -150.19376870 Ha       -4086.98038965 eV

  Derived energy quantities:
  | Kinetic energy                :         150.32689176 Ha        4090.60285248 eV
  | Electrostatic energy          :        -283.57659853 Ha       -7716.51185774 eV
  | Energy correction for multipole
  | error in Hartree potential    :          -0.00203978 Ha          -0.05550529 eV
  | Sum of eigenvalues per atom                           :       -1128.08194863 eV
  | Total energy (T->0) per atom                          :       -2043.47609009 eV  <-- do not rely on this value for anything but (periodic) metals
  | Electronic free energy per atom                       :       -2043.49019483 eV

  Self-consistency convergence accuracy:
  | Change of charge density      :  0.1117E-02
  | Change of sum of eigenvalues  : -0.1030E+00 eV
  | Change of total energy        :  0.1809E-04 eV

  End self-consistency iteration #     6       :  max(cpu_time)    wall_clock(cpu1)
  | Time for this iteration                    :        0.312 s           0.313 s
  | Charge density update                      :        0.122 s           0.122 s
  | Density mixing                             :        0.004 s           0.004 s
  | Hartree multipole update                   :        0.003 s           0.003 s
  | Hartree multipole summation                :        0.031 s           0.030 s
  | Integration                                :        0.152 s           0.152 s
  | Solution of K.-S. eqns.                    :        0.001 s           0.001 s
  | Total energy evaluation                    :        0.000 s           0.000 s

  Partial memory accounting:
  | Current value for overall tracked memory usage on task 0  :           0.109 MB
  | Peak value for overall tracked memory usage on task 0     :           0.511 MB after allocating gradient_basis_wave
  | Largest tracked array allocation on task 0 so far         :           0.301 MB  when allocating gradient_basis_wave
  Note:  These values currently only include a subset of arrays which are explicitly tracked.
  The "true" memory usage will be greater.
------------------------------------------------------------

------------------------------------------------------------
          Begin self-consistency iteration #    7

  Date     :  20190508, Time     :  151836.228
------------------------------------------------------------
  Evaluating new KS density.
  Integration grid: deviation in total charge (<rho> - N_e) =  -1.065814E-14
  Pulay mixing of updated and previous charge densities.

  Evaluating partitioned Hartree potential by multipole expansion.
  | Analytical far-field extrapolation by fixed multipoles:
  | Hartree multipole sum: apparent total charge =  -0.618403E-06
  Summing up the Hartree potential.
  Time summed over all CPUs for potential: real work        0.031 s, elapsed        0.031 s
  | RMS charge density error from multipole expansion :   0.257179E-02

  Integrating Hamiltonian matrix: batch-based integration.
  Time summed over all CPUs for integration: real work        0.175 s, elapsed        0.175 s

  Updating Kohn-Sham eigenvalues, eigenvectors, occupation numbers, and Fermi level.
  Solving generalized eigenproblem
  Updating Kohn-Sham eigenvalues and eigenfunctions.
  Solving real generalised eigenvalue problem by standard LAPACK (fast)

  Obtaining occupation numbers and chemical potential using ELSI.
  | Chemical potential (Fermi level):    -4.85082453eV
  Highest occupied state (VBM) at     -4.85082453 eV
  | Occupation number:      1.00000001

  Lowest unoccupied state (CBM) at    -4.85082453 eV
  | Occupation number:      0.99999999

  Overall HOMO-LUMO gap:      0.00000000 eV.
  This system has fractional occupation numbers. Thus, it is a degenerate system
  within the approximate finite broadening function (occupation_type)
  applied to determine the occupation numbers.
  This may not be harmful. However, for some systems (free atoms), a different, non-degenerate
  ground state might exist by using a smaller broadening (see keyword occupation_type).

  Total energy components:
  | Sum of eigenvalues            :         -82.92002458 Ha       -2256.36867157 eV
  | XC energy correction          :         -16.94130297 Ha        -460.99630897 eV
  | XC potential correction       :          21.78485380 Ha         592.79603293 eV
  | Free-atom electrostatic energy:         -71.38136793 Ha       -1942.38584886 eV
  | Hartree energy correction     :          -0.73385322 Ha         -19.96916221 eV
  | Entropy correction            :          -0.00103668 Ha          -0.02820948 eV
  | ---------------------------
  | Total energy                  :        -150.19169490 Ha       -4086.92395868 eV
  | Total energy, T -> 0          :        -150.19273158 Ha       -4086.95216816 eV  <-- do not rely on this value for anything but (periodic) metals
  | Electronic free energy        :        -150.19376826 Ha       -4086.98037764 eV

  Derived energy quantities:
  | Kinetic energy                :         150.32637753 Ha        4090.58885948 eV
  | Electrostatic energy          :        -283.57676946 Ha       -7716.51650918 eV
  | Energy correction for multipole
  | error in Hartree potential    :          -0.00204829 Ha          -0.05573676 eV
  | Sum of eigenvalues per atom                           :       -1128.18433578 eV
  | Total energy (T->0) per atom                          :       -2043.47608408 eV  <-- do not rely on this value for anything but (periodic) metals
  | Electronic free energy per atom                       :       -2043.49018882 eV

  Self-consistency convergence accuracy:
  | Change of charge density      :  0.7144E-03
  | Change of sum of eigenvalues  : -0.2048E+00 eV
  | Change of total energy        :  0.1201E-04 eV

  End self-consistency iteration #     7       :  max(cpu_time)    wall_clock(cpu1)
  | Time for this iteration                    :        0.333 s           0.332 s
  | Charge density update                      :        0.118 s           0.118 s
  | Density mixing                             :        0.005 s           0.005 s
  | Hartree multipole update                   :        0.003 s           0.002 s
  | Hartree multipole summation                :        0.031 s           0.031 s
  | Integration                                :        0.175 s           0.175 s
  | Solution of K.-S. eqns.                    :        0.002 s           0.001 s
  | Total energy evaluation                    :        0.000 s           0.000 s

  Partial memory accounting:
  | Current value for overall tracked memory usage on task 0  :           0.110 MB
  | Peak value for overall tracked memory usage on task 0     :           0.511 MB after allocating gradient_basis_wave
  | Largest tracked array allocation on task 0 so far         :           0.301 MB  when allocating gradient_basis_wave
  Note:  These values currently only include a subset of arrays which are explicitly tracked.
  The "true" memory usage will be greater.
------------------------------------------------------------

------------------------------------------------------------
          Begin self-consistency iteration #    8

  Date     :  20190508, Time     :  151836.560
------------------------------------------------------------
  Evaluating new KS density.
  Integration grid: deviation in total charge (<rho> - N_e) =  -7.460699E-14
  Pulay mixing of updated and previous charge densities.

  Evaluating partitioned Hartree potential by multipole expansion.
  | Analytical far-field extrapolation by fixed multipoles:
  | Hartree multipole sum: apparent total charge =  -0.618392E-06
  Summing up the Hartree potential.
  Time summed over all CPUs for potential: real work        0.030 s, elapsed        0.030 s
  | RMS charge density error from multipole expansion :   0.257183E-02

  Integrating Hamiltonian matrix: batch-based integration.
  Time summed over all CPUs for integration: real work        0.173 s, elapsed        0.173 s

  Updating Kohn-Sham eigenvalues, eigenvectors, occupation numbers, and Fermi level.
  Solving generalized eigenproblem
  Updating Kohn-Sham eigenvalues and eigenfunctions.
  Solving real generalised eigenvalue problem by standard LAPACK (fast)

  Obtaining occupation numbers and chemical potential using ELSI.
  | Chemical potential (Fermi level):    -4.85098640eV
  Highest occupied state (VBM) at     -4.85098640 eV
  | Occupation number:      1.00000001

  Lowest unoccupied state (CBM) at    -4.85098640 eV
  | Occupation number:      0.99999999

  Overall HOMO-LUMO gap:      0.00000000 eV.
  This system has fractional occupation numbers. Thus, it is a degenerate system
  within the approximate finite broadening function (occupation_type)
  applied to determine the occupation numbers.
  This may not be harmful. However, for some systems (free atoms), a different, non-degenerate
  ground state might exist by using a smaller broadening (see keyword occupation_type).

  Total energy components:
  | Sum of eigenvalues            :         -82.92014535 Ha       -2256.37195783 eV
  | XC energy correction          :         -16.94128758 Ha        -460.99589017 eV
  | XC potential correction       :          21.78483360 Ha         592.79548349 eV
  | Free-atom electrostatic energy:         -71.38136793 Ha       -1942.38584886 eV
  | Hartree energy correction     :          -0.73372766 Ha         -19.96574539 eV
  | Entropy correction            :          -0.00103668 Ha          -0.02820948 eV
  | ---------------------------
  | Total energy                  :        -150.19169490 Ha       -4086.92395875 eV
  | Total energy, T -> 0          :        -150.19273158 Ha       -4086.95216823 eV  <-- do not rely on this value for anything but (periodic) metals
  | Electronic free energy        :        -150.19376826 Ha       -4086.98037771 eV

  Derived energy quantities:
  | Kinetic energy                :         150.32628260 Ha        4090.58627630 eV
  | Electrostatic energy          :        -283.57668993 Ha       -7716.51434489 eV
  | Energy correction for multipole
  | error in Hartree potential    :          -0.00204840 Ha          -0.05573973 eV
  | Sum of eigenvalues per atom                           :       -1128.18597891 eV
  | Total energy (T->0) per atom                          :       -2043.47608412 eV  <-- do not rely on this value for anything but (periodic) metals
  | Electronic free energy per atom                       :       -2043.49018886 eV

  Self-consistency convergence accuracy:
  | Change of charge density      :  0.2469E-04
  | Change of sum of eigenvalues  : -0.3286E-02 eV
  | Change of total energy        : -0.7589E-07 eV

  End self-consistency iteration #     8       :  max(cpu_time)    wall_clock(cpu1)
  | Time for this iteration                    :        0.320 s           0.321 s
  | Charge density update                      :        0.109 s           0.109 s
  | Density mixing                             :        0.005 s           0.005 s
  | Hartree multipole update                   :        0.002 s           0.002 s
  | Hartree multipole summation                :        0.030 s           0.030 s
  | Integration                                :        0.173 s           0.173 s
  | Solution of K.-S. eqns.                    :        0.002 s           0.002 s
  | Total energy evaluation                    :        0.000 s           0.000 s

  Partial memory accounting:
  | Current value for overall tracked memory usage on task 0  :           0.110 MB
  | Peak value for overall tracked memory usage on task 0     :           0.511 MB after allocating gradient_basis_wave
  | Largest tracked array allocation on task 0 so far         :           0.301 MB  when allocating gradient_basis_wave
  Note:  These values currently only include a subset of arrays which are explicitly tracked.
  The "true" memory usage will be greater.
------------------------------------------------------------

------------------------------------------------------------
          Begin self-consistency iteration #    9

  Date     :  20190508, Time     :  151836.881
------------------------------------------------------------
  Evaluating new KS density.
  Integration grid: deviation in total charge (<rho> - N_e) =  -3.552714E-15
  Pulay mixing of updated and previous charge densities.

  Evaluating partitioned Hartree potential by multipole expansion.
  | Analytical far-field extrapolation by fixed multipoles:
  | Hartree multipole sum: apparent total charge =  -0.618432E-06
  Summing up the Hartree potential.
  Time summed over all CPUs for potential: real work        0.026 s, elapsed        0.026 s
  | RMS charge density error from multipole expansion :   0.257200E-02

  Integrating Hamiltonian matrix: batch-based integration.
  Time summed over all CPUs for integration: real work        0.155 s, elapsed        0.155 s

  Updating Kohn-Sham eigenvalues, eigenvectors, occupation numbers, and Fermi level.
  Solving generalized eigenproblem
  Updating Kohn-Sham eigenvalues and eigenfunctions.
  Solving real generalised eigenvalue problem by standard LAPACK (fast)

  Obtaining occupation numbers and chemical potential using ELSI.
  | Chemical potential (Fermi level):    -4.85088805eV
  Highest occupied state (VBM) at     -4.85088805 eV
  | Occupation number:      1.00000007

  Lowest unoccupied state (CBM) at    -4.85088804 eV
  | Occupation number:      0.99999993

  Overall HOMO-LUMO gap:      0.00000001 eV.
  This system has fractional occupation numbers. Thus, it is a degenerate system
  within the approximate finite broadening function (occupation_type)
  applied to determine the occupation numbers.
  This may not be harmful. However, for some systems (free atoms), a different, non-degenerate
  ground state might exist by using a smaller broadening (see keyword occupation_type).

  Total energy components:
  | Sum of eigenvalues            :         -82.92008170 Ha       -2256.37022597 eV
  | XC energy correction          :         -16.94129083 Ha        -460.99597860 eV
  | XC potential correction       :          21.78483800 Ha         592.79560306 eV
  | Free-atom electrostatic energy:         -71.38136793 Ha       -1942.38584886 eV
  | Hartree energy correction     :          -0.73379245 Ha         -19.96750837 eV
  | Entropy correction            :          -0.00103668 Ha          -0.02820948 eV
  | ---------------------------
  | Total energy                  :        -150.19169490 Ha       -4086.92395873 eV
  | Total energy, T -> 0          :        -150.19273158 Ha       -4086.95216821 eV  <-- do not rely on this value for anything but (periodic) metals
  | Electronic free energy        :        -150.19376826 Ha       -4086.98037768 eV

  Derived energy quantities:
  | Kinetic energy                :         150.32621571 Ha        4090.58445610 eV
  | Electrostatic energy          :        -283.57661979 Ha       -7716.51243623 eV
  | Energy correction for multipole
  | error in Hartree potential    :          -0.00204911 Ha          -0.05575902 eV
  | Sum of eigenvalues per atom                           :       -1128.18511298 eV
  | Total energy (T->0) per atom                          :       -2043.47608410 eV  <-- do not rely on this value for anything but (periodic) metals
  | Electronic free energy per atom                       :       -2043.49018884 eV

  Self-consistency convergence accuracy:
  | Change of charge density      :  0.1666E-04
  | Change of sum of eigenvalues  :  0.1732E-02 eV
  | Change of total energy        :  0.2655E-07 eV

  End self-consistency iteration #     9       :  max(cpu_time)    wall_clock(cpu1)
  | Time for this iteration                    :        0.311 s           0.311 s
  | Charge density update                      :        0.120 s           0.120 s
  | Density mixing                             :        0.005 s           0.005 s
  | Hartree multipole update                   :        0.002 s           0.002 s
  | Hartree multipole summation                :        0.027 s           0.027 s
  | Integration                                :        0.155 s           0.155 s
  | Solution of K.-S. eqns.                    :        0.001 s           0.002 s
  | Total energy evaluation                    :        0.000 s           0.000 s

  Partial memory accounting:
  | Current value for overall tracked memory usage on task 0  :           0.110 MB
  | Peak value for overall tracked memory usage on task 0     :           0.512 MB after allocating gradient_basis_wave
  | Largest tracked array allocation on task 0 so far         :           0.301 MB  when allocating gradient_basis_wave
  Note:  These values currently only include a subset of arrays which are explicitly tracked.
  The "true" memory usage will be greater.
------------------------------------------------------------

------------------------------------------------------------
          Begin self-consistency iteration #   10

  Date     :  20190508, Time     :  151837.192
------------------------------------------------------------
  Evaluating new KS density.
  Integration grid: deviation in total charge (<rho> - N_e) =   8.526513E-14
  Pulay mixing of updated and previous charge densities.

  Evaluating partitioned Hartree potential by multipole expansion.
  | Analytical far-field extrapolation by fixed multipoles:
  | Hartree multipole sum: apparent total charge =  -0.618433E-06
  Summing up the Hartree potential.
  Time summed over all CPUs for potential: real work        0.027 s, elapsed        0.027 s
  | RMS charge density error from multipole expansion :   0.257200E-02

  Integrating Hamiltonian matrix: batch-based integration.
  Time summed over all CPUs for integration: real work        0.152 s, elapsed        0.152 s

  Updating Kohn-Sham eigenvalues, eigenvectors, occupation numbers, and Fermi level.
  Solving generalized eigenproblem
  Updating Kohn-Sham eigenvalues and eigenfunctions.
  Solving real generalised eigenvalue problem by standard LAPACK (fast)

  Obtaining occupation numbers and chemical potential using ELSI.
  | Chemical potential (Fermi level):    -4.85088390eV
  Highest occupied state (VBM) at     -4.85088390 eV
  | Occupation number:      1.00000005

  Lowest unoccupied state (CBM) at    -4.85088389 eV
  | Occupation number:      0.99999995

  Overall HOMO-LUMO gap:      0.00000000 eV.
  This system has fractional occupation numbers. Thus, it is a degenerate system
  within the approximate finite broadening function (occupation_type)
  applied to determine the occupation numbers.
  This may not be harmful. However, for some systems (free atoms), a different, non-degenerate
  ground state might exist by using a smaller broadening (see keyword occupation_type).

  Total energy components:
  | Sum of eigenvalues            :         -82.92007865 Ha       -2256.37014298 eV
  | XC energy correction          :         -16.94129125 Ha        -460.99599026 eV
  | XC potential correction       :          21.78483856 Ha         592.79561832 eV
  | Free-atom electrostatic energy:         -71.38136793 Ha       -1942.38584886 eV
  | Hartree energy correction     :          -0.73379563 Ha         -19.96759494 eV
  | Entropy correction            :          -0.00103668 Ha          -0.02820948 eV
  | ---------------------------
  | Total energy                  :        -150.19169490 Ha       -4086.92395872 eV
  | Total energy, T -> 0          :        -150.19273158 Ha       -4086.95216820 eV  <-- do not rely on this value for anything but (periodic) metals
  | Electronic free energy        :        -150.19376826 Ha       -4086.98037768 eV

  Derived energy quantities:
  | Kinetic energy                :         150.32621823 Ha        4090.58452465 eV
  | Electrostatic energy          :        -283.57662188 Ha       -7716.51249311 eV
  | Energy correction for multipole
  | error in Hartree potential    :          -0.00204910 Ha          -0.05575897 eV
  | Sum of eigenvalues per atom                           :       -1128.18507149 eV
  | Total energy (T->0) per atom                          :       -2043.47608410 eV  <-- do not rely on this value for anything but (periodic) metals
  | Electronic free energy per atom                       :       -2043.49018884 eV

  Self-consistency convergence accuracy:
  | Change of charge density      :  0.9216E-06
  | Change of sum of eigenvalues  :  0.8298E-04 eV
  | Change of total energy        :  0.2334E-08 eV

  Writing Kohn-Sham eigenvalues.

  State    Occupation    Eigenvalue [Ha]    Eigenvalue [eV]
      1       2.00000         -18.887807         -513.96338
      2       2.00000         -18.887517         -513.95550
      3       2.00000          -1.289022          -35.07608
      4       2.00000          -0.694809          -18.90671
      5       2.00000          -0.512586          -13.94819
      6       2.00000          -0.512586          -13.94819
      7       2.00000          -0.497444          -13.53615
      8       1.00000          -0.178267           -4.85088
      9       1.00000          -0.178267           -4.85088
     10       0.00000           0.098420            2.67816
     11       0.00000           0.108237            2.94527
     12       0.00000           0.131753            3.58519
     13       0.00000           0.131753            3.58519
     14       0.00000           0.210140            5.71821

  Highest occupied state (VBM) at     -4.85088390 eV
  | Occupation number:      1.00000005

  Lowest unoccupied state (CBM) at    -4.85088389 eV
  | Occupation number:      0.99999995

  Overall HOMO-LUMO gap:      0.00000000 eV.
  This system has fractional occupation numbers. Thus, it is a degenerate system
  within the approximate finite broadening function (occupation_type)
  applied to determine the occupation numbers.
  This may not be harmful. However, for some systems (free atoms), a different, non-degenerate
  ground state might exist by using a smaller broadening (see keyword occupation_type).

  Self-consistency cycle converged.

  End self-consistency iteration #    10       :  max(cpu_time)    wall_clock(cpu1)
  | Time for this iteration                    :        0.295 s           0.295 s
  | Charge density update                      :        0.107 s           0.107 s
  | Density mixing                             :        0.005 s           0.005 s
  | Hartree multipole update                   :        0.002 s           0.002 s
  | Hartree multipole summation                :        0.027 s           0.027 s
  | Integration                                :        0.152 s           0.153 s
  | Solution of K.-S. eqns.                    :        0.001 s           0.001 s
  | Total energy evaluation                    :        0.000 s           0.000 s

  Partial memory accounting:
  | Current value for overall tracked memory usage on task 0  :           0.110 MB
  | Peak value for overall tracked memory usage on task 0     :           0.512 MB after allocating gradient_basis_wave
  | Largest tracked array allocation on task 0 so far         :           0.301 MB  when allocating gradient_basis_wave
  Note:  These values currently only include a subset of arrays which are explicitly tracked.
  The "true" memory usage will be greater.
------------------------------------------------------------
  ------------------------------------------------------------
   Computing monopole / dipole moments for complete molecule:
  | Total electronic charge [e]         :          0.159999999999999E+02
  | Total ionic charge [e]              :          0.160000000000000E+02
  | Total charge [e]                    :          0.119015908239817E-12
  | Total dipole moment [eAng]          :          0.988068959195727E-15        -0.688966736221080E-14        -0.486923914131410E-12
  | Absolute dipole moment              :          0.486973656320013E-12 eAng              /                   0.233866962010165E-11 Debye  .

  Energy and forces in a compact form:
  | Total energy uncorrected      :         -0.408692395872334E+04 eV
  | Total energy corrected        :         -0.408695216820293E+04 eV  <-- do not rely on this value for anything but (periodic) metals
  | Electronic free energy        :         -0.408698037768253E+04 eV

  ------------------------------------ 
  Start decomposition of the XC Energy 
  ------------------------------------ 
  X and C from original XC functional choice 
  Hartree-Fock Energy :          0.000000000 Ha              0.000000000 eV
  X Energy            :        -16.399390525 Ha           -446.250121135 eV
  C Energy            :         -0.541900730 Ha            -14.745869122 eV
  Total XC Energy     :        -16.941291255 Ha           -460.995990257 eV
  ------------------------------------ 
  LDA X and C from self-consistent density 
  X Energy LDA        :        -14.906292856 Ha           -405.620866366 eV
  C Energy LDA        :         -1.117144900 Ha            -30.399059417 eV
  ------------------------------------ 
  End decomposition of the XC Energy 
  ------------------------------------ 

------------------------------------------------------------

------------------------------------------------------------------------------
  Final output of selected total energy values:

  The following output summarizes some interesting total energy values
  at the end of a run (AFTER all relaxation, molecular dynamics, etc.).

  | Total energy of the DFT / Hartree-Fock s.c.f. calculation      :          -4086.923958723 eV
  | Final zero-broadening corrected energy (caution - metals only) :          -4086.952168203 eV
  | For reference only, the value of 1 Hartree used in FHI-aims is :             27.211384500 eV

  Before relying on these values, please be sure to understand exactly which
  total energy value is referred to by a given number. Different objects may
  all carry the same name 'total energy'. Definitions:

  Total energy of the DFT / Hartree-Fock s.c.f. calculation:
  | Note that this energy does not include ANY quantities calculated after the
  | s.c.f. cycle, in particular not ANY RPA, MP2, etc. many-body perturbation terms.

  Final zero-broadening corrected energy:
  | For metallic systems only, a broadening of the occupation numbers at the Fermi
  | level can be extrapolated back to zero broadening by an electron-gas inspired
  | formula. For all systems that are not real metals, this value can be
  | meaningless and should be avoided.

------------------------------------------------------------------------------
  Methods described in the following list of references were used in this FHI-aims run.
  If you publish the results, please make sure to cite these reference if they apply.
  FHI-aims is an academic code, and for our developers (often, Ph.D. students
  and postdocs), scientific credit in the community is essential.
  Thank you for helping us!

  For any use of FHI-aims, please cite:

    Volker Blum, Ralf Gehrke, Felix Hanke, Paula Havu, Ville Havu,
    Xinguo Ren, Karsten Reuter, and Matthias Scheffler
    'Ab initio molecular simulations with numeric atom-centered orbitals'
    Computer Physics Communications 180, 2175-2196 (2009)
    http://dx.doi.org/10.1016/j.cpc.2009.06.022


  For the real-space grid partitioning and parallelization used in this calculation, please cite:

    Ville Havu, Volker Blum, Paula Havu, and Matthias Scheffler,
    'Efficient O(N) integration for all-electron electronic structure calculation'
    'using numerically tabulated basis functions'
    Journal of Computational Physics 228, 8367-8379 (2009).
    http://dx.doi.org/10.1016/j.jcp.2009.08.008

  Of course, there are many other important community references, e.g., those cited in the
  above references. Our list is limited to references that describe implementations in the
  FHI-aims code. The reason is purely practical (length of this list) - please credit others as well.

------------------------------------------------------------
          Leaving FHI-aims.
          Date     :  20190508, Time     :  151837.522

          Computational steps:
          | Number of self-consistency cycles          :           10
          | Number of SCF (re)initializations          :            1

          Detailed time accounting                     :  max(cpu_time)    wall_clock(cpu1)
          | Total time                                 :        3.483 s           3.483 s
          | Preparation time                           :        0.071 s           0.070 s
          | Boundary condition initalization           :        0.000 s           0.001 s
          | Grid partitioning                          :        0.033 s           0.032 s
          | Preloading free-atom quantities on grid    :        0.003 s           0.003 s
          | Free-atom superposition energy             :        0.027 s           0.027 s
          | Total time for integrations                :        1.803 s           1.803 s
          | Total time for solution of K.-S. equations :        0.018 s           0.016 s
          | Total time for density update              :        1.131 s           1.130 s
          | Total time for mixing                      :        0.035 s           0.037 s
          | Total time for Hartree multipole update    :        0.023 s           0.022 s
          | Total time for Hartree multipole sum       :        0.281 s           0.282 s
          | Total time for total energy evaluation     :        0.001 s           0.000 s

 This is a stub MPI_ALLREDUCE call.
 You should not be here. Check your
 setting on the use_mpi variable, or
 link against true MPI-libraries.
