------------------------------------------------------------
          Invoking FHI-aims ...
          Version 171221_1
          Compiled on 2019/05/06 at 14:26:40 on host ffph0xx.

          When using FHI-aims, please cite the following reference:

          Volker Blum, Ralf Gehrke, Felix Hanke, Paula Havu,
          Ville Havu, Xinguo Ren, Karsten Reuter, and Matthias Scheffler,
          'Ab Initio Molecular Simulations with Numeric Atom-Centered Orbitals',
          Computer Physics Communications 180, 2175-2196 (2009)

          For any questions about FHI-aims, please visit the aimsclub website
          with its forums and wiki. Contributions to both the forums and the
          wiki are warmly encouraged - they are for you, and everyone is welcome there.

------------------------------------------------------------



  Date     :  20190514, Time     :  105003.095
  Time zero on CPU 1             :   0.615000000000000E-03  s.
  Internal wall clock time zero  :           327063003.095  s.

  FHI-aims created a unique identifier for this run for later identification
  aims_uuid : C030646D-290B-4B05-AE65-8CBA23AEF72A


  Performing system and environment tests:
  *** Environment variable OMP_NUM_THREADS is not set
  *** For performance reasons you might want to set it to 1
  | Stacksize not measured: no C compiler

  Obtaining array dimensions for all initial allocations:
  
  -----------------------------------------------------------------------
  Parsing control.in (first pass over file, find array dimensions only).
  The contents of control.in will be repeated verbatim below
  unless switched off by setting 'verbatim_writeout .false.' .
  in the first line of control.in .
  -----------------------------------------------------------------------
  
  #--- method ---
  xc pw-lda
  spin none
  relativistic atomic_zora scalar
  #---
  
  #--- k-grid settings ---
  k_grid 12 12 12
  #---
  
  
  
  
  
  
  
  
  
  
  
  #-------------------------------------------------------------------------------
  #--- Species defaults for Si
  #-------------------------------------------------------------------------------
  
  ################################################################################
  #
  #  FHI-aims code project
  #  VB, Fritz-Haber Institut, 2009
  #
  #  Suggested "light" defaults for Si atom (to be pasted into control.in file)
  #  Be sure to double-check any results obtained with these settings for post-processing,
  #  e.g., with the "tight" defaults and larger basis sets.
  #
  ################################################################################
    species        Si
  #     global species definitions
      nucleus             14
      mass                28.0855
  #
      l_hartree           4
  #
      cut_pot             3.5          1.5  1.0
      basis_dep_cutoff    1e-4
  #
      radial_base         42 5.0
      radial_multiplier   1
      angular_grids       specified
        division   0.5866   50
        division   0.9616  110
        division   1.2249  194
        division   1.3795  302
  #      division   1.4810  434
  #      division   1.5529  590
  #      division   1.6284  770
  #      division   1.7077  974
  #      division   2.4068 1202
  #      outer_grid   974
        outer_grid 302
  ################################################################################
  #
  #  Definition of "minimal" basis
  #
  ################################################################################
  #     valence basis states
      valence      3  s   2.
      valence      3  p   2.
  #     ion occupancy
      ion_occ      3  s   1.
      ion_occ      3  p   1.
  ################################################################################
  #
  #  Suggested additional basis functions. For production calculations,
  #  uncomment them one after another (the most important basis functions are
  #  listed first).
  #
  #  Constructed for dimers: 1.75 A, 2.0 A, 2.25 A, 2.75 A, 3.75 A
  #
  ################################################################################
  #  "First tier" - improvements: -571.96 meV to -37.03 meV
       hydro 3 d 4.2
       hydro 2 p 1.4
  #     hydro 4 f 6.2
       ionic 3 s auto
  #  "Second tier" - improvements: -16.76 meV to -3.03 meV
  #     hydro 3 d 9
  #     hydro 5 g 9.4
  #     hydro 4 p 4
  #     hydro 1 s 0.65
  #  "Third tier" - improvements: -3.89 meV to -0.60 meV
  #     ionic 3 d auto
  #     hydro 3 s 2.6
  #     hydro 4 f 8.4
  #     hydro 3 d 3.4
  #     hydro 3 p 7.8
  #  "Fourth tier" - improvements: -0.33 meV to -0.11 meV
  #     hydro 2 p 1.6
  #     hydro 5 g 10.8
  #     hydro 5 f 11.2
  #     hydro 3 d 1
  #     hydro 4 s 4.5
  #  Further basis functions that fell out of the optimization - noise
  #  level... < -0.08 meV
  #     hydro 4 d 6.6
  #     hydro 5 g 16.4
  #     hydro 4 d 9
  
  -----------------------------------------------------------------------
  Completed first pass over input file control.in .
  -----------------------------------------------------------------------
  
  
  -----------------------------------------------------------------------
  Parsing geometry.in (first pass over file, find array dimensions only).
  The contents of geometry.in will be repeated verbatim below
  unless switched off by setting 'verbatim_writeout .false.' .
  in the first line of geometry.in .
  -----------------------------------------------------------------------
  
  lattice_vector  -2.650000   2.650000   2.650000
  lattice_vector   2.650000  -2.650000   2.650000
  lattice_vector   2.650000   2.650000  -2.650000
  atom_frac   0.000000   0.000000   0.000000 Si
  
  -----------------------------------------------------------------------
  Completed first pass over input file geometry.in .
  -----------------------------------------------------------------------
  

  Basic array size parameters:
  | Number of species                 :        1
  | Number of atoms                   :        1
  | Number of lattice vectors         :        3
  | Max. basis fn. angular momentum   :        2
  | Max. atomic/ionic basis occupied n:        3
  | Max. number of basis fn. types    :        3
  | Max. radial fns per species/type  :        5
  | Max. logarithmic grid size        :     1346
  | Max. radial integration grid size :       42
  | Max. angular integration grid size:      302
  | Max. angular grid division number :        8
  | Radial grid for Hartree potential :     1346
  | Number of spin channels           :        1

------------------------------------------------------------
          Reading file control.in.
------------------------------------------------------------
  XC: Using Perdew-Wang parametrisation of Ceperley-Alder LDA.
  Spin treatment: No spin polarisation.
  Scalar relativistic treatment of kinetic energy: on-site free-atom approximation to ZORA.
  Found k-point grid:        12        12        12

  Reading configuration options for species Si                  .
  | Found nuclear charge :  14.0000
  | Found atomic mass :    28.085500000000000      amu
  | Found l_max for Hartree potential  :   4
  | Found cutoff potl. onset [A], width [A], scale factor :    3.50000    1.50000    1.00000
  | Threshold for basis-dependent cutoff potential is   0.100000E-03
  | Found data for basic radial integration grid :    42 points, outermost radius =    5.000 A
  | Found multiplier for basic radial grid :   1
  | Found angular grid specification: user-specified.
  | Specified grid contains     5 separate shells.
  | Check grid settings after all constraints further below.
  | Found free-atom valence shell :  3 s   2.000
  | Found free-atom valence shell :  3 p   2.000
  | Found free-ion valence shell :  3 s   1.000
  | Found free-ion valence shell :  3 p   1.000
  | Found hydrogenic basis function :  3 d   4.200
  | Found hydrogenic basis function :  2 p   1.400
  | Found ionic basis function :  3 s , default cutoff radius.
  Species Si                  : Missing cutoff potential type.
  Defaulting to exp(1/x)/(1-x)^2 type cutoff potential.
  Species Si: No 'logarithmic' tag. Using default grid for free atom:
  | Default logarithmic grid data [bohr] : 0.1000E-03 0.1000E+03 0.1012E+01
  | Will include ionic basis functions of  2.0-fold positive Si                   ion.
  Species Si: On-site basis accuracy parameter (for Gram-Schmidt orthonormalisation) not specified.
  Using default value basis_acc =  0.1000000E-03.
  Species Si                  : Using default innermost maximum threshold i_radial=  2 for radial functions.
  Species Si                  : Default cutoff onset for free atom density etc. : 0.35000000E+01 AA.
  Species Si                  : Basic radial grid will be enhanced according to radial_multiplier =   1, to contain    42 grid points.

  Finished reading input file 'control.in'. Consistency checks are next.

  MPI_IN_PLACE appears to work with this MPI implementation.
  | Keeping use_mpi_in_place .true. (see manual).
  Target number of points in a grid batch is not set. Defaulting to  100
  Method for grid partitioning is not set. Defaulting to 'maxmin' partitioning.
  Batch size limit is not set. Defaulting to    200
  By default, will store active basis functions for each batch.
  If in need of memory, prune_basis_once .false. can be used to disable this option.
  communication_type for Hartree potential was not specified.
  Defaulting to calc_hartree .
 * Attention: 
 * You may want to set distributed_spline_storage to .true. in order to save memory.
 * This doesn't harm performance and is perfectly ok unless:
 * - you get error messages in postprocessing (about missing atoms in get_rho_multipole_spl)
 * - you need full spline storage in hirshfeld_analysis
  Defaulting to Pulay charge density mixer.
  Pulay mixer: Number of relevant iterations not set.
  Defaulting to    8 iterations.
  Pulay mixer: Number of initial linear mixing iterations not set.
  Defaulting to    0 iterations.
  Work space size for distributed Hartree potential not set.
  Defaulting to   0.200000E+03 MB.
  Mixing parameter for charge density mixing has not been set.
  Using default: charge_mix_param =     0.0500.
  The mixing parameter will be adjusted in iteration number     2 of the first full s.c.f. cycle only.
  Algorithm-dependent basis array size parameters:
  | n_max_pulay                         :        8
 * Notice: The s.c.f. convergence criterion sc_accuracy_rho was not provided.
 * We used to stop in this case, and ask the user to provide reasonable
 * scf convergence criteria. However, this led some users to employ criteria
 * that led to extremely long run times, e.g., for simple relaxation.
 * We now preset a default value for sc_accuracy_rho if it is not set.
 * You may still wish to check if this setting is too tight or too loose for your needs.
 * Based on n_atoms, FHI-aims chose sc_accuracy_rho =  0.100000E-05 .
  Maximum number of self-consistency iterations not provided.
  Presetting  1000 iterations.
  Presetting      1001 iterations before the initial mixing cycle
  is restarted anyway using the sc_init_iter criterion / keyword.
  Presetting a factor      1.000 between actual scf density residual
  and density convergence criterion sc_accuracy_rho below which sc_init_iter
  takes no effect.
 * No s.c.f. convergence criteria (sc_accuracy_*) were provided in control.in.
 * The run will proceed with a reasonable default guess, but please check whether.
 * the s.c.f. cycles seem to take too much or too little time.
  Calculation of forces was not defined in control.in. No forces will be calculated.
  Geometry relaxation not requested: no relaxation will be performed.
  No accuracy limit for integral partition fn. given. Defaulting to  0.1000E-14.
  No threshold value for u(r) in integrations given. Defaulting to  0.1000E-05.
  No occupation type (smearing scheme) given. Defaulting to Gaussian broadening, width =  0.1000E-01 eV.
  The width will be adjusted in iteration number     2 of the first full s.c.f. cycle only.
  S.C.F. convergence parameters will be adjusted in iteration number     2 of the first full s.c.f. cycle only.
  No accuracy for occupation numbers given. Defaulting to  0.1000E-12.
  No threshold value for occupation numbers given. Defaulting to  0.0000E+00.
  No accuracy for fermi level given. Defaulting to  0.1000E-19.
  Maximum # of iterations to find E_F not set. Defaulting to  200.
  Preferred method for the eigenvalue solver ('KS_method') not specified in 'control.in'.
  Defaulting to serial version, 'lapack_fast'.
  Will not use alltoall communication since running on < 1024 CPUs.
  Threshold for basis singularities not set.
  Default threshold for basis singularities:  0.1000E-04
  partition_type (choice of integration weights) for integrals was not specified.
  | Using a version of the partition function of Stratmann and coworkers ('stratmann_smoother').
  | At each grid point, the set of atoms used to build the partition table is smoothly restricted to
  | only those atoms whose free-atom density would be non-zero at that grid point.
  Partitioning for Hartree potential was not defined. Using partition_type for integrals.
  | Adjusted default value of keyword multip_moments_threshold to:       0.10000000E-11
  | This value may affect high angular momentum components of the Hartree potential in periodic systems.
  Angular momentum expansion for Kerker preconditioner not set explicitly.
  | Using default value of   0
  No explicit requirement for turning off preconditioner.
  | By default, it will be turned off when the charge convergence reaches
  | sc_accuracy_rho  =   0.100000E-05
  No special mixing parameter while Kerker preconditioner is on.
  Using default: charge_mix_param =     0.0500.
  No q(lm)/r^(l+1) cutoff set for long-range Hartree potential.
  | Using default value of  0.100000E-09 .
  | Verify using the multipole_threshold keyword.
  Defaulting to new monopole extrapolation.
  Density update method: automatic selection selected.
  Using density matrix based charge density update.
  Using density matrix based charge density update.
  Using packed matrix style: index .
  Defaulting to use time-reversal symmetry for k-point grid.
------------------------------------------------------------


------------------------------------------------------------
          Reading geometry description geometry.in.
------------------------------------------------------------
  Input structure read successfully.
  The structure contains        1 atoms,  and a total of         14.000 electrons.

  Input geometry:
  | Unit cell:
  |       -2.65000000        2.65000000        2.65000000
  |        2.65000000       -2.65000000        2.65000000
  |        2.65000000        2.65000000       -2.65000000
  | Atomic structure:
  |       Atom                x [A]            y [A]            z [A]
  |    1: Species Si            0.00000000        0.00000000        0.00000000

  Lattice parameters for 3D lattice (in Angstroms) :     4.589935    4.589935    4.589935
  Angle(s) between unit vectors (in degrees)      :   109.471221  109.471221  109.471221

  |

  | The smallest distance between any two atoms is         4.58993464 AA.
  |
  | The first atom of this pair is atom number                      1 .
  | The second atom of this pair is atom number                     1 .
  | Wigner-Seitz cell of the first atom image           0     0     1 .
  | (The Wigner-Seitz cell of the second atom is 0 0 0  by definition.)

  Quantities derived from the lattice vectors:
  | Reciprocal lattice vector 1:  0.000000  1.185507  1.185507
  | Reciprocal lattice vector 2:  1.185507  0.000000  1.185507
  | Reciprocal lattice vector 3:  1.185507  1.185507 -0.000000
  | Unit cell volume                               :   0.744385E+02  A^3

  Range separation radius for Ewald summation (hartree_convergence_parameter):      5.00000000 bohr.

  Fractional coordinates:
                         L1                L2                L3
       atom_frac         0.00000000        0.00000000        0.00000000  Si

  Number of empty states per atom not set in control.in - providing a guess from actual geometry.
  | Total number of empty states used during s.c.f. cycle:        3
  If you use a very high smearing, use empty_states (per atom!) in control.in to increase this value.

  Structure-dependent array size parameters: 
  | Maximum number of distinct radial functions  :        8
  | Maximum number of basis functions            :       18
  | Number of Kohn-Sham states (occupied + empty):       10
------------------------------------------------------------

------------------------------------------------------------
          Preparing all fixed parts of the calculation.
------------------------------------------------------------
  Determining machine precision:
     2.2250738585072014E-308
  Setting up grids for atomic and cluster calculations.

  Creating wave function, potential, and density for free atoms.

  Species: Si

  List of occupied orbitals and eigenvalues:
    n    l              occ      energy [Ha]    energy [eV]
    1    0           2.0000       -65.491668     -1782.1190
    2    0           2.0000        -5.087967      -138.4506
    3    0           2.0000        -0.391471       -10.6525
    2    1           6.0000        -3.502246       -95.3010
    3    1           2.0000        -0.143943        -3.9169

  Creating fixed part of basis set: Ionic, confined, hydrogenic.

  Si                   ion:

  List of free ionic orbitals and eigenvalues:
    n    l      energy [Ha]    energy [eV]
    1    0       -66.364436     -1805.8682
    2    0        -5.935799      -161.5213
    3    0        -1.078166       -29.3384
    2    1        -4.351123      -118.4001
    3    1        -0.781733       -21.2720


  List of ionic basis orbitals and eigenvalues:
    n    l      energy [Ha]    energy [eV]    outer radius [A]
    3    0        -1.078146       -29.3378       4.214062


  Si                   hydrogenic:

  List of hydrogenic basis orbitals: 
    n    l      effective z      eigenvalue [eV]  inner max. [A]     outer max. [A]     outer radius [A]   
    3    2         4.200000       -26.6624           1.139231           1.139231           4.534782
    2    1         1.400000        -6.4613           1.472672           1.472672           4.590560


  Adding cutoff potential to free-atom effective potential.
  Creating atomic-like basis functions for current effective potential.

  Species Si                  :

  List of atomic basis orbitals and eigenvalues:
    n    l      energy [Ha]    energy [eV]    outer radius [A]
    1    0       -65.491668     -1782.1190       0.789468
    2    0        -5.087967      -138.4506       2.815114
    3    0        -0.391471       -10.6525       4.534782
    2    1        -3.502246       -95.3010       3.259919
    3    1        -0.143943        -3.9169       4.590560

  Assembling full basis from fixed parts.
  | Species Si :   atomic orbital   1 s accepted.
  | Species Si :   atomic orbital   2 s accepted.
  | Species Si :    ionic orbital   3 s accepted.
  | Species Si :   atomic orbital   3 s accepted.
  | Species Si :   atomic orbital   2 p accepted.
  | Species Si :   atomic orbital   3 p accepted.
  | Species Si :    hydro orbital   2 p accepted.
  | Species Si :    hydro orbital   3 d accepted.

  Basis size parameters after reduction:
  | Total number of radial functions:        8
  | Total number of basis functions :       18

  Per-task memory consumption for arrays in subroutine allocate_ext:
  |           2.757468MB.
  Testing on-site integration grid accuracy.
  |  Species  Function  <phi|h_atom|phi> (log., in eV)  <phi|h_atom|phi> (rad., in eV)
           1        1              -1782.1189727076              -1782.1182429251
           1        2               -138.4506350693               -138.4506310079
           1        3                -10.3030408815                -10.3029120678
           1        4                  5.0238999146                  4.9457540310 ***
           1        5                -95.3009689499                -95.3009689315
           1        6                 -3.9266496564                 -3.9420918374
           1        7                  6.3453628447                  6.1632372158 ***
           1        8                  6.2883050744                  6.2861881409
 * Note: Onsite integrals marked "***" above are less accurate than
 * onsite_accuracy_threshold =    0.03000 eV. Usually, this is harmless.
 * When in doubt, tighten the "radial" and/or "radial_multiplier" flags to check.

  Preparing densities etc. for the partition functions (integrals / Hartree potential).

  Preparations completed.
  max(cpu_time)          :      0.112 s.
  Wall clock time (cpu1) :      0.111 s.
------------------------------------------------------------

------------------------------------------------------------
          Begin self-consistency loop: Initialization.

          Date     :  20190514, Time     :  105003.207
------------------------------------------------------------

  Initializing index lists of integration centers etc. from given atomic structure:
  Mapping all atomic coordinates to central unit cell.

  Initializing the k-points
          Using symmetry for reducing the k-points
  | k-points reduced from:     1728 to      868
  | Number of k-points                             :       868
  The eigenvectors in the calculations are COMPLEX.
  | K-points in task   0:       868
  | Number of basis functions in the Hamiltonian integrals :       412
  | Number of basis functions in a single unit cell        :        18
  | Number of centers in hartree potential         :       283
  | Number of centers in hartree multipole         :        65
  | Number of centers in electron density summation:        59
  | Number of centers in basis integrals           :        59
  | Number of centers in integrals                 :        27
  | Number of centers in hamiltonian               :        59
  | Consuming        813 KiB for k_phase.
  | Number of super-cells (origin) [n_cells]                     :        2197
  | Number of super-cells (after PM_index) [n_cells]             :          60
  | Number of super-cells in hamiltonian [n_cells_in_hamiltonian]:          60
  | Size of matrix packed + index [n_hamiltonian_matrix_size] :        6984
  Partitioning the integration grid into batches with maxmin method.
  | Maximal weight for a single point:     1.000
  | Minimal weight for a single point:     0.574
  | Number of batches:       64
  | Maximal batch size:      90
  | Minimal batch size:      85
  | Average batch size:      87.562
  | Standard deviation of batch sizes:       1.499
  Initializing partition tables, free-atom densities, potentials, etc. across the integration grid (initialize_grid_storage).
  | initialize_grid_storage: Actual outermost partition radius vs. multipole_radius_free
  | (-- VB: in principle, multipole_radius_free should be larger, hence this output)
  | Species        1: Confinement radius =              4.999999999999999 AA, multipole_radius_free =              5.000694715736543 AA.
  | Species        1: outer_partition_radius set to              5.000694715736543 AA .
  | Original list of interatomic distances with          59 x         59 entries is created.
  | Net number of integration points:     5604
  | of which are non-zero points    :     5438
  | Numerical average free-atom electrostatic potential    :     -3.53416604 eV
  Renormalizing the initial density to the exact electron count on the 3D integration grid.
  | Initial density: Formal number of electrons (from input files) :      14.0000000000
  | Integrated number of electrons on 3D grid     :      14.0003573056
  | Charge integration error                      :       0.0003573056
  | Normalization factor for density and gradient :       0.9999744788
  Obtaining max. number of non-zero basis functions in each batch (get_n_compute_maxes).
  | Maximal number of non-zero basis functions:      158 in task     0
  Allocating        2.500 MB for KS_eigenvector_complex
  Integrating Hamiltonian matrix: batch-based integration.
  Time summed over all CPUs for integration: real work        0.048 s, elapsed        0.048 s
  Integrating overlap matrix.
  Time summed over all CPUs for integration: real work        0.031 s, elapsed        0.031 s
  Decreasing sparse matrix size:
   Tolerance:   9.9999998245167004E-014
   Hamiltonian matrix
  | Array has     4945 nonzero elements out of     6984 elements
  | Sparsity factor is 0.292
   Overlap matrix
  | Array has     4267 nonzero elements out of     6984 elements
  | Sparsity factor is 0.389
  New size of hamiltonian matrix:        5084

  Updating Kohn-Sham eigenvalues, eigenvectors, occupation numbers, and Fermi level.
  Solving generalized eigenproblem
  Transforming overlap matrix and checking for singularities.
  Overlap matrix is nonsingular at first k-point:
  | Lowest eigenvalue:  0.196176E+00

  Obtaining occupation numbers and chemical potential using ELSI.
  | Chemical potential (Fermi level):    -4.31600910eV
  Writing Kohn-Sham eigenvalues.
  K-point:       1 at    0.000000    0.000000    0.000000 (in units of recip. lattice)

  State    Occupation    Eigenvalue [Ha]    Eigenvalue [eV]
      1       2.00000         -65.491624        -1782.11777
      2       2.00000          -5.087953         -138.45026
      3       2.00000          -3.502232          -95.30059
      4       2.00000          -3.502232          -95.30059
      5       2.00000          -3.502232          -95.30059
      6       2.00000          -0.411736          -11.20392
      7       0.00000          -0.108440           -2.95079
      8       0.00000          -0.108440           -2.95079
      9       0.00000          -0.108440           -2.95079
     10       0.00000           0.041864            1.13918

  What follows are estimated values for band gap, HOMO, LUMO, etc.
  | They are estimated on a discrete k-point grid and not necessarily exact.
  | For converged numbers, create a DOS and/or band structure plot on a denser k-grid.

  Highest occupied state (VBM) at     -4.31684955 eV (relative to internal zero)
  | Occupation number:      1.09461157
  | K-point:     294 at    0.250000    0.000000    0.333333 (in units of recip. lattice)

  Lowest unoccupied state (CBM) at    -4.30985875 eV (relative to internal zero)
  | Occupation number:      0.38441495
  | K-point:     565 at    0.416667    0.500000    0.500000 (in units of recip. lattice)

  ESTIMATED overall HOMO-LUMO gap:      0.00699079 eV between HOMO at k-point 294 and LUMO at k-point 565
  | This appears to be an indirect band gap.
  | Smallest direct gap :      0.02757926 eV for k_point 566 at    0.416667    0.500000    0.500000 (in units of recip. lattice)
  However, this system has fractional occupation numbers. Since we use a finite k-point grid,
  this material is metallic within the approximate finite broadening function (occupation_type)
  applied to determine the occupation numbers.
  Calculating total energy contributions from superposition of free atom densities.

  Total energy components:
  | Sum of eigenvalues            :        -163.31142375 Ha       -4443.92994489 eV
  | XC energy correction          :         -19.62807619 Ha        -534.10712829 eV
  | XC potential correction       :          25.93400774 Ha         705.70025621 eV
  | Free-atom electrostatic energy:        -132.20624289 Ha       -3597.51490860 eV
  | Hartree energy correction     :          -0.00000000 Ha          -0.00000000 eV
  | Entropy correction            :          -0.00000624 Ha          -0.00016972 eV
  | ---------------------------
  | Total energy                  :        -289.21173509 Ha       -7869.85172557 eV
  | Total energy, T -> 0          :        -289.21174133 Ha       -7869.85189529 eV  <-- do not rely on this value for anything but (periodic) metals
  | Electronic free energy        :        -289.21174757 Ha       -7869.85206501 eV

  Derived energy quantities:
  | Kinetic energy                :         289.55869958 Ha        7879.29310972 eV
  | Electrostatic energy          :        -559.14235849 Ha      -15215.03770700 eV
  | Energy correction for multipole
  | error in Hartree potential    :           0.00000000 Ha           0.00000000 eV
  | Sum of eigenvalues per atom                           :       -4443.92994489 eV
  | Total energy (T->0) per atom                          :       -7869.85189529 eV  <-- do not rely on this value for anything but (periodic) metals
  | Electronic free energy per atom                       :       -7869.85206501 eV
  Initialize hartree_potential_storage
  Max. number of atoms included in rho_multipole:            1

  End scf initialization - timings             :  max(cpu_time)    wall_clock(cpu1)
  | Time for scf. initialization               :        0.372 s           0.373 s
  | Boundary condition initialization          :        0.036 s           0.036 s
  | Integration                                :        0.079 s           0.079 s
  | Solution of K.-S. eqns.                    :        0.226 s           0.226 s
  | Grid partitioning                          :        0.007 s           0.007 s
  | Preloading free-atom quantities on grid    :        0.001 s           0.001 s
  | Free-atom superposition energy             :        0.007 s           0.007 s
  | Total energy evaluation                    :        0.000 s           0.000 s

  Partial memory accounting:
  | Current value for overall tracked memory usage on task 0  :           2.602 MB
  | Peak value for overall tracked memory usage on task 0     :           3.181 MB after allocating wave
  | Largest tracked array allocation on task 0 so far         :           2.500 MB  when allocating +KS_eigenvector_complex
  Note:  These values currently only include a subset of arrays which are explicitly tracked.
  The "true" memory usage will be greater.
------------------------------------------------------------

------------------------------------------------------------
          Begin self-consistency iteration #    1

  Date     :  20190514, Time     :  105003.580
------------------------------------------------------------
  Evaluating new KS density using the density matrix
  Evaluating density matrix
  Time summed over all CPUs for getting density from density matrix: real work        0.069 s, elapsed        0.069 s
  Integration grid: deviation in total charge (<rho> - N_e) =  -5.382361E-13
  Pulay mixing of updated and previous charge densities.

  Evaluating partitioned Hartree potential by multipole expansion.
  | Analytical far-field extrapolation by fixed multipoles:
  | Hartree multipole sum: apparent total charge =   0.152667E-03
  Summing up the Hartree potential.
  | Estimated reciprocal-space cutoff momentum G_max:         1.84432723 bohr^-1 .
  | Reciprocal lattice points for long-range Hartree potential:      54
  Time summed over all CPUs for potential: real work        0.081 s, elapsed        0.081 s
  | RMS charge density error from multipole expansion :   0.450655E-04
  | Average real-space part of the electrostatic potential :     -0.01354777 eV

  Integrating Hamiltonian matrix: batch-based integration.
  Time summed over all CPUs for integration: real work        0.048 s, elapsed        0.048 s

  Updating Kohn-Sham eigenvalues, eigenvectors, occupation numbers, and Fermi level.
  Solving generalized eigenproblem

  Obtaining occupation numbers and chemical potential using ELSI.
  | Chemical potential (Fermi level):    -4.33232369eV
  Writing Kohn-Sham eigenvalues.
  K-point:       1 at    0.000000    0.000000    0.000000 (in units of recip. lattice)

  State    Occupation    Eigenvalue [Ha]    Eigenvalue [eV]
      1       2.00000         -65.495141        -1782.21347
      2       2.00000          -5.090360         -138.51574
      3       2.00000          -3.504709          -95.36799
      4       2.00000          -3.504709          -95.36799
      5       2.00000          -3.504709          -95.36799
      6       2.00000          -0.412535          -11.22566
      7       0.00000          -0.109193           -2.97129
      8       0.00000          -0.109193           -2.97129
      9       0.00000          -0.109193           -2.97129
     10       0.00000           0.041219            1.12162

  What follows are estimated values for band gap, HOMO, LUMO, etc.
  | They are estimated on a discrete k-point grid and not necessarily exact.
  | For converged numbers, create a DOS and/or band structure plot on a denser k-grid.

  Highest occupied state (VBM) at     -4.33288020 eV (relative to internal zero)
  | Occupation number:      1.06273047
  | K-point:      29 at    0.000000    0.250000    0.333333 (in units of recip. lattice)

  Lowest unoccupied state (CBM) at    -4.32650948 eV (relative to internal zero)
  | Occupation number:      0.41093214
  | K-point:     566 at    0.416667    0.500000    0.583333 (in units of recip. lattice)

  ESTIMATED overall HOMO-LUMO gap:      0.00637072 eV between HOMO at k-point 29 and LUMO at k-point 566
  | This appears to be an indirect band gap.
  | Smallest direct gap :      0.02751237 eV for k_point 566 at    0.416667    0.500000    0.583333 (in units of recip. lattice)
  However, this system has fractional occupation numbers. Since we use a finite k-point grid,
  this material is metallic within the approximate finite broadening function (occupation_type)
  applied to determine the occupation numbers.

  Total energy components:
  | Sum of eigenvalues            :        -163.34099280 Ha       -4444.73455975 eV
  | XC energy correction          :         -19.62588709 Ha        -534.04755976 eV
  | XC potential correction       :          25.93112587 Ha         705.62183663 eV
  | Free-atom electrostatic energy:        -132.20624289 Ha       -3597.51490860 eV
  | Hartree energy correction     :           0.03042381 Ha           0.82787404 eV
  | Entropy correction            :          -0.00000622 Ha          -0.00016937 eV
  | ---------------------------
  | Total energy                  :        -289.21157310 Ha       -7869.84731745 eV
  | Total energy, T -> 0          :        -289.21157932 Ha       -7869.84748682 eV  <-- do not rely on this value for anything but (periodic) metals
  | Electronic free energy        :        -289.21158555 Ha       -7869.84765619 eV

  Derived energy quantities:
  | Kinetic energy                :         289.53308272 Ha        7878.59603931 eV
  | Electrostatic energy          :        -559.11876873 Ha      -15214.39579699 eV
  | Energy correction for multipole
  | error in Hartree potential    :           0.00000562 Ha           0.00015304 eV
  | Sum of eigenvalues per atom                           :       -4444.73455975 eV
  | Total energy (T->0) per atom                          :       -7869.84748682 eV  <-- do not rely on this value for anything but (periodic) metals
  | Electronic free energy per atom                       :       -7869.84765619 eV

  Self-consistency convergence accuracy:
  | Change of charge density      :  0.3058E-01
  | Change of sum of eigenvalues  : -0.8046E+00 eV
  | Change of total energy        :  0.4408E-02 eV

  End self-consistency iteration #     1       :  max(cpu_time)    wall_clock(cpu1)
  | Time for this iteration                    :        0.330 s           0.329 s
  | Charge density update                      :        0.079 s           0.079 s
  | Density mixing & preconditioning           :        0.012 s           0.012 s
  | Hartree multipole update                   :        0.000 s           0.000 s
  | Hartree multipole summation                :        0.083 s           0.084 s
  | Integration                                :        0.048 s           0.048 s
  | Solution of K.-S. eqns.                    :        0.106 s           0.106 s
  | Total energy evaluation                    :        0.000 s           0.000 s

  Partial memory accounting:
  | Current value for overall tracked memory usage on task 0  :           2.602 MB
  | Peak value for overall tracked memory usage on task 0     :           3.181 MB after allocating wave
  | Largest tracked array allocation on task 0 so far         :           2.500 MB  when allocating +KS_eigenvector_complex
  Note:  These values currently only include a subset of arrays which are explicitly tracked.
  The "true" memory usage will be greater.
------------------------------------------------------------

------------------------------------------------------------
          Begin self-consistency iteration #    2

  Date     :  20190514, Time     :  105003.909
------------------------------------------------------------
  Evaluating new KS density using the density matrix
  Evaluating density matrix
  Time summed over all CPUs for getting density from density matrix: real work        0.073 s, elapsed        0.073 s
  Integration grid: deviation in total charge (<rho> - N_e) =  -2.859935E-13
  Pulay mixing of updated and previous charge densities.

  Evaluating partitioned Hartree potential by multipole expansion.
  | Analytical far-field extrapolation by fixed multipoles:
  | Hartree multipole sum: apparent total charge =  -0.329029E-02
  Summing up the Hartree potential.
  Time summed over all CPUs for potential: real work        0.120 s, elapsed        0.120 s
  | RMS charge density error from multipole expansion :   0.797233E-03
  | Average real-space part of the electrostatic potential :     -0.21603400 eV

  Integrating Hamiltonian matrix: batch-based integration.
  Time summed over all CPUs for integration: real work        0.051 s, elapsed        0.051 s

  Updating Kohn-Sham eigenvalues, eigenvectors, occupation numbers, and Fermi level.
  Solving generalized eigenproblem

  Obtaining occupation numbers and chemical potential using ELSI.
  | Chemical potential (Fermi level):    -4.58467003eV
  What follows are estimated values for band gap, HOMO, LUMO, etc.
  | They are estimated on a discrete k-point grid and not necessarily exact.
  | For converged numbers, create a DOS and/or band structure plot on a denser k-grid.

  Highest occupied state (VBM) at     -4.58861042 eV (relative to internal zero)
  | Occupation number:      1.42264664
  | K-point:     164 at    0.083333    0.750000    0.916667 (in units of recip. lattice)

  Lowest unoccupied state (CBM) at    -4.58457821 eV (relative to internal zero)
  | Occupation number:      0.98963968
  | K-point:     565 at    0.416667    0.500000    0.500000 (in units of recip. lattice)

  ESTIMATED overall HOMO-LUMO gap:      0.00403220 eV between HOMO at k-point 164 and LUMO at k-point 565
  | This appears to be an indirect band gap.
  | Smallest direct gap :      0.02655894 eV for k_point 663 at    0.416667    0.500000    0.500000 (in units of recip. lattice)
  However, this system has fractional occupation numbers. Since we use a finite k-point grid,
  this material is metallic within the approximate finite broadening function (occupation_type)
  applied to determine the occupation numbers.

  Checking to see if s.c.f. parameters should be adjusted.
  Adjusted the Pulay mixing parameter (charge_mix_param) for an expected low-gap system. New value:   0.020000 .
  Adjusted the occupation broadening width for an expected low-gap system. New value:      0.05000000 eV.

  Total energy components:
  | Sum of eigenvalues            :        -163.74617588 Ha       -4455.76015225 eV
  | XC energy correction          :         -19.59055667 Ha        -533.08617019 eV
  | XC potential correction       :          25.88461283 Ha         704.35615235 eV
  | Free-atom electrostatic energy:        -132.20624289 Ha       -3597.51490860 eV
  | Hartree energy correction     :           0.44822395 Ha          12.19679417 eV
  | Entropy correction            :          -0.00006495 Ha          -0.00176734 eV
  | ---------------------------
  | Total energy                  :        -289.21013867 Ha       -7869.80828452 eV
  | Total energy, T -> 0          :        -289.21020361 Ha       -7869.81005186 eV  <-- do not rely on this value for anything but (periodic) metals
  | Electronic free energy        :        -289.21026856 Ha       -7869.81181920 eV

  Derived energy quantities:
  | Kinetic energy                :         289.29337592 Ha        7872.07328534 eV
  | Electrostatic energy          :        -558.91295791 Ha      -15208.79539967 eV
  | Energy correction for multipole
  | error in Hartree potential    :           0.00010999 Ha           0.00299295 eV
  | Sum of eigenvalues per atom                           :       -4455.76015225 eV
  | Total energy (T->0) per atom                          :       -7869.81005186 eV  <-- do not rely on this value for anything but (periodic) metals
  | Electronic free energy per atom                       :       -7869.81181920 eV

  Self-consistency convergence accuracy:
  | Change of charge density      :  0.2898E-01
  | Change of sum of eigenvalues  : -0.1103E+02 eV
  | Change of total energy        :  0.3903E-01 eV

  End self-consistency iteration #     2       :  max(cpu_time)    wall_clock(cpu1)
  | Time for this iteration                    :        0.378 s           0.378 s
  | Charge density update                      :        0.082 s           0.082 s
  | Density mixing & preconditioning           :        0.010 s           0.011 s
  | Hartree multipole update                   :        0.001 s           0.001 s
  | Hartree multipole summation                :        0.123 s           0.122 s
  | Integration                                :        0.050 s           0.051 s
  | Solution of K.-S. eqns.                    :        0.111 s           0.111 s
  | Total energy evaluation                    :        0.000 s           0.000 s

  Partial memory accounting:
  | Current value for overall tracked memory usage on task 0  :           2.603 MB
  | Peak value for overall tracked memory usage on task 0     :           3.181 MB after allocating wave
  | Largest tracked array allocation on task 0 so far         :           2.500 MB  when allocating +KS_eigenvector_complex
  Note:  These values currently only include a subset of arrays which are explicitly tracked.
  The "true" memory usage will be greater.
------------------------------------------------------------

------------------------------------------------------------
          Begin self-consistency iteration #    3

  Date     :  20190514, Time     :  105004.288
------------------------------------------------------------
  Evaluating new KS density using the density matrix
  Evaluating density matrix
  Time summed over all CPUs for getting density from density matrix: real work        0.085 s, elapsed        0.085 s
  Integration grid: deviation in total charge (<rho> - N_e) =  -1.918465E-13
  Pulay mixing of updated and previous charge densities.

  Evaluating partitioned Hartree potential by multipole expansion.
  | Analytical far-field extrapolation by fixed multipoles:
  | Hartree multipole sum: apparent total charge =  -0.514792E-02
  Summing up the Hartree potential.
  Time summed over all CPUs for potential: real work        0.147 s, elapsed        0.147 s
  | RMS charge density error from multipole expansion :   0.115979E-02
  | Average real-space part of the electrostatic potential :     -0.31396264 eV

  Integrating Hamiltonian matrix: batch-based integration.
  Time summed over all CPUs for integration: real work        0.051 s, elapsed        0.051 s

  Updating Kohn-Sham eigenvalues, eigenvectors, occupation numbers, and Fermi level.
  Solving generalized eigenproblem

  Obtaining occupation numbers and chemical potential using ELSI.
  | Chemical potential (Fermi level):    -4.69792714eV
  What follows are estimated values for band gap, HOMO, LUMO, etc.
  | They are estimated on a discrete k-point grid and not necessarily exact.
  | For converged numbers, create a DOS and/or band structure plot on a denser k-grid.

  Highest occupied state (VBM) at     -4.70192465 eV (relative to internal zero)
  | Occupation number:      1.09002241
  | K-point:     662 at    0.500000    0.416667    0.500000 (in units of recip. lattice)

  Lowest unoccupied state (CBM) at    -4.69456809 eV (relative to internal zero)
  | Occupation number:      0.92430837
  | K-point:     444 at    0.333333    0.416667    0.000000 (in units of recip. lattice)

  ESTIMATED overall HOMO-LUMO gap:      0.00735656 eV between HOMO at k-point 662 and LUMO at k-point 444
  | This appears to be an indirect band gap.
  | Smallest direct gap :      0.15904203 eV for k_point 575 at    0.333333    0.416667    0.000000 (in units of recip. lattice)
  However, this system has fractional occupation numbers. Since we use a finite k-point grid,
  this material is metallic within the approximate finite broadening function (occupation_type)
  applied to determine the occupation numbers.

  Total energy components:
  | Sum of eigenvalues            :        -163.91173384 Ha       -4460.26521358 eV
  | XC energy correction          :         -19.57703540 Ha        -532.71823765 eV
  | XC potential correction       :          25.86683703 Ha         703.87244829 eV
  | Free-atom electrostatic energy:        -132.20624289 Ha       -3597.51490860 eV
  | Hartree energy correction     :           0.61810274 Ha          16.81943123 eV
  | Entropy correction            :          -0.00006589 Ha          -0.00179305 eV
  | ---------------------------
  | Total energy                  :        -289.21007236 Ha       -7869.80648030 eV
  | Total energy, T -> 0          :        -289.21013825 Ha       -7869.80827335 eV  <-- do not rely on this value for anything but (periodic) metals
  | Electronic free energy        :        -289.21020415 Ha       -7869.81006640 eV

  Derived energy quantities:
  | Kinetic energy                :         289.22563324 Ha        7870.22991341 eV
  | Electrostatic energy          :        -558.85867020 Ha      -15207.31815606 eV
  | Energy correction for multipole
  | error in Hartree potential    :           0.00017217 Ha           0.00468489 eV
  | Sum of eigenvalues per atom                           :       -4460.26521358 eV
  | Total energy (T->0) per atom                          :       -7869.80827335 eV  <-- do not rely on this value for anything but (periodic) metals
  | Electronic free energy per atom                       :       -7869.81006640 eV

  Self-consistency convergence accuracy:
  | Change of charge density      :  0.8200E-02
  | Change of sum of eigenvalues  : -0.4505E+01 eV
  | Change of total energy        :  0.1804E-02 eV

  End self-consistency iteration #     3       :  max(cpu_time)    wall_clock(cpu1)
  | Time for this iteration                    :        0.429 s           0.428 s
  | Charge density update                      :        0.095 s           0.094 s
  | Density mixing & preconditioning           :        0.015 s           0.016 s
  | Hartree multipole update                   :        0.000 s           0.000 s
  | Hartree multipole summation                :        0.149 s           0.149 s
  | Integration                                :        0.051 s           0.051 s
  | Solution of K.-S. eqns.                    :        0.117 s           0.117 s
  | Total energy evaluation                    :        0.000 s           0.000 s

  Partial memory accounting:
  | Current value for overall tracked memory usage on task 0  :           2.603 MB
  | Peak value for overall tracked memory usage on task 0     :           3.181 MB after allocating wave
  | Largest tracked array allocation on task 0 so far         :           2.500 MB  when allocating +KS_eigenvector_complex
  Note:  These values currently only include a subset of arrays which are explicitly tracked.
  The "true" memory usage will be greater.
------------------------------------------------------------

------------------------------------------------------------
          Begin self-consistency iteration #    4

  Date     :  20190514, Time     :  105004.716
------------------------------------------------------------
  Evaluating new KS density using the density matrix
  Evaluating density matrix
  Time summed over all CPUs for getting density from density matrix: real work        0.086 s, elapsed        0.086 s
  Integration grid: deviation in total charge (<rho> - N_e) =  -3.232969E-13
  Pulay mixing of updated and previous charge densities.

  Evaluating partitioned Hartree potential by multipole expansion.
  | Analytical far-field extrapolation by fixed multipoles:
  | Hartree multipole sum: apparent total charge =  -0.522681E-02
  Summing up the Hartree potential.
  Time summed over all CPUs for potential: real work        0.147 s, elapsed        0.147 s
  | RMS charge density error from multipole expansion :   0.108708E-02
  | Average real-space part of the electrostatic potential :     -0.29122968 eV

  Integrating Hamiltonian matrix: batch-based integration.
  Time summed over all CPUs for integration: real work        0.068 s, elapsed        0.068 s

  Updating Kohn-Sham eigenvalues, eigenvectors, occupation numbers, and Fermi level.
  Solving generalized eigenproblem

  Obtaining occupation numbers and chemical potential using ELSI.
  | Chemical potential (Fermi level):    -4.65138692eV
  What follows are estimated values for band gap, HOMO, LUMO, etc.
  | They are estimated on a discrete k-point grid and not necessarily exact.
  | For converged numbers, create a DOS and/or band structure plot on a denser k-grid.

  Highest occupied state (VBM) at     -4.65354340 eV (relative to internal zero)
  | Occupation number:      1.04863632
  | K-point:     662 at    0.500000    0.416667    0.500000 (in units of recip. lattice)

  Lowest unoccupied state (CBM) at    -4.64895743 eV (relative to internal zero)
  | Occupation number:      0.94521534
  | K-point:     762 at    0.750000    0.000000    0.583333 (in units of recip. lattice)

  ESTIMATED overall HOMO-LUMO gap:      0.00458597 eV between HOMO at k-point 662 and LUMO at k-point 762
  | This appears to be an indirect band gap.
  | Smallest direct gap :      0.16140154 eV for k_point 575 at    0.750000    0.000000    0.583333 (in units of recip. lattice)
  However, this system has fractional occupation numbers. Since we use a finite k-point grid,
  this material is metallic within the approximate finite broadening function (occupation_type)
  applied to determine the occupation numbers.

  Total energy components:
  | Sum of eigenvalues            :        -163.78112570 Ha       -4456.71118538 eV
  | XC energy correction          :         -19.58956241 Ha        -533.05911500 eV
  | XC potential correction       :          25.88341267 Ha         704.32349432 eV
  | Free-atom electrostatic energy:        -132.20624289 Ha       -3597.51490860 eV
  | Hartree energy correction     :           0.48347314 Ha          13.15597342 eV
  | Entropy correction            :          -0.00006524 Ha          -0.00177533 eV
  | ---------------------------
  | Total energy                  :        -289.21004520 Ha       -7869.80574123 eV
  | Total energy, T -> 0          :        -289.21011044 Ha       -7869.80751656 eV  <-- do not rely on this value for anything but (periodic) metals
  | Electronic free energy        :        -289.21017569 Ha       -7869.80929190 eV

  Derived energy quantities:
  | Kinetic energy                :         289.39067324 Ha        7874.72088030 eV
  | Electrostatic energy          :        -559.01115603 Ha      -15211.46750654 eV
  | Energy correction for multipole
  | error in Hartree potential    :           0.00017186 Ha           0.00467661 eV
  | Sum of eigenvalues per atom                           :       -4456.71118538 eV
  | Total energy (T->0) per atom                          :       -7869.80751656 eV  <-- do not rely on this value for anything but (periodic) metals
  | Electronic free energy per atom                       :       -7869.80929190 eV

  Self-consistency convergence accuracy:
  | Change of charge density      :  0.1017E-01
  | Change of sum of eigenvalues  :  0.3554E+01 eV
  | Change of total energy        :  0.7391E-03 eV

  End self-consistency iteration #     4       :  max(cpu_time)    wall_clock(cpu1)
  | Time for this iteration                    :        0.449 s           0.449 s
  | Charge density update                      :        0.099 s           0.100 s
  | Density mixing & preconditioning           :        0.014 s           0.014 s
  | Hartree multipole update                   :        0.000 s           0.000 s
  | Hartree multipole summation                :        0.149 s           0.149 s
  | Integration                                :        0.068 s           0.068 s
  | Solution of K.-S. eqns.                    :        0.118 s           0.118 s
  | Total energy evaluation                    :        0.000 s           0.000 s

  Partial memory accounting:
  | Current value for overall tracked memory usage on task 0  :           2.603 MB
  | Peak value for overall tracked memory usage on task 0     :           3.181 MB after allocating wave
  | Largest tracked array allocation on task 0 so far         :           2.500 MB  when allocating +KS_eigenvector_complex
  Note:  These values currently only include a subset of arrays which are explicitly tracked.
  The "true" memory usage will be greater.
------------------------------------------------------------

------------------------------------------------------------
          Begin self-consistency iteration #    5

  Date     :  20190514, Time     :  105005.165
------------------------------------------------------------
  Evaluating new KS density using the density matrix
  Evaluating density matrix
  Time summed over all CPUs for getting density from density matrix: real work        0.067 s, elapsed        0.067 s
  Integration grid: deviation in total charge (<rho> - N_e) =  -3.588241E-13
  Pulay mixing of updated and previous charge densities.

  Evaluating partitioned Hartree potential by multipole expansion.
  | Analytical far-field extrapolation by fixed multipoles:
  | Hartree multipole sum: apparent total charge =  -0.526509E-02
  Summing up the Hartree potential.
  Time summed over all CPUs for potential: real work        0.117 s, elapsed        0.117 s
  | RMS charge density error from multipole expansion :   0.110579E-02
  | Average real-space part of the electrostatic potential :     -0.29643964 eV

  Integrating Hamiltonian matrix: batch-based integration.
  Time summed over all CPUs for integration: real work        0.048 s, elapsed        0.048 s

  Updating Kohn-Sham eigenvalues, eigenvectors, occupation numbers, and Fermi level.
  Solving generalized eigenproblem

  Obtaining occupation numbers and chemical potential using ELSI.
  | Chemical potential (Fermi level):    -4.65690123eV
  What follows are estimated values for band gap, HOMO, LUMO, etc.
  | They are estimated on a discrete k-point grid and not necessarily exact.
  | For converged numbers, create a DOS and/or band structure plot on a denser k-grid.

  Highest occupied state (VBM) at     -4.65917271 eV (relative to internal zero)
  | Occupation number:      1.05122661
  | K-point:     662 at    0.500000    0.416667    0.500000 (in units of recip. lattice)

  Lowest unoccupied state (CBM) at    -4.65438487 eV (relative to internal zero)
  | Occupation number:      0.94325963
  | K-point:     762 at    0.750000    0.000000    0.583333 (in units of recip. lattice)

  ESTIMATED overall HOMO-LUMO gap:      0.00478785 eV between HOMO at k-point 662 and LUMO at k-point 762
  | This appears to be an indirect band gap.
  | Smallest direct gap :      0.16123111 eV for k_point 575 at    0.750000    0.000000    0.583333 (in units of recip. lattice)
  However, this system has fractional occupation numbers. Since we use a finite k-point grid,
  this material is metallic within the approximate finite broadening function (occupation_type)
  applied to determine the occupation numbers.

  Total energy components:
  | Sum of eigenvalues            :        -163.78841874 Ha       -4456.90963887 eV
  | XC energy correction          :         -19.58896860 Ha        -533.04295640 eV
  | XC potential correction       :          25.88263326 Ha         704.30228556 eV
  | Free-atom electrostatic energy:        -132.20624289 Ha       -3597.51490860 eV
  | Hartree energy correction     :           0.49095455 Ha          13.35955315 eV
  | Entropy correction            :          -0.00006528 Ha          -0.00177635 eV
  | ---------------------------
  | Total energy                  :        -289.21004241 Ha       -7869.80566516 eV
  | Total energy, T -> 0          :        -289.21010768 Ha       -7869.80744150 eV  <-- do not rely on this value for anything but (periodic) metals
  | Electronic free energy        :        -289.21017296 Ha       -7869.80921785 eV

  Derived energy quantities:
  | Kinetic energy                :         289.38877440 Ha        7874.66921010 eV
  | Electrostatic energy          :        -559.00984821 Ha      -15211.43191885 eV
  | Energy correction for multipole
  | error in Hartree potential    :           0.00017555 Ha           0.00477699 eV
  | Sum of eigenvalues per atom                           :       -4456.90963887 eV
  | Total energy (T->0) per atom                          :       -7869.80744150 eV  <-- do not rely on this value for anything but (periodic) metals
  | Electronic free energy per atom                       :       -7869.80921785 eV

  Self-consistency convergence accuracy:
  | Change of charge density      :  0.2572E-02
  | Change of sum of eigenvalues  : -0.1985E+00 eV
  | Change of total energy        :  0.7608E-04 eV

  End self-consistency iteration #     5       :  max(cpu_time)    wall_clock(cpu1)
  | Time for this iteration                    :        0.362 s           0.362 s
  | Charge density update                      :        0.078 s           0.078 s
  | Density mixing & preconditioning           :        0.012 s           0.012 s
  | Hartree multipole update                   :        0.001 s           0.001 s
  | Hartree multipole summation                :        0.119 s           0.119 s
  | Integration                                :        0.048 s           0.048 s
  | Solution of K.-S. eqns.                    :        0.104 s           0.104 s
  | Total energy evaluation                    :        0.000 s           0.000 s

  Partial memory accounting:
  | Current value for overall tracked memory usage on task 0  :           2.604 MB
  | Peak value for overall tracked memory usage on task 0     :           3.181 MB after allocating wave
  | Largest tracked array allocation on task 0 so far         :           2.500 MB  when allocating +KS_eigenvector_complex
  Note:  These values currently only include a subset of arrays which are explicitly tracked.
  The "true" memory usage will be greater.
------------------------------------------------------------

------------------------------------------------------------
          Begin self-consistency iteration #    6

  Date     :  20190514, Time     :  105005.527
------------------------------------------------------------
  Evaluating new KS density using the density matrix
  Evaluating density matrix
  Time summed over all CPUs for getting density from density matrix: real work        0.071 s, elapsed        0.071 s
  Integration grid: deviation in total charge (<rho> - N_e) =  -3.659295E-13
  Pulay mixing of updated and previous charge densities.

  Evaluating partitioned Hartree potential by multipole expansion.
  | Analytical far-field extrapolation by fixed multipoles:
  | Hartree multipole sum: apparent total charge =  -0.118040E-02
  Summing up the Hartree potential.
  Time summed over all CPUs for potential: real work        0.130 s, elapsed        0.130 s
  | RMS charge density error from multipole expansion :   0.112281E-02
  | Average real-space part of the electrostatic potential :     -0.31637652 eV

  Integrating Hamiltonian matrix: batch-based integration.
  Time summed over all CPUs for integration: real work        0.054 s, elapsed        0.054 s

  Updating Kohn-Sham eigenvalues, eigenvectors, occupation numbers, and Fermi level.
  Solving generalized eigenproblem

  Obtaining occupation numbers and chemical potential using ELSI.
  | Chemical potential (Fermi level):    -4.66034160eV
  What follows are estimated values for band gap, HOMO, LUMO, etc.
  | They are estimated on a discrete k-point grid and not necessarily exact.
  | For converged numbers, create a DOS and/or band structure plot on a denser k-grid.

  Highest occupied state (VBM) at     -4.66275155 eV (relative to internal zero)
  | Occupation number:      1.05434461
  | K-point:     565 at    0.416667    0.500000    0.500000 (in units of recip. lattice)

  Lowest unoccupied state (CBM) at    -4.65770078 eV (relative to internal zero)
  | Occupation number:      0.94045840
  | K-point:      47 at    0.000000    0.416667    0.333333 (in units of recip. lattice)

  ESTIMATED overall HOMO-LUMO gap:      0.00505077 eV between HOMO at k-point 565 and LUMO at k-point 47
  | This appears to be an indirect band gap.
  | Smallest direct gap :      0.16110784 eV for k_point 557 at    0.000000    0.416667    0.333333 (in units of recip. lattice)
  However, this system has fractional occupation numbers. Since we use a finite k-point grid,
  this material is metallic within the approximate finite broadening function (occupation_type)
  applied to determine the occupation numbers.

  Total energy components:
  | Sum of eigenvalues            :        -163.80214178 Ha       -4457.28306186 eV
  | XC energy correction          :         -19.58596470 Ha        -532.96121627 eV
  | XC potential correction       :          25.87867837 Ha         704.19466750 eV
  | Free-atom electrostatic energy:        -132.20624289 Ha       -3597.51490860 eV
  | Hartree energy correction     :           0.50563083 Ha          13.75891487 eV
  | Entropy correction            :          -0.00006530 Ha          -0.00177698 eV
  | ---------------------------
  | Total energy                  :        -289.21004017 Ha       -7869.80560436 eV
  | Total energy, T -> 0          :        -289.21010547 Ha       -7869.80738134 eV  <-- do not rely on this value for anything but (periodic) metals
  | Electronic free energy        :        -289.21017078 Ha       -7869.80915833 eV

  Derived energy quantities:
  | Kinetic energy                :         289.35812787 Ha        7873.83527570 eV
  | Electrostatic energy          :        -558.98220334 Ha      -15210.67966379 eV
  | Energy correction for multipole
  | error in Hartree potential    :           0.00019218 Ha           0.00522954 eV
  | Sum of eigenvalues per atom                           :       -4457.28306186 eV
  | Total energy (T->0) per atom                          :       -7869.80738134 eV  <-- do not rely on this value for anything but (periodic) metals
  | Electronic free energy per atom                       :       -7869.80915833 eV

  Self-consistency convergence accuracy:
  | Change of charge density      :  0.2290E-02
  | Change of sum of eigenvalues  : -0.3734E+00 eV
  | Change of total energy        :  0.6079E-04 eV

  End self-consistency iteration #     6       :  max(cpu_time)    wall_clock(cpu1)
  | Time for this iteration                    :        0.388 s           0.388 s
  | Charge density update                      :        0.080 s           0.081 s
  | Density mixing & preconditioning           :        0.013 s           0.012 s
  | Hartree multipole update                   :        0.000 s           0.001 s
  | Hartree multipole summation                :        0.132 s           0.132 s
  | Integration                                :        0.054 s           0.054 s
  | Solution of K.-S. eqns.                    :        0.108 s           0.108 s
  | Total energy evaluation                    :        0.000 s           0.000 s

  Partial memory accounting:
  | Current value for overall tracked memory usage on task 0  :           2.604 MB
  | Peak value for overall tracked memory usage on task 0     :           3.181 MB after allocating wave
  | Largest tracked array allocation on task 0 so far         :           2.500 MB  when allocating +KS_eigenvector_complex
  Note:  These values currently only include a subset of arrays which are explicitly tracked.
  The "true" memory usage will be greater.
------------------------------------------------------------

------------------------------------------------------------
          Begin self-consistency iteration #    7

  Date     :  20190514, Time     :  105005.915
------------------------------------------------------------
  Evaluating new KS density using the density matrix
  Evaluating density matrix
  Time summed over all CPUs for getting density from density matrix: real work        0.071 s, elapsed        0.071 s
  Integration grid: deviation in total charge (<rho> - N_e) =  -3.606004E-13
  Pulay mixing of updated and previous charge densities.

  Evaluating partitioned Hartree potential by multipole expansion.
  | Analytical far-field extrapolation by fixed multipoles:
  | Hartree multipole sum: apparent total charge =  -0.193464E-02
  Summing up the Hartree potential.
  Time summed over all CPUs for potential: real work        0.115 s, elapsed        0.115 s
  | RMS charge density error from multipole expansion :   0.115349E-02
  | Average real-space part of the electrostatic potential :     -0.32298769 eV

  Integrating Hamiltonian matrix: batch-based integration.
  Time summed over all CPUs for integration: real work        0.049 s, elapsed        0.049 s

  Updating Kohn-Sham eigenvalues, eigenvectors, occupation numbers, and Fermi level.
  Solving generalized eigenproblem

  Obtaining occupation numbers and chemical potential using ELSI.
  | Chemical potential (Fermi level):    -4.67152338eV
  What follows are estimated values for band gap, HOMO, LUMO, etc.
  | They are estimated on a discrete k-point grid and not necessarily exact.
  | For converged numbers, create a DOS and/or band structure plot on a denser k-grid.

  Highest occupied state (VBM) at     -4.67420263 eV (relative to internal zero)
  | Occupation number:      1.06040627
  | K-point:     565 at    0.416667    0.500000    0.500000 (in units of recip. lattice)

  Lowest unoccupied state (CBM) at    -4.66870949 eV (relative to internal zero)
  | Occupation number:      0.93656413
  | K-point:      47 at    0.000000    0.416667    0.333333 (in units of recip. lattice)

  ESTIMATED overall HOMO-LUMO gap:      0.00549314 eV between HOMO at k-point 565 and LUMO at k-point 47
  | This appears to be an indirect band gap.
  | Smallest direct gap :      0.16071402 eV for k_point 557 at    0.000000    0.416667    0.333333 (in units of recip. lattice)
  However, this system has fractional occupation numbers. Since we use a finite k-point grid,
  this material is metallic within the approximate finite broadening function (occupation_type)
  applied to determine the occupation numbers.

  Total energy components:
  | Sum of eigenvalues            :        -163.81857087 Ha       -4457.73012018 eV
  | XC energy correction          :         -19.58487670 Ha        -532.93161015 eV
  | XC potential correction       :          25.87724634 Ha         704.15570001 eV
  | Free-atom electrostatic energy:        -132.20624289 Ha       -3597.51490860 eV
  | Hartree energy correction     :           0.52240536 Ha          14.21537319 eV
  | Entropy correction            :          -0.00006540 Ha          -0.00177954 eV
  | ---------------------------
  | Total energy                  :        -289.21003875 Ha       -7869.80556572 eV
  | Total energy, T -> 0          :        -289.21010415 Ha       -7869.80734526 eV  <-- do not rely on this value for anything but (periodic) metals
  | Electronic free energy        :        -289.21016955 Ha       -7869.80912480 eV

  Derived energy quantities:
  | Kinetic energy                :         289.35261166 Ha        7873.68517204 eV
  | Electrostatic energy          :        -558.97777372 Ha      -15210.55912761 eV
  | Energy correction for multipole
  | error in Hartree potential    :           0.00019560 Ha           0.00532244 eV
  | Sum of eigenvalues per atom                           :       -4457.73012018 eV
  | Total energy (T->0) per atom                          :       -7869.80734526 eV  <-- do not rely on this value for anything but (periodic) metals
  | Electronic free energy per atom                       :       -7869.80912480 eV

  Self-consistency convergence accuracy:
  | Change of charge density      :  0.4881E-03
  | Change of sum of eigenvalues  : -0.4471E+00 eV
  | Change of total energy        :  0.3864E-04 eV

  End self-consistency iteration #     7       :  max(cpu_time)    wall_clock(cpu1)
  | Time for this iteration                    :        0.368 s           0.368 s
  | Charge density update                      :        0.082 s           0.082 s
  | Density mixing & preconditioning           :        0.013 s           0.012 s
  | Hartree multipole update                   :        0.000 s           0.001 s
  | Hartree multipole summation                :        0.117 s           0.117 s
  | Integration                                :        0.049 s           0.049 s
  | Solution of K.-S. eqns.                    :        0.107 s           0.107 s
  | Total energy evaluation                    :        0.000 s           0.000 s

  Partial memory accounting:
  | Current value for overall tracked memory usage on task 0  :           2.604 MB
  | Peak value for overall tracked memory usage on task 0     :           3.181 MB after allocating wave
  | Largest tracked array allocation on task 0 so far         :           2.500 MB  when allocating +KS_eigenvector_complex
  Note:  These values currently only include a subset of arrays which are explicitly tracked.
  The "true" memory usage will be greater.
------------------------------------------------------------

------------------------------------------------------------
          Begin self-consistency iteration #    8

  Date     :  20190514, Time     :  105006.283
------------------------------------------------------------
  Evaluating new KS density using the density matrix
  Evaluating density matrix
  Time summed over all CPUs for getting density from density matrix: real work        0.069 s, elapsed        0.069 s
  Integration grid: deviation in total charge (<rho> - N_e) =  -2.007283E-13
  Pulay mixing of updated and previous charge densities.

  Evaluating partitioned Hartree potential by multipole expansion.
  | Analytical far-field extrapolation by fixed multipoles:
  | Hartree multipole sum: apparent total charge =   0.309125E-03
  Summing up the Hartree potential.
  Time summed over all CPUs for potential: real work        0.117 s, elapsed        0.117 s
  | RMS charge density error from multipole expansion :   0.113300E-02
  | Average real-space part of the electrostatic potential :     -0.32392337 eV

  Integrating Hamiltonian matrix: batch-based integration.
  Time summed over all CPUs for integration: real work        0.049 s, elapsed        0.049 s

  Updating Kohn-Sham eigenvalues, eigenvectors, occupation numbers, and Fermi level.
  Solving generalized eigenproblem

  Obtaining occupation numbers and chemical potential using ELSI.
  | Chemical potential (Fermi level):    -4.66487983eV
  What follows are estimated values for band gap, HOMO, LUMO, etc.
  | They are estimated on a discrete k-point grid and not necessarily exact.
  | For converged numbers, create a DOS and/or band structure plot on a denser k-grid.

  Highest occupied state (VBM) at     -4.66746539 eV (relative to internal zero)
  | Occupation number:      1.05829772
  | K-point:     566 at    0.416667    0.500000    0.583333 (in units of recip. lattice)

  Lowest unoccupied state (CBM) at    -4.66215198 eV (relative to internal zero)
  | Occupation number:      0.93850002
  | K-point:     444 at    0.333333    0.416667    0.000000 (in units of recip. lattice)

  ESTIMATED overall HOMO-LUMO gap:      0.00531340 eV between HOMO at k-point 566 and LUMO at k-point 444
  | This appears to be an indirect band gap.
  | Smallest direct gap :      0.16086641 eV for k_point 575 at    0.333333    0.416667    0.000000 (in units of recip. lattice)
  However, this system has fractional occupation numbers. Since we use a finite k-point grid,
  this material is metallic within the approximate finite broadening function (occupation_type)
  applied to determine the occupation numbers.

  Total energy components:
  | Sum of eigenvalues            :        -163.80837283 Ha       -4457.45261748 eV
  | XC energy correction          :         -19.58521561 Ha        -532.94083241 eV
  | XC potential correction       :          25.87770003 Ha         704.16804537 eV
  | Free-atom electrostatic energy:        -132.20624289 Ha       -3597.51490860 eV
  | Hartree energy correction     :           0.51209185 Ha          13.93472819 eV
  | Entropy correction            :          -0.00006537 Ha          -0.00177880 eV
  | ---------------------------
  | Total energy                  :        -289.21003946 Ha       -7869.80558492 eV
  | Total energy, T -> 0          :        -289.21010483 Ha       -7869.80736372 eV  <-- do not rely on this value for anything but (periodic) metals
  | Electronic free energy        :        -289.21017020 Ha       -7869.80914251 eV

  Derived energy quantities:
  | Kinetic energy                :         289.35779557 Ha        7873.82623326 eV
  | Electrostatic energy          :        -558.98261942 Ha      -15210.69098577 eV
  | Energy correction for multipole
  | error in Hartree potential    :           0.00019398 Ha           0.00527840 eV
  | Sum of eigenvalues per atom                           :       -4457.45261748 eV
  | Total energy (T->0) per atom                          :       -7869.80736372 eV  <-- do not rely on this value for anything but (periodic) metals
  | Electronic free energy per atom                       :       -7869.80914251 eV

  Self-consistency convergence accuracy:
  | Change of charge density      :  0.6744E-03
  | Change of sum of eigenvalues  :  0.2775E+00 eV
  | Change of total energy        : -0.1920E-04 eV

  End self-consistency iteration #     8       :  max(cpu_time)    wall_clock(cpu1)
  | Time for this iteration                    :        0.364 s           0.365 s
  | Charge density update                      :        0.079 s           0.080 s
  | Density mixing & preconditioning           :        0.011 s           0.011 s
  | Hartree multipole update                   :        0.000 s           0.000 s
  | Hartree multipole summation                :        0.119 s           0.119 s
  | Integration                                :        0.049 s           0.049 s
  | Solution of K.-S. eqns.                    :        0.105 s           0.105 s
  | Total energy evaluation                    :        0.000 s           0.001 s

  Partial memory accounting:
  | Current value for overall tracked memory usage on task 0  :           2.605 MB
  | Peak value for overall tracked memory usage on task 0     :           3.181 MB after allocating wave
  | Largest tracked array allocation on task 0 so far         :           2.500 MB  when allocating +KS_eigenvector_complex
  Note:  These values currently only include a subset of arrays which are explicitly tracked.
  The "true" memory usage will be greater.
------------------------------------------------------------

------------------------------------------------------------
          Begin self-consistency iteration #    9

  Date     :  20190514, Time     :  105006.648
------------------------------------------------------------
  Evaluating new KS density using the density matrix
  Evaluating density matrix
  Time summed over all CPUs for getting density from density matrix: real work        0.069 s, elapsed        0.069 s
  Integration grid: deviation in total charge (<rho> - N_e) =  -3.286260E-13
  Pulay mixing of updated and previous charge densities.

  Evaluating partitioned Hartree potential by multipole expansion.
  | Analytical far-field extrapolation by fixed multipoles:
  | Hartree multipole sum: apparent total charge =   0.305076E-03
  Summing up the Hartree potential.
  Time summed over all CPUs for potential: real work        0.126 s, elapsed        0.126 s
  | RMS charge density error from multipole expansion :   0.113327E-02
  | Average real-space part of the electrostatic potential :     -0.32398585 eV

  Integrating Hamiltonian matrix: batch-based integration.
  Time summed over all CPUs for integration: real work        0.051 s, elapsed        0.051 s

  Updating Kohn-Sham eigenvalues, eigenvectors, occupation numbers, and Fermi level.
  Solving generalized eigenproblem

  Obtaining occupation numbers and chemical potential using ELSI.
  | Chemical potential (Fermi level):    -4.66494981eV
  What follows are estimated values for band gap, HOMO, LUMO, etc.
  | They are estimated on a discrete k-point grid and not necessarily exact.
  | For converged numbers, create a DOS and/or band structure plot on a denser k-grid.

  Highest occupied state (VBM) at     -4.66753649 eV (relative to internal zero)
  | Occupation number:      1.05832319
  | K-point:     566 at    0.416667    0.500000    0.583333 (in units of recip. lattice)

  Lowest unoccupied state (CBM) at    -4.66222097 eV (relative to internal zero)
  | Occupation number:      0.93847777
  | K-point:     545 at    0.416667    0.333333    0.250000 (in units of recip. lattice)

  ESTIMATED overall HOMO-LUMO gap:      0.00531553 eV between HOMO at k-point 566 and LUMO at k-point 545
  | This appears to be an indirect band gap.
  | Smallest direct gap :      0.16086465 eV for k_point 575 at    0.416667    0.333333    0.250000 (in units of recip. lattice)
  However, this system has fractional occupation numbers. Since we use a finite k-point grid,
  this material is metallic within the approximate finite broadening function (occupation_type)
  applied to determine the occupation numbers.

  Total energy components:
  | Sum of eigenvalues            :        -163.80844563 Ha       -4457.45459844 eV
  | XC energy correction          :         -19.58521081 Ha        -532.94070187 eV
  | XC potential correction       :          25.87769375 Ha         704.16787468 eV
  | Free-atom electrostatic energy:        -132.20624289 Ha       -3597.51490860 eV
  | Hartree energy correction     :           0.51216613 Ha          13.93674961 eV
  | Entropy correction            :          -0.00006537 Ha          -0.00177881 eV
  | ---------------------------
  | Total energy                  :        -289.21003945 Ha       -7869.80558462 eV
  | Total energy, T -> 0          :        -289.21010482 Ha       -7869.80736342 eV  <-- do not rely on this value for anything but (periodic) metals
  | Electronic free energy        :        -289.21017019 Ha       -7869.80914223 eV

  Derived energy quantities:
  | Kinetic energy                :         289.35780601 Ha        7873.82651733 eV
  | Electrostatic energy          :        -558.98263464 Ha      -15210.69140008 eV
  | Energy correction for multipole
  | error in Hartree potential    :           0.00019404 Ha           0.00527996 eV
  | Sum of eigenvalues per atom                           :       -4457.45459844 eV
[...]
  | Hartree multipole update                   :        0.001 s           0.002 s
  | Hartree multipole summation                :        0.118 s           0.117 s
  | Integration                                :        0.046 s           0.046 s
  | Solution of K.-S. eqns.                    :        0.105 s           0.105 s
  | Total energy evaluation                    :        0.000 s           0.000 s

  Partial memory accounting:
  | Current value for overall tracked memory usage on task 0  :           2.605 MB
  | Peak value for overall tracked memory usage on task 0     :           3.181 MB after allocating wave
  | Largest tracked array allocation on task 0 so far         :           2.500 MB  when allocating +KS_eigenvector_complex
  Note:  These values currently only include a subset of arrays which are explicitly tracked.
  The "true" memory usage will be greater.
------------------------------------------------------------

------------------------------------------------------------
          Begin self-consistency iteration #   12

  Date     :  20190514, Time     :  105007.754
------------------------------------------------------------
  Evaluating new KS density using the density matrix
  Evaluating density matrix
  Time summed over all CPUs for getting density from density matrix: real work        0.070 s, elapsed        0.070 s
  Integration grid: deviation in total charge (<rho> - N_e) =  -2.504663E-13
  Pulay mixing of updated and previous charge densities.

  Evaluating partitioned Hartree potential by multipole expansion.
  | Analytical far-field extrapolation by fixed multipoles:
  | Hartree multipole sum: apparent total charge =   0.250031E-03
  Summing up the Hartree potential.
  Time summed over all CPUs for potential: real work        0.119 s, elapsed        0.119 s
  | RMS charge density error from multipole expansion :   0.113150E-02
  | Average real-space part of the electrostatic potential :     -0.32330044 eV

  Integrating Hamiltonian matrix: batch-based integration.
  Time summed over all CPUs for integration: real work        0.050 s, elapsed        0.050 s

  Updating Kohn-Sham eigenvalues, eigenvectors, occupation numbers, and Fermi level.
  Solving generalized eigenproblem

  Obtaining occupation numbers and chemical potential using ELSI.
  | Chemical potential (Fermi level):    -4.66425149eV
  What follows are estimated values for band gap, HOMO, LUMO, etc.
  | They are estimated on a discrete k-point grid and not necessarily exact.
  | For converged numbers, create a DOS and/or band structure plot on a denser k-grid.

  Highest occupied state (VBM) at     -4.66681687 eV (relative to internal zero)
  | Occupation number:      1.05784352
  | K-point:     662 at    0.500000    0.416667    0.500000 (in units of recip. lattice)

  Lowest unoccupied state (CBM) at    -4.66153558 eV (relative to internal zero)
  | Occupation number:      0.93876873
  | K-point:     537 at    0.416667    0.250000    0.333333 (in units of recip. lattice)

  ESTIMATED overall HOMO-LUMO gap:      0.00528128 eV between HOMO at k-point 662 and LUMO at k-point 537
  | This appears to be an indirect band gap.
  | Smallest direct gap :      0.16089476 eV for k_point 575 at    0.416667    0.250000    0.333333 (in units of recip. lattice)
  However, this system has fractional occupation numbers. Since we use a finite k-point grid,
  this material is metallic within the approximate finite broadening function (occupation_type)
  applied to determine the occupation numbers.

  Total energy components:
  | Sum of eigenvalues            :        -163.80718652 Ha       -4457.42033614 eV
  | XC energy correction          :         -19.58532637 Ha        -532.94384639 eV
  | XC potential correction       :          25.87784577 Ha         704.17201118 eV
  | Free-atom electrostatic energy:        -132.20624289 Ha       -3597.51490860 eV
  | Hartree energy correction     :           0.51087045 Ha          13.90149223 eV
  | Entropy correction            :          -0.00006536 Ha          -0.00177860 eV
  | ---------------------------
  | Total energy                  :        -289.21003956 Ha       -7869.80558771 eV
  | Total energy, T -> 0          :        -289.21010492 Ha       -7869.80736631 eV  <-- do not rely on this value for anything but (periodic) metals
  | Electronic free energy        :        -289.21017028 Ha       -7869.80914491 eV

  Derived energy quantities:
  | Kinetic energy                :         289.35851917 Ha        7873.84592355 eV
  | Electrostatic energy          :        -558.98323236 Ha      -15210.70766487 eV
  | Energy correction for multipole
  | error in Hartree potential    :           0.00019382 Ha           0.00527420 eV
  | Sum of eigenvalues per atom                           :       -4457.42033614 eV
  | Total energy (T->0) per atom                          :       -7869.80736631 eV  <-- do not rely on this value for anything but (periodic) metals
  | Electronic free energy per atom                       :       -7869.80914491 eV

  Self-consistency convergence accuracy:
  | Change of charge density      :  0.6372E-05
  | Change of sum of eigenvalues  : -0.2746E-02 eV
  | Change of total energy        :  0.2431E-06 eV

  End self-consistency iteration #    12       :  max(cpu_time)    wall_clock(cpu1)
  | Time for this iteration                    :        0.377 s           0.377 s
  | Charge density update                      :        0.079 s           0.080 s
  | Density mixing & preconditioning           :        0.012 s           0.011 s
  | Hartree multipole update                   :        0.000 s           0.001 s
  | Hartree multipole summation                :        0.120 s           0.120 s
  | Integration                                :        0.050 s           0.050 s
  | Solution of K.-S. eqns.                    :        0.114 s           0.115 s
  | Total energy evaluation                    :        0.000 s           0.000 s

  Partial memory accounting:
  | Current value for overall tracked memory usage on task 0  :           2.605 MB
  | Peak value for overall tracked memory usage on task 0     :           3.181 MB after allocating wave
  | Largest tracked array allocation on task 0 so far         :           2.500 MB  when allocating +KS_eigenvector_complex
  Note:  These values currently only include a subset of arrays which are explicitly tracked.
  The "true" memory usage will be greater.
------------------------------------------------------------

------------------------------------------------------------
          Begin self-consistency iteration #   13

  Date     :  20190514, Time     :  105008.131
------------------------------------------------------------
  Evaluating new KS density using the density matrix
  Evaluating density matrix
  Time summed over all CPUs for getting density from density matrix: real work        0.071 s, elapsed        0.071 s
  Integration grid: deviation in total charge (<rho> - N_e) =  -3.232969E-13
  Pulay mixing of updated and previous charge densities.

  Evaluating partitioned Hartree potential by multipole expansion.
  | Analytical far-field extrapolation by fixed multipoles:
  | Hartree multipole sum: apparent total charge =   0.250053E-03
  Summing up the Hartree potential.
  Time summed over all CPUs for potential: real work        0.116 s, elapsed        0.116 s
  | RMS charge density error from multipole expansion :   0.113150E-02
  | Average real-space part of the electrostatic potential :     -0.32330121 eV

  Integrating Hamiltonian matrix: batch-based integration.
  Time summed over all CPUs for integration: real work        0.049 s, elapsed        0.049 s

  Updating Kohn-Sham eigenvalues, eigenvectors, occupation numbers, and Fermi level.
  Solving generalized eigenproblem

  Obtaining occupation numbers and chemical potential using ELSI.
  | Chemical potential (Fermi level):    -4.66425241eV
  What follows are estimated values for band gap, HOMO, LUMO, etc.
  | They are estimated on a discrete k-point grid and not necessarily exact.
  | For converged numbers, create a DOS and/or band structure plot on a denser k-grid.

  Highest occupied state (VBM) at     -4.66681781 eV (relative to internal zero)
  | Occupation number:      1.05784429
  | K-point:     662 at    0.500000    0.416667    0.500000 (in units of recip. lattice)

  Lowest unoccupied state (CBM) at    -4.66153646 eV (relative to internal zero)
  | Occupation number:      0.93876791
  | K-point:     762 at    0.750000    0.000000    0.583333 (in units of recip. lattice)

  ESTIMATED overall HOMO-LUMO gap:      0.00528135 eV between HOMO at k-point 662 and LUMO at k-point 762
  | This appears to be an indirect band gap.
  | Smallest direct gap :      0.16089480 eV for k_point 575 at    0.750000    0.000000    0.583333 (in units of recip. lattice)
  However, this system has fractional occupation numbers. Since we use a finite k-point grid,
  this material is metallic within the approximate finite broadening function (occupation_type)
  applied to determine the occupation numbers.

  Total energy components:
  | Sum of eigenvalues            :        -163.80718814 Ha       -4457.42038043 eV
  | XC energy correction          :         -19.58532621 Ha        -532.94384214 eV
  | XC potential correction       :          25.87784556 Ha         704.17200559 eV
  | Free-atom electrostatic energy:        -132.20624289 Ha       -3597.51490860 eV
  | Hartree energy correction     :           0.51087213 Ha          13.90153787 eV
  | Entropy correction            :          -0.00006536 Ha          -0.00177860 eV
  | ---------------------------
  | Total energy                  :        -289.21003956 Ha       -7869.80558771 eV
  | Total energy, T -> 0          :        -289.21010492 Ha       -7869.80736631 eV  <-- do not rely on this value for anything but (periodic) metals
  | Electronic free energy        :        -289.21017028 Ha       -7869.80914491 eV

  Derived energy quantities:
  | Kinetic energy                :         289.35851808 Ha        7873.84589373 eV
  | Electrostatic energy          :        -558.98323142 Ha      -15210.70763930 eV
  | Energy correction for multipole
  | error in Hartree potential    :           0.00019382 Ha           0.00527421 eV
  | Sum of eigenvalues per atom                           :       -4457.42038043 eV
  | Total energy (T->0) per atom                          :       -7869.80736631 eV  <-- do not rely on this value for anything but (periodic) metals
  | Electronic free energy per atom                       :       -7869.80914491 eV

  Self-consistency convergence accuracy:
  | Change of charge density      :  0.7385E-07
  | Change of sum of eigenvalues  : -0.4429E-04 eV
  | Change of total energy        :  0.3771E-08 eV

  Preliminary charge convergence reached. Turning off preconditioner.

  Writing Kohn-Sham eigenvalues.
  K-point:       1 at    0.000000    0.000000    0.000000 (in units of recip. lattice)

  State    Occupation    Eigenvalue [Ha]    Eigenvalue [eV]
      1       2.00000         -65.540484        -1783.44732
      2       2.00000          -5.129685         -139.58583
      3       2.00000          -3.544500          -96.45076
      4       2.00000          -3.544500          -96.45076
      5       2.00000          -3.544500          -96.45076
      6       2.00000          -0.428766          -11.66731
      7       0.00000          -0.124354           -3.38383
      8       0.00000          -0.124354           -3.38383
      9       0.00000          -0.124354           -3.38383
     10       0.00000           0.028516            0.77595

  What follows are estimated values for band gap, HOMO, LUMO, etc.
  | They are estimated on a discrete k-point grid and not necessarily exact.
  | For converged numbers, create a DOS and/or band structure plot on a denser k-grid.

  Highest occupied state (VBM) at     -4.66681781 eV (relative to internal zero)
  | Occupation number:      1.05784429
  | K-point:     662 at    0.500000    0.416667    0.500000 (in units of recip. lattice)

  Lowest unoccupied state (CBM) at    -4.66153646 eV (relative to internal zero)
  | Occupation number:      0.93876791
  | K-point:     762 at    0.750000    0.000000    0.583333 (in units of recip. lattice)

  ESTIMATED overall HOMO-LUMO gap:      0.00528135 eV between HOMO at k-point 662 and LUMO at k-point 762
  | This appears to be an indirect band gap.
  | Smallest direct gap :      0.16089480 eV for k_point 575 at    0.750000    0.000000    0.583333 (in units of recip. lattice)
  However, this system has fractional occupation numbers. Since we use a finite k-point grid,
  this material is metallic within the approximate finite broadening function (occupation_type)
  applied to determine the occupation numbers.

  Self-consistency cycle converged.

  End self-consistency iteration #    13       :  max(cpu_time)    wall_clock(cpu1)
  | Time for this iteration                    :        0.366 s           0.366 s
  | Charge density update                      :        0.082 s           0.082 s
  | Density mixing                             :        0.011 s           0.012 s
  | Hartree multipole update                   :        0.000 s           0.000 s
  | Hartree multipole summation                :        0.118 s           0.118 s
  | Integration                                :        0.049 s           0.049 s
  | Solution of K.-S. eqns.                    :        0.105 s           0.104 s
  | Total energy evaluation                    :        0.000 s           0.000 s

  Partial memory accounting:
  | Current value for overall tracked memory usage on task 0  :           2.605 MB
  | Peak value for overall tracked memory usage on task 0     :           3.181 MB after allocating wave
  | Largest tracked array allocation on task 0 so far         :           2.500 MB  when allocating +KS_eigenvector_complex
  Note:  These values currently only include a subset of arrays which are explicitly tracked.
  The "true" memory usage will be greater.
------------------------------------------------------------

  Energy and forces in a compact form:
  | Total energy uncorrected      :         -0.786980558770558E+04 eV
  | Total energy corrected        :         -0.786980736630826E+04 eV  <-- do not rely on this value for anything but (periodic) metals
  | Electronic free energy        :         -0.786980914491095E+04 eV

  ------------------------------------ 
  Start decomposition of the XC Energy 
  ------------------------------------ 
  X and C from original XC functional choice 
  Hartree-Fock Energy :          0.000000000 Ha              0.000000000 eV
  X Energy            :        -18.535603456 Ha           -504.379432591 eV
  C Energy            :         -1.049722757 Ha            -28.564409552 eV
  Total XC Energy     :        -19.585326213 Ha           -532.943842143 eV
  ------------------------------------ 
  LDA X and C from self-consistent density 
  X Energy LDA        :        -18.535603456 Ha           -504.379432591 eV
  C Energy LDA        :         -1.049722757 Ha            -28.564409552 eV
  ------------------------------------ 
  End decomposition of the XC Energy 
  ------------------------------------ 

------------------------------------------------------------

------------------------------------------------------------------------------
  Final output of selected total energy values:

  The following output summarizes some interesting total energy values
  at the end of a run (AFTER all relaxation, molecular dynamics, etc.).

  | Total energy of the DFT / Hartree-Fock s.c.f. calculation      :          -7869.805587706 eV
  | Final zero-broadening corrected energy (caution - metals only) :          -7869.807366308 eV
  | For reference only, the value of 1 Hartree used in FHI-aims is :             27.211384500 eV

  Before relying on these values, please be sure to understand exactly which
  total energy value is referred to by a given number. Different objects may
  all carry the same name 'total energy'. Definitions:

  Total energy of the DFT / Hartree-Fock s.c.f. calculation:
  | Note that this energy does not include ANY quantities calculated after the
  | s.c.f. cycle, in particular not ANY RPA, MP2, etc. many-body perturbation terms.

  Final zero-broadening corrected energy:
  | For metallic systems only, a broadening of the occupation numbers at the Fermi
  | level can be extrapolated back to zero broadening by an electron-gas inspired
  | formula. For all systems that are not real metals, this value can be
  | meaningless and should be avoided.

------------------------------------------------------------------------------
  Methods described in the following list of references were used in this FHI-aims run.
  If you publish the results, please make sure to cite these reference if they apply.
  FHI-aims is an academic code, and for our developers (often, Ph.D. students
  and postdocs), scientific credit in the community is essential.
  Thank you for helping us!

  For any use of FHI-aims, please cite:

    Volker Blum, Ralf Gehrke, Felix Hanke, Paula Havu, Ville Havu,
    Xinguo Ren, Karsten Reuter, and Matthias Scheffler
    'Ab initio molecular simulations with numeric atom-centered orbitals'
    Computer Physics Communications 180, 2175-2196 (2009)
    http://dx.doi.org/10.1016/j.cpc.2009.06.022


  For the real-space grid partitioning and parallelization used in this calculation, please cite:

    Ville Havu, Volker Blum, Paula Havu, and Matthias Scheffler,
    'Efficient O(N) integration for all-electron electronic structure calculation'
    'using numerically tabulated basis functions'
    Journal of Computational Physics 228, 8367-8379 (2009).
    http://dx.doi.org/10.1016/j.jcp.2009.08.008

  Of course, there are many other important community references, e.g., those cited in the
  above references. Our list is limited to references that describe implementations in the
  FHI-aims code. The reason is purely practical (length of this list) - please credit others as well.

------------------------------------------------------------
          Leaving FHI-aims.
          Date     :  20190514, Time     :  105008.503

          Computational steps:
          | Number of self-consistency cycles          :           13
          | Number of SCF (re)initializations          :            1

          Detailed time accounting                     :  max(cpu_time)    wall_clock(cpu1)
          | Total time                                 :        5.408 s           5.408 s
          | Preparation time                           :        0.112 s           0.111 s
          | Boundary condition initalization           :        0.036 s           0.036 s
          | Grid partitioning                          :        0.007 s           0.007 s
          | Preloading free-atom quantities on grid    :        0.001 s           0.001 s
          | Free-atom superposition energy             :        0.007 s           0.007 s
          | Total time for integrations                :        0.739 s           0.741 s
          | Total time for solution of K.-S. equations :        1.642 s           1.641 s
          | Total time for density update              :        1.075 s           1.077 s
          | Total time for mixing & preconditioning    :        0.152 s           0.151 s
          | Total time for Hartree multipole update    :        0.007 s           0.009 s
          | Total time for Hartree multipole sum       :        1.601 s           1.598 s
          | Total time for total energy evaluation     :        0.003 s           0.001 s
          | Total time for scaled ZORA corrections     :        0.000 s           0.000 s

 This is a stub MPI_ALLREDUCE call.
 You should not be here. Check your
 setting on the use_mpi variable, or
 link against true MPI-libraries.
