[Molden Format]
[GEOMETRIES] XYZ
     4

O         0.0000    0.0000    0.1908
H         0.8243   -0.4759    0.4742
H        -0.8243   -0.4759    0.4742
H        -0.0000    0.9517    0.4745
[FREQ]
    -7.678
    -7.598
    -0.001
     0.120
     0.127
     6.255
   822.124
  1613.799
  1613.810
  3505.384
  3591.220
  3591.252
[INT]
     1.765005e+00
     6.818691e-01
     1.212766e+00
     1.221807e+00
     1.261838e+00
     1.123118e+00
     1.122416e+01
     2.689777e+00
     2.688936e+00
     1.087693e+00
     1.313613e+01
     1.313581e+01
[FR-COORD]
     4

O         0.0000    0.0000    0.3605
H         1.5576   -0.8993    0.8962
H        -1.5576   -0.8993    0.8962
H        -0.0000    1.7985    0.8966
[FR-NORM-COORD]
vibration      1
   -0.0000   -0.0762    0.0000
    0.0001    0.3575    0.7280
   -0.0001    0.3575    0.7280
   -0.0000    0.3579   -1.4566
vibration      2
   -0.0509    0.0000    0.0000
    0.6465    0.7394   -0.7866
    0.6465   -0.7394    0.7866
   -0.6338   -0.0000    0.0000
vibration      3
    0.0000    0.0005    0.9449
    0.0000    0.0005    0.9449
   -0.0000    0.0005    0.9449
    0.0000    0.0005    0.9449
vibration      4
    0.9417   -0.0000   -0.0000
    0.9689    0.0420   -0.0087
    0.9689   -0.0420    0.0087
    0.8961   -0.0000    0.0000
vibration      5
   -0.0000   -0.9329    0.0005
   -0.0000   -0.9481   -0.0250
    0.0000   -0.9481   -0.0250
   -0.0000   -0.9481    0.0516
vibration      6
   -0.0488   -0.0000   -0.0000
   -0.0575   -0.5959   -0.9751
   -0.0575    0.5959    0.9751
    0.9748   -0.0000    0.0000
vibration      7
   -0.0000   -0.0000    0.1964
    0.2709   -0.1561   -1.0393
   -0.2709   -0.1561   -1.0393
    0.0000    0.3128   -1.0386
vibration      8
   -0.1178   -0.0000   -0.0000
    0.1965    0.7390    0.3217
    0.1965   -0.7390   -0.3217
    1.4767   -0.0000    0.0000
vibration      9
   -0.0000    0.1178    0.0000
   -0.7390   -1.0500    0.1854
    0.7390   -1.0500    0.1854
    0.0000    0.2305   -0.3714
vibration     10
    0.0000    0.0002   -0.0506
    0.9166   -0.5291    0.2679
   -0.9166   -0.5291    0.2679
   -0.0000    1.0552    0.2672
vibration     11
    0.1395   -0.0000    0.0000
   -1.1063    0.6379   -0.3807
   -1.1063   -0.6379    0.3807
   -0.0015    0.0000    0.0000
vibration     12
   -0.0000   -0.1395   -0.0001
   -0.6365    0.3691   -0.2194
    0.6365    0.3691   -0.2194
    0.0000    1.4760    0.4404
