------------------------------------------------------------
          Invoking FHI-aims ...
          Version 171221_1
          Compiled on 2019/05/06 at 14:26:40 on host ffph0xx.

          When using FHI-aims, please cite the following reference:

          Volker Blum, Ralf Gehrke, Felix Hanke, Paula Havu,
          Ville Havu, Xinguo Ren, Karsten Reuter, and Matthias Scheffler,
          'Ab Initio Molecular Simulations with Numeric Atom-Centered Orbitals',
          Computer Physics Communications 180, 2175-2196 (2009)

          For any questions about FHI-aims, please visit the aimsclub website
          with its forums and wiki. Contributions to both the forums and the
          wiki are warmly encouraged - they are for you, and everyone is welcome there.

------------------------------------------------------------



  Date     :  20190514, Time     :  123607.412
  Time zero on CPU 1             :   0.615000000000000E-03  s.
  Internal wall clock time zero  :           327069367.412  s.

  FHI-aims created a unique identifier for this run for later identification
  aims_uuid : 86E52335-EE4A-432D-A263-DA85E9A8DBF9


  Performing system and environment tests:
  *** Environment variable OMP_NUM_THREADS is not set
  *** For performance reasons you might want to set it to 1
  | Stacksize not measured: no C compiler

  Obtaining array dimensions for all initial allocations:
  
  -----------------------------------------------------------------------
  Parsing control.in (first pass over file, find array dimensions only).
  The contents of control.in will be repeated verbatim below
  unless switched off by setting 'verbatim_writeout .false.' .
  in the first line of control.in .
  -----------------------------------------------------------------------
  
  #--- method ---
  xc pw-lda
  spin none
  relativistic atomic_zora scalar
  #---
  
  #--- k-grid settings ---
  k_grid 12 12 12
  #---
  
  
  
  
  
  
  
  
  
  
  
  #-------------------------------------------------------------------------------
  #--- Species defaults for Si
  #-------------------------------------------------------------------------------
  
  ################################################################################
  #
  #  FHI-aims code project
  #  VB, Fritz-Haber Institut, 2009
  #
  #  Suggested "light" defaults for Si atom (to be pasted into control.in file)
  #  Be sure to double-check any results obtained with these settings for post-processing,
  #  e.g., with the "tight" defaults and larger basis sets.
  #
  ################################################################################
    species        Si
  #     global species definitions
      nucleus             14
      mass                28.0855
  #
      l_hartree           4
  #
      cut_pot             3.5          1.5  1.0
      basis_dep_cutoff    1e-4
  #
      radial_base         42 5.0
      radial_multiplier   1
      angular_grids       specified
        division   0.5866   50
        division   0.9616  110
        division   1.2249  194
        division   1.3795  302
  #      division   1.4810  434
  #      division   1.5529  590
  #      division   1.6284  770
  #      division   1.7077  974
  #      division   2.4068 1202
  #      outer_grid   974
        outer_grid 302
  ################################################################################
  #
  #  Definition of "minimal" basis
  #
  ################################################################################
  #     valence basis states
      valence      3  s   2.
      valence      3  p   2.
  #     ion occupancy
      ion_occ      3  s   1.
      ion_occ      3  p   1.
  ################################################################################
  #
  #  Suggested additional basis functions. For production calculations,
  #  uncomment them one after another (the most important basis functions are
  #  listed first).
  #
  #  Constructed for dimers: 1.75 A, 2.0 A, 2.25 A, 2.75 A, 3.75 A
  #
  ################################################################################
  #  "First tier" - improvements: -571.96 meV to -37.03 meV
       hydro 3 d 4.2
       hydro 2 p 1.4
  #     hydro 4 f 6.2
       ionic 3 s auto
  #  "Second tier" - improvements: -16.76 meV to -3.03 meV
  #     hydro 3 d 9
  #     hydro 5 g 9.4
  #     hydro 4 p 4
  #     hydro 1 s 0.65
  #  "Third tier" - improvements: -3.89 meV to -0.60 meV
  #     ionic 3 d auto
  #     hydro 3 s 2.6
  #     hydro 4 f 8.4
  #     hydro 3 d 3.4
  #     hydro 3 p 7.8
  #  "Fourth tier" - improvements: -0.33 meV to -0.11 meV
  #     hydro 2 p 1.6
  #     hydro 5 g 10.8
  #     hydro 5 f 11.2
  #     hydro 3 d 1
  #     hydro 4 s 4.5
  #  Further basis functions that fell out of the optimization - noise
  #  level... < -0.08 meV
  #     hydro 4 d 6.6
  #     hydro 5 g 16.4
  #     hydro 4 d 9
  
  -----------------------------------------------------------------------
  Completed first pass over input file control.in .
  -----------------------------------------------------------------------
  
  
  -----------------------------------------------------------------------
  Parsing geometry.in (first pass over file, find array dimensions only).
  The contents of geometry.in will be repeated verbatim below
  unless switched off by setting 'verbatim_writeout .false.' .
  in the first line of geometry.in .
  -----------------------------------------------------------------------
  
  lattice_vector   0.000000   2.700000   2.700000
  lattice_vector   2.700000   0.000000   2.700000
  lattice_vector   2.700000   2.700000   0.000000
  atom_frac   0.000000   0.000000   0.000000 Si
  
  -----------------------------------------------------------------------
  Completed first pass over input file geometry.in .
  -----------------------------------------------------------------------
  

  Basic array size parameters:
  | Number of species                 :        1
  | Number of atoms                   :        1
  | Number of lattice vectors         :        3
  | Max. basis fn. angular momentum   :        2
  | Max. atomic/ionic basis occupied n:        3
  | Max. number of basis fn. types    :        3
  | Max. radial fns per species/type  :        5
  | Max. logarithmic grid size        :     1346
  | Max. radial integration grid size :       42
  | Max. angular integration grid size:      302
  | Max. angular grid division number :        8
  | Radial grid for Hartree potential :     1346
  | Number of spin channels           :        1

------------------------------------------------------------
          Reading file control.in.
------------------------------------------------------------
  XC: Using Perdew-Wang parametrisation of Ceperley-Alder LDA.
  Spin treatment: No spin polarisation.
  Scalar relativistic treatment of kinetic energy: on-site free-atom approximation to ZORA.
  Found k-point grid:        12        12        12

  Reading configuration options for species Si                  .
  | Found nuclear charge :  14.0000
  | Found atomic mass :    28.085500000000000      amu
  | Found l_max for Hartree potential  :   4
  | Found cutoff potl. onset [A], width [A], scale factor :    3.50000    1.50000    1.00000
  | Threshold for basis-dependent cutoff potential is   0.100000E-03
  | Found data for basic radial integration grid :    42 points, outermost radius =    5.000 A
  | Found multiplier for basic radial grid :   1
  | Found angular grid specification: user-specified.
  | Specified grid contains     5 separate shells.
  | Check grid settings after all constraints further below.
  | Found free-atom valence shell :  3 s   2.000
  | Found free-atom valence shell :  3 p   2.000
  | Found free-ion valence shell :  3 s   1.000
  | Found free-ion valence shell :  3 p   1.000
  | Found hydrogenic basis function :  3 d   4.200
  | Found hydrogenic basis function :  2 p   1.400
  | Found ionic basis function :  3 s , default cutoff radius.
  Species Si                  : Missing cutoff potential type.
  Defaulting to exp(1/x)/(1-x)^2 type cutoff potential.
  Species Si: No 'logarithmic' tag. Using default grid for free atom:
  | Default logarithmic grid data [bohr] : 0.1000E-03 0.1000E+03 0.1012E+01
  | Will include ionic basis functions of  2.0-fold positive Si                   ion.
  Species Si: On-site basis accuracy parameter (for Gram-Schmidt orthonormalisation) not specified.
  Using default value basis_acc =  0.1000000E-03.
  Species Si                  : Using default innermost maximum threshold i_radial=  2 for radial functions.
  Species Si                  : Default cutoff onset for free atom density etc. : 0.35000000E+01 AA.
  Species Si                  : Basic radial grid will be enhanced according to radial_multiplier =   1, to contain    42 grid points.

  Finished reading input file 'control.in'. Consistency checks are next.

  MPI_IN_PLACE appears to work with this MPI implementation.
  | Keeping use_mpi_in_place .true. (see manual).
  Target number of points in a grid batch is not set. Defaulting to  100
  Method for grid partitioning is not set. Defaulting to 'maxmin' partitioning.
  Batch size limit is not set. Defaulting to    200
  By default, will store active basis functions for each batch.
  If in need of memory, prune_basis_once .false. can be used to disable this option.
  communication_type for Hartree potential was not specified.
  Defaulting to calc_hartree .
 * Attention: 
 * You may want to set distributed_spline_storage to .true. in order to save memory.
 * This doesn't harm performance and is perfectly ok unless:
 * - you get error messages in postprocessing (about missing atoms in get_rho_multipole_spl)
 * - you need full spline storage in hirshfeld_analysis
  Defaulting to Pulay charge density mixer.
  Pulay mixer: Number of relevant iterations not set.
  Defaulting to    8 iterations.
  Pulay mixer: Number of initial linear mixing iterations not set.
  Defaulting to    0 iterations.
  Work space size for distributed Hartree potential not set.
  Defaulting to   0.200000E+03 MB.
  Mixing parameter for charge density mixing has not been set.
  Using default: charge_mix_param =     0.0500.
  The mixing parameter will be adjusted in iteration number     2 of the first full s.c.f. cycle only.
  Algorithm-dependent basis array size parameters:
  | n_max_pulay                         :        8
 * Notice: The s.c.f. convergence criterion sc_accuracy_rho was not provided.
 * We used to stop in this case, and ask the user to provide reasonable
 * scf convergence criteria. However, this led some users to employ criteria
 * that led to extremely long run times, e.g., for simple relaxation.
 * We now preset a default value for sc_accuracy_rho if it is not set.
 * You may still wish to check if this setting is too tight or too loose for your needs.
 * Based on n_atoms, FHI-aims chose sc_accuracy_rho =  0.100000E-05 .
  Maximum number of self-consistency iterations not provided.
  Presetting  1000 iterations.
  Presetting      1001 iterations before the initial mixing cycle
  is restarted anyway using the sc_init_iter criterion / keyword.
  Presetting a factor      1.000 between actual scf density residual
  and density convergence criterion sc_accuracy_rho below which sc_init_iter
  takes no effect.
 * No s.c.f. convergence criteria (sc_accuracy_*) were provided in control.in.
 * The run will proceed with a reasonable default guess, but please check whether.
 * the s.c.f. cycles seem to take too much or too little time.
  Calculation of forces was not defined in control.in. No forces will be calculated.
  Geometry relaxation not requested: no relaxation will be performed.
  No accuracy limit for integral partition fn. given. Defaulting to  0.1000E-14.
  No threshold value for u(r) in integrations given. Defaulting to  0.1000E-05.
  No occupation type (smearing scheme) given. Defaulting to Gaussian broadening, width =  0.1000E-01 eV.
  The width will be adjusted in iteration number     2 of the first full s.c.f. cycle only.
  S.C.F. convergence parameters will be adjusted in iteration number     2 of the first full s.c.f. cycle only.
  No accuracy for occupation numbers given. Defaulting to  0.1000E-12.
  No threshold value for occupation numbers given. Defaulting to  0.0000E+00.
  No accuracy for fermi level given. Defaulting to  0.1000E-19.
  Maximum # of iterations to find E_F not set. Defaulting to  200.
  Preferred method for the eigenvalue solver ('KS_method') not specified in 'control.in'.
  Defaulting to serial version, 'lapack_fast'.
  Will not use alltoall communication since running on < 1024 CPUs.
  Threshold for basis singularities not set.
  Default threshold for basis singularities:  0.1000E-04
  partition_type (choice of integration weights) for integrals was not specified.
  | Using a version of the partition function of Stratmann and coworkers ('stratmann_smoother').
  | At each grid point, the set of atoms used to build the partition table is smoothly restricted to
  | only those atoms whose free-atom density would be non-zero at that grid point.
  Partitioning for Hartree potential was not defined. Using partition_type for integrals.
  | Adjusted default value of keyword multip_moments_threshold to:       0.10000000E-11
  | This value may affect high angular momentum components of the Hartree potential in periodic systems.
  Angular momentum expansion for Kerker preconditioner not set explicitly.
  | Using default value of   0
  No explicit requirement for turning off preconditioner.
  | By default, it will be turned off when the charge convergence reaches
  | sc_accuracy_rho  =   0.100000E-05
  No special mixing parameter while Kerker preconditioner is on.
  Using default: charge_mix_param =     0.0500.
  No q(lm)/r^(l+1) cutoff set for long-range Hartree potential.
  | Using default value of  0.100000E-09 .
  | Verify using the multipole_threshold keyword.
  Defaulting to new monopole extrapolation.
  Density update method: automatic selection selected.
  Using density matrix based charge density update.
  Using density matrix based charge density update.
  Using packed matrix style: index .
  Defaulting to use time-reversal symmetry for k-point grid.
------------------------------------------------------------


------------------------------------------------------------
          Reading geometry description geometry.in.
------------------------------------------------------------
  Input structure read successfully.
  The structure contains        1 atoms,  and a total of         14.000 electrons.

  Input geometry:
  | Unit cell:
  |        0.00000000        2.70000000        2.70000000
  |        2.70000000        0.00000000        2.70000000
  |        2.70000000        2.70000000        0.00000000
  | Atomic structure:
  |       Atom                x [A]            y [A]            z [A]
  |    1: Species Si            0.00000000        0.00000000        0.00000000

  Lattice parameters for 3D lattice (in Angstroms) :     3.818377    3.818377    3.818377
  Angle(s) between unit vectors (in degrees)      :    60.000000   60.000000   60.000000

  |

  | The smallest distance between any two atoms is         3.81837662 AA.
  |
  | The first atom of this pair is atom number                      1 .
  | The second atom of this pair is atom number                     1 .
  | Wigner-Seitz cell of the first atom image          -1     0     1 .
  | (The Wigner-Seitz cell of the second atom is 0 0 0  by definition.)

  Quantities derived from the lattice vectors:
  | Reciprocal lattice vector 1: -1.163553  1.163553  1.163553
  | Reciprocal lattice vector 2:  1.163553 -1.163553  1.163553
  | Reciprocal lattice vector 3:  1.163553  1.163553 -1.163553
  | Unit cell volume                               :   0.393660E+02  A^3

  Range separation radius for Ewald summation (hartree_convergence_parameter):      4.95214916 bohr.

  Fractional coordinates:
                         L1                L2                L3
       atom_frac         0.00000000        0.00000000        0.00000000  Si

  Number of empty states per atom not set in control.in - providing a guess from actual geometry.
  | Total number of empty states used during s.c.f. cycle:        3
  If you use a very high smearing, use empty_states (per atom!) in control.in to increase this value.

  Structure-dependent array size parameters: 
  | Maximum number of distinct radial functions  :        8
  | Maximum number of basis functions            :       18
  | Number of Kohn-Sham states (occupied + empty):       10
------------------------------------------------------------

------------------------------------------------------------
          Preparing all fixed parts of the calculation.
------------------------------------------------------------
  Determining machine precision:
     2.2250738585072014E-308
  Setting up grids for atomic and cluster calculations.

  Creating wave function, potential, and density for free atoms.

  Species: Si

  List of occupied orbitals and eigenvalues:
    n    l              occ      energy [Ha]    energy [eV]
    1    0           2.0000       -65.491668     -1782.1190
    2    0           2.0000        -5.087967      -138.4506
    3    0           2.0000        -0.391471       -10.6525
    2    1           6.0000        -3.502246       -95.3010
    3    1           2.0000        -0.143943        -3.9169

  Creating fixed part of basis set: Ionic, confined, hydrogenic.

  Si                   ion:

  List of free ionic orbitals and eigenvalues:
    n    l      energy [Ha]    energy [eV]
    1    0       -66.364436     -1805.8682
    2    0        -5.935799      -161.5213
    3    0        -1.078166       -29.3384
    2    1        -4.351123      -118.4001
    3    1        -0.781733       -21.2720


  List of ionic basis orbitals and eigenvalues:
    n    l      energy [Ha]    energy [eV]    outer radius [A]
    3    0        -1.078146       -29.3378       4.214062


  Si                   hydrogenic:

  List of hydrogenic basis orbitals: 
    n    l      effective z      eigenvalue [eV]  inner max. [A]     outer max. [A]     outer radius [A]   
    3    2         4.200000       -26.6624           1.139231           1.139231           4.534782
    2    1         1.400000        -6.4613           1.472672           1.472672           4.590560


  Adding cutoff potential to free-atom effective potential.
  Creating atomic-like basis functions for current effective potential.

  Species Si                  :

  List of atomic basis orbitals and eigenvalues:
    n    l      energy [Ha]    energy [eV]    outer radius [A]
    1    0       -65.491668     -1782.1190       0.789468
    2    0        -5.087967      -138.4506       2.815114
    3    0        -0.391471       -10.6525       4.534782
    2    1        -3.502246       -95.3010       3.259919
    3    1        -0.143943        -3.9169       4.590560

  Assembling full basis from fixed parts.
  | Species Si :   atomic orbital   1 s accepted.
  | Species Si :   atomic orbital   2 s accepted.
  | Species Si :    ionic orbital   3 s accepted.
  | Species Si :   atomic orbital   3 s accepted.
  | Species Si :   atomic orbital   2 p accepted.
  | Species Si :   atomic orbital   3 p accepted.
  | Species Si :    hydro orbital   2 p accepted.
  | Species Si :    hydro orbital   3 d accepted.

  Basis size parameters after reduction:
  | Total number of radial functions:        8
  | Total number of basis functions :       18

  Per-task memory consumption for arrays in subroutine allocate_ext:
  |           2.757468MB.
  Testing on-site integration grid accuracy.
  |  Species  Function  <phi|h_atom|phi> (log., in eV)  <phi|h_atom|phi> (rad., in eV)
           1        1              -1782.1189727076              -1782.1182429251
           1        2               -138.4506350693               -138.4506310079
           1        3                -10.3030408815                -10.3029120678
           1        4                  5.0238999146                  4.9457540310 ***
           1        5                -95.3009689499                -95.3009689315
           1        6                 -3.9266496564                 -3.9420918374
           1        7                  6.3453628447                  6.1632372158 ***
           1        8                  6.2883050744                  6.2861881409
 * Note: Onsite integrals marked "***" above are less accurate than
 * onsite_accuracy_threshold =    0.03000 eV. Usually, this is harmless.
 * When in doubt, tighten the "radial" and/or "radial_multiplier" flags to check.

  Preparing densities etc. for the partition functions (integrals / Hartree potential).

  Preparations completed.
  max(cpu_time)          :      0.099 s.
  Wall clock time (cpu1) :      0.100 s.
------------------------------------------------------------

------------------------------------------------------------
          Begin self-consistency loop: Initialization.

          Date     :  20190514, Time     :  123607.513
------------------------------------------------------------

  Initializing index lists of integration centers etc. from given atomic structure:
  Mapping all atomic coordinates to central unit cell.

  Initializing the k-points
          Using symmetry for reducing the k-points
  | k-points reduced from:     1728 to      868
  | Number of k-points                             :       868
  The eigenvectors in the calculations are COMPLEX.
  | K-points in task   0:       868
  | Number of basis functions in the Hamiltonian integrals :       738
  | Number of basis functions in a single unit cell        :        18
  | Number of centers in hartree potential         :       531
  | Number of centers in hartree multipole         :       141
  | Number of centers in electron density summation:        87
  | Number of centers in basis integrals           :        87
  | Number of centers in integrals                 :        51
  | Number of centers in hamiltonian               :        87
  | Consuming       1193 KiB for k_phase.
  | Number of super-cells (origin) [n_cells]                     :        2197
  | Number of super-cells (after PM_index) [n_cells]             :          88
  | Number of super-cells in hamiltonian [n_cells_in_hamiltonian]:          88
  | Size of matrix packed + index [n_hamiltonian_matrix_size] :       11290
  Partitioning the integration grid into batches with maxmin method.
  | Maximal weight for a single point:     1.000
  | Minimal weight for a single point:     0.591
  | Number of batches:       64
  | Maximal batch size:      90
  | Minimal batch size:      85
  | Average batch size:      87.562
  | Standard deviation of batch sizes:       1.499
  Initializing partition tables, free-atom densities, potentials, etc. across the integration grid (initialize_grid_storage).
  | initialize_grid_storage: Actual outermost partition radius vs. multipole_radius_free
  | (-- VB: in principle, multipole_radius_free should be larger, hence this output)
  | Species        1: Confinement radius =              4.999999999999999 AA, multipole_radius_free =              5.000694715736543 AA.
  | Species        1: outer_partition_radius set to              5.000694715736543 AA .
  | Original list of interatomic distances with          87 x         87 entries is created.
  | Net number of integration points:     5604
  | of which are non-zero points    :     5214
  | Numerical average free-atom electrostatic potential    :     -6.68259913 eV
  Renormalizing the initial density to the exact electron count on the 3D integration grid.
  | Initial density: Formal number of electrons (from input files) :      14.0000000000
  | Integrated number of electrons on 3D grid     :      14.0000344798
  | Charge integration error                      :       0.0000344798
  | Normalization factor for density and gradient :       0.9999975372
  Obtaining max. number of non-zero basis functions in each batch (get_n_compute_maxes).
  | Maximal number of non-zero basis functions:      260 in task     0
  Allocating        2.500 MB for KS_eigenvector_complex
  Integrating Hamiltonian matrix: batch-based integration.
  Time summed over all CPUs for integration: real work        0.097 s, elapsed        0.097 s
  Integrating overlap matrix.
  Time summed over all CPUs for integration: real work        0.066 s, elapsed        0.066 s
  Decreasing sparse matrix size:
   Tolerance:   9.9999998245167004E-014
   Hamiltonian matrix
  | Array has     7157 nonzero elements out of    11290 elements
  | Sparsity factor is 0.366
   Overlap matrix
  | Array has     7075 nonzero elements out of    11290 elements
  | Sparsity factor is 0.373
  New size of hamiltonian matrix:        7296

  Updating Kohn-Sham eigenvalues, eigenvectors, occupation numbers, and Fermi level.
  Solving generalized eigenproblem
  Transforming overlap matrix and checking for singularities.
  Overlap matrix is nonsingular at first k-point:
  | Lowest eigenvalue:  0.195105E-01

  Obtaining occupation numbers and chemical potential using ELSI.
  | Chemical potential (Fermi level):    -4.63772112eV
  Writing Kohn-Sham eigenvalues.
  K-point:       1 at    0.000000    0.000000    0.000000 (in units of recip. lattice)

  State    Occupation    Eigenvalue [Ha]    Eigenvalue [eV]
      1       2.00000         -65.491680        -1782.11929
      2       2.00000          -5.088056         -138.45304
      3       2.00000          -3.502335          -95.30339
      4       2.00000          -3.502335          -95.30339
      5       2.00000          -3.502335          -95.30339
      6       2.00000          -0.471611          -12.83320
      7       0.00000          -0.045017           -1.22498
      8       0.00000          -0.045017           -1.22498
      9       0.00000          -0.045017           -1.22498
     10       0.00000           0.139542            3.79712

  What follows are estimated values for band gap, HOMO, LUMO, etc.
  | They are estimated on a discrete k-point grid and not necessarily exact.
  | For converged numbers, create a DOS and/or band structure plot on a denser k-grid.

  Highest occupied state (VBM) at     -4.63871155 eV (relative to internal zero)
  | Occupation number:      1.11139303
  | K-point:     742 at    0.666667    0.416667    0.916667 (in units of recip. lattice)

  Lowest unoccupied state (CBM) at    -4.60510908 eV (relative to internal zero)
  | Occupation number:      0.00000399
  | K-point:     637 at    0.500000    0.166667    0.666667 (in units of recip. lattice)

  ESTIMATED overall HOMO-LUMO gap:      0.03360247 eV between HOMO at k-point 742 and LUMO at k-point 637
  | This appears to be an indirect band gap.
  | Smallest direct gap :      1.07623518 eV for k_point 376 at    0.500000    0.166667    0.666667 (in units of recip. lattice)
  However, this system has fractional occupation numbers. Since we use a finite k-point grid,
  this material is metallic within the approximate finite broadening function (occupation_type)
  applied to determine the occupation numbers.
  Calculating total energy contributions from superposition of free atom densities.

  Total energy components:
  | Sum of eigenvalues            :        -163.40245238 Ha       -4446.40695983 eV
  | XC energy correction          :         -19.66686497 Ha        -535.16262468 eV
  | XC potential correction       :          25.98463533 Ha         707.07790293 eV
  | Free-atom electrostatic energy:        -132.18951458 Ha       -3597.05970823 eV
  | Hartree energy correction     :          -0.00000000 Ha          -0.00000000 eV
  | Entropy correction            :          -0.00000333 Ha          -0.00009074 eV
  | ---------------------------
  | Total energy                  :        -289.27419661 Ha       -7871.55138981 eV
  | Total energy, T -> 0          :        -289.27419994 Ha       -7871.55148055 eV  <-- do not rely on this value for anything but (periodic) metals
  | Electronic free energy        :        -289.27420328 Ha       -7871.55157129 eV

  Derived energy quantities:
  | Kinetic energy                :         289.55156332 Ha        7879.09892221 eV
  | Electrostatic energy          :        -559.15889496 Ha      -15215.48768734 eV
  | Energy correction for multipole
  | error in Hartree potential    :           0.00000000 Ha           0.00000000 eV
  | Sum of eigenvalues per atom                           :       -4446.40695983 eV
  | Total energy (T->0) per atom                          :       -7871.55148055 eV  <-- do not rely on this value for anything but (periodic) metals
  | Electronic free energy per atom                       :       -7871.55157129 eV
  Initialize hartree_potential_storage
  Max. number of atoms included in rho_multipole:            1

  End scf initialization - timings             :  max(cpu_time)    wall_clock(cpu1)
  | Time for scf. initialization               :        0.467 s           0.467 s
  | Boundary condition initialization          :        0.026 s           0.026 s
  | Integration                                :        0.163 s           0.163 s
  | Solution of K.-S. eqns.                    :        0.229 s           0.229 s
  | Grid partitioning                          :        0.009 s           0.010 s
  | Preloading free-atom quantities on grid    :        0.001 s           0.001 s
  | Free-atom superposition energy             :        0.008 s           0.008 s
  | Total energy evaluation                    :        0.000 s           0.000 s

  Partial memory accounting:
  | Current value for overall tracked memory usage on task 0  :           2.646 MB
  | Peak value for overall tracked memory usage on task 0     :           3.828 MB after allocating wave
  | Largest tracked array allocation on task 0 so far         :           2.500 MB  when allocating +KS_eigenvector_complex
  Note:  These values currently only include a subset of arrays which are explicitly tracked.
  The "true" memory usage will be greater.
------------------------------------------------------------

------------------------------------------------------------
          Begin self-consistency iteration #    1

  Date     :  20190514, Time     :  123607.980
------------------------------------------------------------
  Evaluating new KS density using the density matrix
  Evaluating density matrix
  Time summed over all CPUs for getting density from density matrix: real work        0.150 s, elapsed        0.150 s
  Integration grid: deviation in total charge (<rho> - N_e) =  -5.098144E-13
  Pulay mixing of updated and previous charge densities.

  Evaluating partitioned Hartree potential by multipole expansion.
  | Analytical far-field extrapolation by fixed multipoles:
  | Hartree multipole sum: apparent total charge =  -0.967743E-04
  Summing up the Hartree potential.
  | Estimated reciprocal-space cutoff momentum G_max:         1.86303195 bohr^-1 .
  | Reciprocal lattice points for long-range Hartree potential:      26
  Time summed over all CPUs for potential: real work        0.122 s, elapsed        0.122 s
  | RMS charge density error from multipole expansion :   0.100762E-03
  | Average real-space part of the electrostatic potential :     -0.01198798 eV

  Integrating Hamiltonian matrix: batch-based integration.
  Time summed over all CPUs for integration: real work        0.099 s, elapsed        0.099 s

  Updating Kohn-Sham eigenvalues, eigenvectors, occupation numbers, and Fermi level.
  Solving generalized eigenproblem

  Obtaining occupation numbers and chemical potential using ELSI.
  | Chemical potential (Fermi level):    -4.64602933eV
  Writing Kohn-Sham eigenvalues.
  K-point:       1 at    0.000000    0.000000    0.000000 (in units of recip. lattice)

  State    Occupation    Eigenvalue [Ha]    Eigenvalue [eV]
      1       2.00000         -65.494094        -1782.18496
      2       2.00000          -5.089745         -138.49900
      3       2.00000          -3.504076          -95.35077
      4       2.00000          -3.504076          -95.35077
      5       2.00000          -3.504076          -95.35077
      6       2.00000          -0.471982          -12.84329
      7       0.00000          -0.045493           -1.23793
      8       0.00000          -0.045493           -1.23793
      9       0.00000          -0.045493           -1.23793
     10       0.00000           0.139081            3.78458

  What follows are estimated values for band gap, HOMO, LUMO, etc.
  | They are estimated on a discrete k-point grid and not necessarily exact.
  | For converged numbers, create a DOS and/or band structure plot on a denser k-grid.

  Highest occupied state (VBM) at     -4.64700110 eV (relative to internal zero)
  | Occupation number:      1.10930785
  | K-point:     674 at    0.500000    0.583333    0.250000 (in units of recip. lattice)

  Lowest unoccupied state (CBM) at    -4.61340052 eV (relative to internal zero)
  | Occupation number:      0.00000394
  | K-point:     493 at    0.333333    0.833333    0.500000 (in units of recip. lattice)

  ESTIMATED overall HOMO-LUMO gap:      0.03360058 eV between HOMO at k-point 674 and LUMO at k-point 493
  | This appears to be an indirect band gap.
  | Smallest direct gap :      1.07637144 eV for k_point 680 at    0.333333    0.833333    0.500000 (in units of recip. lattice)
  However, this system has fractional occupation numbers. Since we use a finite k-point grid,
  this material is metallic within the approximate finite broadening function (occupation_type)
  applied to determine the occupation numbers.

  Total energy components:
  | Sum of eigenvalues            :        -163.42259699 Ha       -4446.95512268 eV
  | XC energy correction          :         -19.66513407 Ha        -535.11552451 eV
  | XC potential correction       :          25.98235107 Ha         707.01574520 eV
  | Free-atom electrostatic energy:        -132.18951458 Ha       -3597.05970823 eV
  | Hartree energy correction     :           0.02079811 Ha           0.56594536 eV
  | Entropy correction            :          -0.00000332 Ha          -0.00009047 eV
  | ---------------------------
  | Total energy                  :        -289.27409647 Ha       -7871.54866485 eV
  | Total energy, T -> 0          :        -289.27409979 Ha       -7871.54875532 eV  <-- do not rely on this value for anything but (periodic) metals
  | Electronic free energy        :        -289.27410312 Ha       -7871.54884578 eV

  Derived energy quantities:
  | Kinetic energy                :         289.53535380 Ha        7878.65783855 eV
  | Electrostatic energy          :        -559.14431619 Ha      -15215.09097889 eV
  | Energy correction for multipole
  | error in Hartree potential    :           0.00000937 Ha           0.00025489 eV
  | Sum of eigenvalues per atom                           :       -4446.95512268 eV
  | Total energy (T->0) per atom                          :       -7871.54875532 eV  <-- do not rely on this value for anything but (periodic) metals
  | Electronic free energy per atom                       :       -7871.54884578 eV

  Self-consistency convergence accuracy:
  | Change of charge density      :  0.2935E-01
  | Change of sum of eigenvalues  : -0.5482E+00 eV
  | Change of total energy        :  0.2725E-02 eV

  End self-consistency iteration #     1       :  max(cpu_time)    wall_clock(cpu1)
  | Time for this iteration                    :        0.510 s           0.511 s
  | Charge density update                      :        0.163 s           0.163 s
  | Density mixing & preconditioning           :        0.018 s           0.018 s
  | Hartree multipole update                   :        0.000 s           0.001 s
  | Hartree multipole summation                :        0.123 s           0.123 s
  | Integration                                :        0.099 s           0.099 s
  | Solution of K.-S. eqns.                    :        0.106 s           0.107 s
  | Total energy evaluation                    :        0.000 s           0.000 s

  Partial memory accounting:
  | Current value for overall tracked memory usage on task 0  :           2.646 MB
  | Peak value for overall tracked memory usage on task 0     :           3.828 MB after allocating wave
  | Largest tracked array allocation on task 0 so far         :           2.500 MB  when allocating +KS_eigenvector_complex
  Note:  These values currently only include a subset of arrays which are explicitly tracked.
  The "true" memory usage will be greater.
------------------------------------------------------------

------------------------------------------------------------
          Begin self-consistency iteration #    2

  Date     :  20190514, Time     :  123608.491
------------------------------------------------------------
  Evaluating new KS density using the density matrix
  Evaluating density matrix
  Time summed over all CPUs for getting density from density matrix: real work        0.151 s, elapsed        0.151 s
  Integration grid: deviation in total charge (<rho> - N_e) =  -4.281020E-13
  Pulay mixing of updated and previous charge densities.

  Evaluating partitioned Hartree potential by multipole expansion.
  | Analytical far-field extrapolation by fixed multipoles:
  | Hartree multipole sum: apparent total charge =  -0.252297E-02
  Summing up the Hartree potential.
  Time summed over all CPUs for potential: real work        0.161 s, elapsed        0.161 s
  | RMS charge density error from multipole expansion :   0.195767E-02
  | Average real-space part of the electrostatic potential :     -0.22889651 eV

  Integrating Hamiltonian matrix: batch-based integration.
  Time summed over all CPUs for integration: real work        0.099 s, elapsed        0.099 s

  Updating Kohn-Sham eigenvalues, eigenvectors, occupation numbers, and Fermi level.
  Solving generalized eigenproblem

  Obtaining occupation numbers and chemical potential using ELSI.
  | Chemical potential (Fermi level):    -4.79856256eV
  What follows are estimated values for band gap, HOMO, LUMO, etc.
  | They are estimated on a discrete k-point grid and not necessarily exact.
  | For converged numbers, create a DOS and/or band structure plot on a denser k-grid.

  Highest occupied state (VBM) at     -4.80918474 eV (relative to internal zero)
  | Occupation number:      1.86695541
  | K-point:     698 at    0.583333    0.250000    0.250000 (in units of recip. lattice)

  Lowest unoccupied state (CBM) at    -4.79725864 eV (relative to internal zero)
  | Occupation number:      0.85369848
  | K-point:     674 at    0.500000    0.583333    0.250000 (in units of recip. lattice)

  ESTIMATED overall HOMO-LUMO gap:      0.01192610 eV between HOMO at k-point 698 and LUMO at k-point 674
  | This appears to be an indirect band gap.
  | Smallest direct gap :      1.07849724 eV for k_point 376 at    0.500000    0.583333    0.250000 (in units of recip. lattice)
  However, this system has fractional occupation numbers. Since we use a finite k-point grid,
  this material is metallic within the approximate finite broadening function (occupation_type)
  applied to determine the occupation numbers.

  Checking to see if s.c.f. parameters should be adjusted.
  Adjusted the Pulay mixing parameter (charge_mix_param) for an expected low-gap system. New value:   0.020000 .
  Adjusted the occupation broadening width for an expected low-gap system. New value:      0.05000000 eV.

  Total energy components:
  | Sum of eigenvalues            :        -163.78363106 Ha       -4456.77935952 eV
  | XC energy correction          :         -19.63405017 Ha        -534.26968838 eV
  | XC potential correction       :          25.94132822 Ha         705.89945664 eV
  | Free-atom electrostatic energy:        -132.18951458 Ha       -3597.05970823 eV
  | Hartree energy correction     :           0.39283301 Ha          10.68953013 eV
  | Entropy correction            :          -0.00003711 Ha          -0.00100990 eV
  | ---------------------------
  | Total energy                  :        -289.27303458 Ha       -7871.51976937 eV
  | Total energy, T -> 0          :        -289.27307169 Ha       -7871.52077926 eV  <-- do not rely on this value for anything but (periodic) metals
  | Electronic free energy        :        -289.27310880 Ha       -7871.52178916 eV

  Derived energy quantities:
  | Kinetic energy                :         289.26009498 Ha        7871.16766504 eV
  | Electrostatic energy          :        -558.89907939 Ha      -15208.41774603 eV
  | Energy correction for multipole
  | error in Hartree potential    :           0.00020015 Ha           0.00544624 eV
  | Sum of eigenvalues per atom                           :       -4456.77935952 eV
  | Total energy (T->0) per atom                          :       -7871.52077926 eV  <-- do not rely on this value for anything but (periodic) metals
  | Electronic free energy per atom                       :       -7871.52178916 eV

  Self-consistency convergence accuracy:
  | Change of charge density      :  0.2793E-01
  | Change of sum of eigenvalues  : -0.9824E+01 eV
  | Change of total energy        :  0.2890E-01 eV

  End self-consistency iteration #     2       :  max(cpu_time)    wall_clock(cpu1)
  | Time for this iteration                    :        0.550 s           0.550 s
  | Charge density update                      :        0.163 s           0.163 s
  | Density mixing & preconditioning           :        0.018 s           0.018 s
  | Hartree multipole update                   :        0.000 s           0.000 s
  | Hartree multipole summation                :        0.162 s           0.163 s
  | Integration                                :        0.100 s           0.099 s
  | Solution of K.-S. eqns.                    :        0.106 s           0.106 s
  | Total energy evaluation                    :        0.000 s           0.001 s

  Partial memory accounting:
  | Current value for overall tracked memory usage on task 0  :           2.647 MB
  | Peak value for overall tracked memory usage on task 0     :           3.828 MB after allocating wave
  | Largest tracked array allocation on task 0 so far         :           2.500 MB  when allocating +KS_eigenvector_complex
  Note:  These values currently only include a subset of arrays which are explicitly tracked.
  The "true" memory usage will be greater.
------------------------------------------------------------

------------------------------------------------------------
          Begin self-consistency iteration #    3

  Date     :  20190514, Time     :  123609.041
------------------------------------------------------------
  Evaluating new KS density using the density matrix
  Evaluating density matrix
  Time summed over all CPUs for getting density from density matrix: real work        0.151 s, elapsed        0.151 s
  Integration grid: deviation in total charge (<rho> - N_e) =  -3.179679E-13
  Pulay mixing of updated and previous charge densities.

  Evaluating partitioned Hartree potential by multipole expansion.
  | Analytical far-field extrapolation by fixed multipoles:
  | Hartree multipole sum: apparent total charge =  -0.292444E-02
  Summing up the Hartree potential.
  Time summed over all CPUs for potential: real work        0.162 s, elapsed        0.162 s
  | RMS charge density error from multipole expansion :   0.220215E-02
  | Average real-space part of the electrostatic potential :     -0.26758957 eV

  Integrating Hamiltonian matrix: batch-based integration.
  Time summed over all CPUs for integration: real work        0.113 s, elapsed        0.113 s

  Updating Kohn-Sham eigenvalues, eigenvectors, occupation numbers, and Fermi level.
  Solving generalized eigenproblem

  Obtaining occupation numbers and chemical potential using ELSI.
  | Chemical potential (Fermi level):    -4.82290201eV
  What follows are estimated values for band gap, HOMO, LUMO, etc.
  | They are estimated on a discrete k-point grid and not necessarily exact.
  | For converged numbers, create a DOS and/or band structure plot on a denser k-grid.

  Highest occupied state (VBM) at     -4.83123409 eV (relative to internal zero)
  | Occupation number:      1.18630877
  | K-point:      32 at    0.000000    0.250000    0.666667 (in units of recip. lattice)

  Lowest unoccupied state (CBM) at    -4.81991398 eV (relative to internal zero)
  | Occupation number:      0.93264771
  | K-point:     326 at    0.250000    0.250000    0.916667 (in units of recip. lattice)

  ESTIMATED overall HOMO-LUMO gap:      0.01132010 eV between HOMO at k-point 32 and LUMO at k-point 326
  | This appears to be an indirect band gap.
  | Smallest direct gap :      1.07920102 eV for k_point 376 at    0.250000    0.250000    0.916667 (in units of recip. lattice)
  However, this system has fractional occupation numbers. Since we use a finite k-point grid,
  this material is metallic within the approximate finite broadening function (occupation_type)
  applied to determine the occupation numbers.

  Total energy components:
  | Sum of eigenvalues            :        -163.80267488 Ha       -4457.29756823 eV
  | XC energy correction          :         -19.63401485 Ha        -534.26872725 eV
  | XC potential correction       :          25.94132344 Ha         705.89932648 eV
  | Free-atom electrostatic energy:        -132.18951458 Ha       -3597.05970823 eV
  | Hartree energy correction     :           0.41189928 Ha          11.20834961 eV
  | Entropy correction            :          -0.00003685 Ha          -0.00100282 eV
  | ---------------------------
  | Total energy                  :        -289.27298159 Ha       -7871.51832761 eV
  | Total energy, T -> 0          :        -289.27301845 Ha       -7871.51933043 eV  <-- do not rely on this value for anything but (periodic) metals
  | Electronic free energy        :        -289.27305530 Ha       -7871.52033325 eV

  Derived energy quantities:
  | Kinetic energy                :         289.30828635 Ha        7872.47901885 eV
  | Electrostatic energy          :        -558.94725310 Ha      -15209.72861922 eV
  | Energy correction for multipole
  | error in Hartree potential    :           0.00024291 Ha           0.00660998 eV
  | Sum of eigenvalues per atom                           :       -4457.29756823 eV
  | Total energy (T->0) per atom                          :       -7871.51933043 eV  <-- do not rely on this value for anything but (periodic) metals
  | Electronic free energy per atom                       :       -7871.52033325 eV

  Self-consistency convergence accuracy:
  | Change of charge density      :  0.7044E-02
  | Change of sum of eigenvalues  : -0.5182E+00 eV
  | Change of total energy        :  0.1442E-02 eV

  End self-consistency iteration #     3       :  max(cpu_time)    wall_clock(cpu1)
  | Time for this iteration                    :        0.563 s           0.563 s
  | Charge density update                      :        0.163 s           0.163 s
  | Density mixing & preconditioning           :        0.017 s           0.017 s
  | Hartree multipole update                   :        0.000 s           0.001 s
  | Hartree multipole summation                :        0.164 s           0.163 s
  | Integration                                :        0.113 s           0.113 s
  | Solution of K.-S. eqns.                    :        0.106 s           0.106 s
  | Total energy evaluation                    :        0.000 s           0.000 s

  Partial memory accounting:
  | Current value for overall tracked memory usage on task 0  :           2.647 MB
  | Peak value for overall tracked memory usage on task 0     :           3.828 MB after allocating wave
  | Largest tracked array allocation on task 0 so far         :           2.500 MB  when allocating +KS_eigenvector_complex
  Note:  These values currently only include a subset of arrays which are explicitly tracked.
  The "true" memory usage will be greater.
------------------------------------------------------------

------------------------------------------------------------
          Begin self-consistency iteration #    4

  Date     :  20190514, Time     :  123609.604
------------------------------------------------------------
  Evaluating new KS density using the density matrix
  Evaluating density matrix
  Time summed over all CPUs for getting density from density matrix: real work        0.151 s, elapsed        0.151 s
  Integration grid: deviation in total charge (<rho> - N_e) =  -3.161915E-13
  Pulay mixing of updated and previous charge densities.

  Evaluating partitioned Hartree potential by multipole expansion.
  | Analytical far-field extrapolation by fixed multipoles:
  | Hartree multipole sum: apparent total charge =  -0.310842E-02
  Summing up the Hartree potential.
  Time summed over all CPUs for potential: real work        0.163 s, elapsed        0.163 s
  | RMS charge density error from multipole expansion :   0.236195E-02
  | Average real-space part of the electrostatic potential :     -0.29155405 eV

  Integrating Hamiltonian matrix: batch-based integration.
  Time summed over all CPUs for integration: real work        0.098 s, elapsed        0.098 s

  Updating Kohn-Sham eigenvalues, eigenvectors, occupation numbers, and Fermi level.
  Solving generalized eigenproblem

  Obtaining occupation numbers and chemical potential using ELSI.
  | Chemical potential (Fermi level):    -4.83696502eV
  What follows are estimated values for band gap, HOMO, LUMO, etc.
  | They are estimated on a discrete k-point grid and not necessarily exact.
  | For converged numbers, create a DOS and/or band structure plot on a denser k-grid.

  Highest occupied state (VBM) at     -4.84486661 eV (relative to internal zero)
  | Occupation number:      1.17684642
  | K-point:      32 at    0.000000    0.250000    0.666667 (in units of recip. lattice)

  Lowest unoccupied state (CBM) at    -4.83606617 eV (relative to internal zero)
  | Occupation number:      0.97971721
  | K-point:     326 at    0.250000    0.250000    0.916667 (in units of recip. lattice)

  ESTIMATED overall HOMO-LUMO gap:      0.00880045 eV between HOMO at k-point 32 and LUMO at k-point 326
  | This appears to be an indirect band gap.
  | Smallest direct gap :      1.07958476 eV for k_point 376 at    0.250000    0.250000    0.916667 (in units of recip. lattice)
  However, this system has fractional occupation numbers. Since we use a finite k-point grid,
  this material is metallic within the approximate finite broadening function (occupation_type)
  applied to determine the occupation numbers.

  Total energy components:
  | Sum of eigenvalues            :        -163.81728220 Ha       -4457.69505377 eV
  | XC energy correction          :         -19.63362936 Ha        -534.25823775 eV
  | XC potential correction       :          25.94083741 Ha         705.88610113 eV
  | Free-atom electrostatic energy:        -132.18951458 Ha       -3597.05970823 eV
  | Hartree energy correction     :           0.42661539 Ha          11.60879551 eV
  | Entropy correction            :          -0.00003678 Ha          -0.00100094 eV
  | ---------------------------
  | Total energy                  :        -289.27297334 Ha       -7871.51810311 eV
  | Total energy, T -> 0          :        -289.27301013 Ha       -7871.51910405 eV  <-- do not rely on this value for anything but (periodic) metals
  | Electronic free energy        :        -289.27304691 Ha       -7871.52010499 eV

  Derived energy quantities:
  | Kinetic energy                :         289.33098217 Ha        7873.09660354 eV
  | Electrostatic energy          :        -558.97032615 Ha      -15210.35646890 eV
  | Energy correction for multipole
  | error in Hartree potential    :           0.00026937 Ha           0.00732988 eV
  | Sum of eigenvalues per atom                           :       -4457.69505377 eV
  | Total energy (T->0) per atom                          :       -7871.51910405 eV  <-- do not rely on this value for anything but (periodic) metals
  | Electronic free energy per atom                       :       -7871.52010499 eV

  Self-consistency convergence accuracy:
  | Change of charge density      :  0.2272E-02
  | Change of sum of eigenvalues  : -0.3975E+00 eV
  | Change of total energy        :  0.2245E-03 eV

  End self-consistency iteration #     4       :  max(cpu_time)    wall_clock(cpu1)
  | Time for this iteration                    :        0.551 s           0.551 s
  | Charge density update                      :        0.163 s           0.163 s
  | Density mixing & preconditioning           :        0.017 s           0.017 s
  | Hartree multipole update                   :        0.000 s           0.000 s
  | Hartree multipole summation                :        0.165 s           0.165 s
  | Integration                                :        0.098 s           0.098 s
  | Solution of K.-S. eqns.                    :        0.108 s           0.108 s
  | Total energy evaluation                    :        0.000 s           0.000 s

  Partial memory accounting:
  | Current value for overall tracked memory usage on task 0  :           2.648 MB
  | Peak value for overall tracked memory usage on task 0     :           3.828 MB after allocating wave
  | Largest tracked array allocation on task 0 so far         :           2.500 MB  when allocating +KS_eigenvector_complex
  Note:  These values currently only include a subset of arrays which are explicitly tracked.
  The "true" memory usage will be greater.
------------------------------------------------------------

------------------------------------------------------------
          Begin self-consistency iteration #    5

  Date     :  20190514, Time     :  123610.155
------------------------------------------------------------
  Evaluating new KS density using the density matrix
  Evaluating density matrix
  Time summed over all CPUs for getting density from density matrix: real work        0.152 s, elapsed        0.152 s
  Integration grid: deviation in total charge (<rho> - N_e) =  -2.966516E-13
  Pulay mixing of updated and previous charge densities.

  Evaluating partitioned Hartree potential by multipole expansion.
  | Analytical far-field extrapolation by fixed multipoles:
  | Hartree multipole sum: apparent total charge =  -0.247214E-02
  Summing up the Hartree potential.
  Time summed over all CPUs for potential: real work        0.162 s, elapsed        0.162 s
  | RMS charge density error from multipole expansion :   0.237045E-02
  | Average real-space part of the electrostatic potential :     -0.29564382 eV

  Integrating Hamiltonian matrix: batch-based integration.
  Time summed over all CPUs for integration: real work        0.098 s, elapsed        0.098 s

  Updating Kohn-Sham eigenvalues, eigenvectors, occupation numbers, and Fermi level.
  Solving generalized eigenproblem

  Obtaining occupation numbers and chemical potential using ELSI.
  | Chemical potential (Fermi level):    -4.83683464eV
  What follows are estimated values for band gap, HOMO, LUMO, etc.
  | They are estimated on a discrete k-point grid and not necessarily exact.
  | For converged numbers, create a DOS and/or band structure plot on a denser k-grid.

  Highest occupied state (VBM) at     -4.84472225 eV (relative to internal zero)
  | Occupation number:      1.17653854
  | K-point:      32 at    0.000000    0.250000    0.666667 (in units of recip. lattice)

  Lowest unoccupied state (CBM) at    -4.83600327 eV (relative to internal zero)
  | Occupation number:      0.98123967
  | K-point:     294 at    0.250000    0.000000    0.333333 (in units of recip. lattice)

  ESTIMATED overall HOMO-LUMO gap:      0.00871898 eV between HOMO at k-point 32 and LUMO at k-point 294
  | This appears to be an indirect band gap.
  | Smallest direct gap :      1.07958955 eV for k_point 376 at    0.250000    0.000000    0.333333 (in units of recip. lattice)
  However, this system has fractional occupation numbers. Since we use a finite k-point grid,
  this material is metallic within the approximate finite broadening function (occupation_type)
  applied to determine the occupation numbers.

  Total energy components:
  | Sum of eigenvalues            :        -163.81960048 Ha       -4457.75813720 eV
  | XC energy correction          :         -19.63310359 Ha        -534.24393060 eV
  | XC potential correction       :          25.94014374 Ha         705.86722518 eV
  | Free-atom electrostatic energy:        -132.18951458 Ha       -3597.05970823 eV
  | Hartree energy correction     :           0.42910159 Ha          11.67644848 eV
  | Entropy correction            :          -0.00003678 Ha          -0.00100086 eV
  | ---------------------------
  | Total energy                  :        -289.27297332 Ha       -7871.51810237 eV
  | Total energy, T -> 0          :        -289.27301010 Ha       -7871.51910324 eV  <-- do not rely on this value for anything but (periodic) metals
  | Electronic free energy        :        -289.27304688 Ha       -7871.52010410 eV

  Derived energy quantities:
  | Kinetic energy                :         289.32462095 Ha        7872.92350603 eV
  | Electrostatic energy          :        -558.96449068 Ha      -15210.19767780 eV
  | Energy correction for multipole
  | error in Hartree potential    :           0.00027015 Ha           0.00735125 eV
  | Sum of eigenvalues per atom                           :       -4457.75813720 eV
  | Total energy (T->0) per atom                          :       -7871.51910324 eV  <-- do not rely on this value for anything but (periodic) metals
  | Electronic free energy per atom                       :       -7871.52010410 eV

  Self-consistency convergence accuracy:
  | Change of charge density      :  0.7368E-03
  | Change of sum of eigenvalues  : -0.6308E-01 eV
  | Change of total energy        :  0.7333E-06 eV

  End self-consistency iteration #     5       :  max(cpu_time)    wall_clock(cpu1)
  | Time for this iteration                    :        0.553 s           0.554 s
  | Charge density update                      :        0.165 s           0.165 s
  | Density mixing & preconditioning           :        0.018 s           0.018 s
  | Hartree multipole update                   :        0.000 s           0.000 s
  | Hartree multipole summation                :        0.164 s           0.165 s
  | Integration                                :        0.099 s           0.098 s
  | Solution of K.-S. eqns.                    :        0.107 s           0.107 s
  | Total energy evaluation                    :        0.000 s           0.001 s

  Partial memory accounting:
  | Current value for overall tracked memory usage on task 0  :           2.648 MB
  | Peak value for overall tracked memory usage on task 0     :           3.828 MB after allocating wave
  | Largest tracked array allocation on task 0 so far         :           2.500 MB  when allocating +KS_eigenvector_complex
  Note:  These values currently only include a subset of arrays which are explicitly tracked.
  The "true" memory usage will be greater.
------------------------------------------------------------

------------------------------------------------------------
          Begin self-consistency iteration #    6

  Date     :  20190514, Time     :  123610.709
------------------------------------------------------------
  Evaluating new KS density using the density matrix
  Evaluating density matrix
  Time summed over all CPUs for getting density from density matrix: real work        0.153 s, elapsed        0.153 s
  Integration grid: deviation in total charge (<rho> - N_e) =  -3.410605E-13
  Pulay mixing of updated and previous charge densities.

  Evaluating partitioned Hartree potential by multipole expansion.
  | Analytical far-field extrapolation by fixed multipoles:
  | Hartree multipole sum: apparent total charge =  -0.192605E-03
  Summing up the Hartree potential.
  Time summed over all CPUs for potential: real work        0.165 s, elapsed        0.165 s
  | RMS charge density error from multipole expansion :   0.235872E-02
  | Average real-space part of the electrostatic potential :     -0.30654004 eV

  Integrating Hamiltonian matrix: batch-based integration.
  Time summed over all CPUs for integration: real work        0.100 s, elapsed        0.100 s

  Updating Kohn-Sham eigenvalues, eigenvectors, occupation numbers, and Fermi level.
  Solving generalized eigenproblem

  Obtaining occupation numbers and chemical potential using ELSI.
  | Chemical potential (Fermi level):    -4.83288322eV
  What follows are estimated values for band gap, HOMO, LUMO, etc.
  | They are estimated on a discrete k-point grid and not necessarily exact.
  | For converged numbers, create a DOS and/or band structure plot on a denser k-grid.

  Highest occupied state (VBM) at     -4.84086280 eV (relative to internal zero)
  | Occupation number:      1.17856261
  | K-point:     440 at    0.333333    0.333333    0.583333 (in units of recip. lattice)

  Lowest unoccupied state (CBM) at    -4.83164395 eV (relative to internal zero)
  | Occupation number:      0.97203838
  | K-point:      65 at    0.000000    0.666667    0.750000 (in units of recip. lattice)

  ESTIMATED overall HOMO-LUMO gap:      0.00921885 eV between HOMO at k-point 440 and LUMO at k-point 65
  | This appears to be an indirect band gap.
  | Smallest direct gap :      1.07966717 eV for k_point 680 at    0.000000    0.666667    0.750000 (in units of recip. lattice)
  However, this system has fractional occupation numbers. Since we use a finite k-point grid,
  this material is metallic within the approximate finite broadening function (occupation_type)
  applied to determine the occupation numbers.

  Total energy components:
  | Sum of eigenvalues            :        -163.81320690 Ha       -4457.58415906 eV
  | XC energy correction          :         -19.63278785 Ha        -534.23533895 eV
  | XC potential correction       :          25.93973616 Ha         705.85613450 eV
  | Free-atom electrostatic energy:        -132.18951458 Ha       -3597.05970823 eV
  | Hartree energy correction     :           0.42280012 Ha          11.50497665 eV
  | Entropy correction            :          -0.00003679 Ha          -0.00100121 eV
  | ---------------------------
  | Total energy                  :        -289.27297305 Ha       -7871.51809509 eV
  | Total energy, T -> 0          :        -289.27300984 Ha       -7871.51909630 eV  <-- do not rely on this value for anything but (periodic) metals
  | Electronic free energy        :        -289.27304664 Ha       -7871.52009751 eV

  Derived energy quantities:
  | Kinetic energy                :         289.32558992 Ha        7872.94987312 eV
  | Electrostatic energy          :        -558.96577512 Ha      -15210.23262926 eV
  | Energy correction for multipole
  | error in Hartree potential    :           0.00027046 Ha           0.00735971 eV
  | Sum of eigenvalues per atom                           :       -4457.58415906 eV
  | Total energy (T->0) per atom                          :       -7871.51909630 eV  <-- do not rely on this value for anything but (periodic) metals
  | Electronic free energy per atom                       :       -7871.52009751 eV

  Self-consistency convergence accuracy:
  | Change of charge density      :  0.5798E-03
  | Change of sum of eigenvalues  :  0.1740E+00 eV
  | Change of total energy        :  0.7286E-05 eV

  End self-consistency iteration #     6       :  max(cpu_time)    wall_clock(cpu1)
  | Time for this iteration                    :        0.559 s           0.558 s
  | Charge density update                      :        0.165 s           0.165 s
  | Density mixing & preconditioning           :        0.017 s           0.017 s
  | Hartree multipole update                   :        0.000 s           0.000 s
  | Hartree multipole summation                :        0.167 s           0.167 s
  | Integration                                :        0.100 s           0.100 s
  | Solution of K.-S. eqns.                    :        0.109 s           0.109 s
  | Total energy evaluation                    :        0.000 s           0.000 s

  Partial memory accounting:
  | Current value for overall tracked memory usage on task 0  :           2.648 MB
  | Peak value for overall tracked memory usage on task 0     :           3.828 MB after allocating wave
  | Largest tracked array allocation on task 0 so far         :           2.500 MB  when allocating +KS_eigenvector_complex
  Note:  These values currently only include a subset of arrays which are explicitly tracked.
  The "true" memory usage will be greater.
------------------------------------------------------------

------------------------------------------------------------
          Begin self-consistency iteration #    7

  Date     :  20190514, Time     :  123611.267
------------------------------------------------------------
  Evaluating new KS density using the density matrix
  Evaluating density matrix
  Time summed over all CPUs for getting density from density matrix: real work        0.153 s, elapsed        0.153 s
  Integration grid: deviation in total charge (<rho> - N_e) =  -3.996803E-13
  Pulay mixing of updated and previous charge densities.

  Evaluating partitioned Hartree potential by multipole expansion.
  | Analytical far-field extrapolation by fixed multipoles:
  | Hartree multipole sum: apparent total charge =  -0.221266E-03
  Summing up the Hartree potential.
  Time summed over all CPUs for potential: real work        0.165 s, elapsed        0.165 s
  | RMS charge density error from multipole expansion :   0.236572E-02
  | Average real-space part of the electrostatic potential :     -0.30757551 eV

  Integrating Hamiltonian matrix: batch-based integration.
  Time summed over all CPUs for integration: real work        0.100 s, elapsed        0.100 s

  Updating Kohn-Sham eigenvalues, eigenvectors, occupation numbers, and Fermi level.
  Solving generalized eigenproblem

  Obtaining occupation numbers and chemical potential using ELSI.
  | Chemical potential (Fermi level):    -4.83381129eV
  What follows are estimated values for band gap, HOMO, LUMO, etc.
  | They are estimated on a discrete k-point grid and not necessarily exact.
  | For converged numbers, create a DOS and/or band structure plot on a denser k-grid.

  Highest occupied state (VBM) at     -4.84175943 eV (relative to internal zero)
  | Occupation number:      1.17787071
  | K-point:      42 at    0.000000    0.333333    0.750000 (in units of recip. lattice)

  Lowest unoccupied state (CBM) at    -4.83271858 eV (relative to internal zero)
  | Occupation number:      0.97534410
  | K-point:     392 at    0.250000    0.916667    0.250000 (in units of recip. lattice)

  ESTIMATED overall HOMO-LUMO gap:      0.00904084 eV between HOMO at k-point 42 and LUMO at k-point 392
  | This appears to be an indirect band gap.
  | Smallest direct gap :      1.07967353 eV for k_point 779 at    0.250000    0.916667    0.250000 (in units of recip. lattice)
  However, this system has fractional occupation numbers. Since we use a finite k-point grid,
  this material is metallic within the approximate finite broadening function (occupation_type)
  applied to determine the occupation numbers.

  Total energy components:
  | Sum of eigenvalues            :        -163.81518368 Ha       -4457.63795001 eV
  | XC energy correction          :         -19.63264159 Ha        -534.23135902 eV
  | XC potential correction       :          25.93954319 Ha         705.85088357 eV
  | Free-atom electrostatic energy:        -132.18951458 Ha       -3597.05970823 eV
  | Hartree energy correction     :           0.42482372 Ha          11.56004172 eV
  | Entropy correction            :          -0.00003679 Ha          -0.00100108 eV
  | ---------------------------
  | Total energy                  :        -289.27297293 Ha       -7871.51809196 eV
  | Total energy, T -> 0          :        -289.27300972 Ha       -7871.51909303 eV  <-- do not rely on this value for anything but (periodic) metals
  | Electronic free energy        :        -289.27304651 Ha       -7871.52009411 eV

  Derived energy quantities:
  | Kinetic energy                :         289.32430008 Ha        7872.91477464 eV
  | Electrostatic energy          :        -558.96463142 Ha      -15210.20150758 eV
  | Energy correction for multipole
  | error in Hartree potential    :           0.00027116 Ha           0.00737859 eV
  | Sum of eigenvalues per atom                           :       -4457.63795001 eV
  | Total energy (T->0) per atom                          :       -7871.51909303 eV  <-- do not rely on this value for anything but (periodic) metals
  | Electronic free energy per atom                       :       -7871.52009411 eV

  Self-consistency convergence accuracy:
  | Change of charge density      :  0.6207E-04
  | Change of sum of eigenvalues  : -0.5379E-01 eV
  | Change of total energy        :  0.3130E-05 eV

  End self-consistency iteration #     7       :  max(cpu_time)    wall_clock(cpu1)
  | Time for this iteration                    :        0.557 s           0.558 s
  | Charge density update                      :        0.166 s           0.166 s
  | Density mixing & preconditioning           :        0.017 s           0.017 s
  | Hartree multipole update                   :        0.000 s           0.001 s
  | Hartree multipole summation                :        0.166 s           0.166 s
  | Integration                                :        0.101 s           0.100 s
  | Solution of K.-S. eqns.                    :        0.107 s           0.107 s
  | Total energy evaluation                    :        0.000 s           0.000 s

  Partial memory accounting:
  | Current value for overall tracked memory usage on task 0  :           2.649 MB
  | Peak value for overall tracked memory usage on task 0     :           3.828 MB after allocating wave
  | Largest tracked array allocation on task 0 so far         :           2.500 MB  when allocating +KS_eigenvector_complex
  Note:  These values currently only include a subset of arrays which are explicitly tracked.
  The "true" memory usage will be greater.
------------------------------------------------------------

------------------------------------------------------------
          Begin self-consistency iteration #    8

  Date     :  20190514, Time     :  123611.825
------------------------------------------------------------
  Evaluating new KS density using the density matrix
  Evaluating density matrix
  Time summed over all CPUs for getting density from density matrix: real work        0.151 s, elapsed        0.151 s
  Integration grid: deviation in total charge (<rho> - N_e) =  -3.286260E-13
  Pulay mixing of updated and previous charge densities.

  Evaluating partitioned Hartree potential by multipole expansion.
  | Analytical far-field extrapolation by fixed multipoles:
  | Hartree multipole sum: apparent total charge =   0.561072E-04
  Summing up the Hartree potential.
  Time summed over all CPUs for potential: real work        0.161 s, elapsed        0.161 s
  | RMS charge density error from multipole expansion :   0.235468E-02
  | Average real-space part of the electrostatic potential :     -0.30788193 eV

  Integrating Hamiltonian matrix: batch-based integration.
  Time summed over all CPUs for integration: real work        0.098 s, elapsed        0.098 s

  Updating Kohn-Sham eigenvalues, eigenvectors, occupation numbers, and Fermi level.
  Solving generalized eigenproblem

  Obtaining occupation numbers and chemical potential using ELSI.
  | Chemical potential (Fermi level):    -4.83272521eV
  What follows are estimated values for band gap, HOMO, LUMO, etc.
  | They are estimated on a discrete k-point grid and not necessarily exact.
  | For converged numbers, create a DOS and/or band structure plot on a denser k-grid.

  Highest occupied state (VBM) at     -4.84070592 eV (relative to internal zero)
  | Occupation number:      1.17858756
  | K-point:      32 at    0.000000    0.250000    0.666667 (in units of recip. lattice)

  Lowest unoccupied state (CBM) at    -4.83148103 eV (relative to internal zero)
  | Occupation number:      0.97192757
  | K-point:     326 at    0.250000    0.250000    0.916667 (in units of recip. lattice)

  ESTIMATED overall HOMO-LUMO gap:      0.00922490 eV between HOMO at k-point 32 and LUMO at k-point 326
  | This appears to be an indirect band gap.
  | Smallest direct gap :      1.07967628 eV for k_point 376 at    0.250000    0.250000    0.916667 (in units of recip. lattice)
  However, this system has fractional occupation numbers. Since we use a finite k-point grid,
  this material is metallic within the approximate finite broadening function (occupation_type)
  applied to determine the occupation numbers.

  Total energy components:
  | Sum of eigenvalues            :        -163.81291043 Ha       -4457.57609182 eV
  | XC energy correction          :         -19.63274048 Ha        -534.23404991 eV
  | XC potential correction       :          25.93967487 Ha         705.85446667 eV
  | Free-atom electrostatic energy:        -132.18951458 Ha       -3597.05970823 eV
  | Hartree energy correction     :           0.42251750 Ha          11.49728613 eV
  | Entropy correction            :          -0.00003679 Ha          -0.00100123 eV
  | ---------------------------
  | Total energy                  :        -289.27297312 Ha       -7871.51809716 eV
  | Total energy, T -> 0          :        -289.27300992 Ha       -7871.51909838 eV  <-- do not rely on this value for anything but (periodic) metals
  | Electronic free energy        :        -289.27304671 Ha       -7871.52009961 eV

  Derived energy quantities:
  | Kinetic energy                :         289.32567282 Ha        7872.95212895 eV
  | Electrostatic energy          :        -558.96590547 Ha      -15210.23617619 eV
  | Energy correction for multipole
  | error in Hartree potential    :           0.00026994 Ha           0.00734546 eV
  | Sum of eigenvalues per atom                           :       -4457.57609182 eV
  | Total energy (T->0) per atom                          :       -7871.51909838 eV  <-- do not rely on this value for anything but (periodic) metals
  | Electronic free energy per atom                       :       -7871.52009961 eV

  Self-consistency convergence accuracy:
  | Change of charge density      :  0.1508E-03
  | Change of sum of eigenvalues  :  0.6186E-01 eV
  | Change of total energy        : -0.5198E-05 eV

  End self-consistency iteration #     8       :  max(cpu_time)    wall_clock(cpu1)
  | Time for this iteration                    :        0.549 s           0.549 s
  | Charge density update                      :        0.164 s           0.163 s
  | Density mixing & preconditioning           :        0.017 s           0.017 s
  | Hartree multipole update                   :        0.000 s           0.001 s
  | Hartree multipole summation                :        0.163 s           0.163 s
  | Integration                                :        0.098 s           0.098 s
  | Solution of K.-S. eqns.                    :        0.107 s           0.107 s
  | Total energy evaluation                    :        0.000 s           0.000 s

  Partial memory accounting:
  | Current value for overall tracked memory usage on task 0  :           2.649 MB
  | Peak value for overall tracked memory usage on task 0     :           3.828 MB after allocating wave
  | Largest tracked array allocation on task 0 so far         :           2.500 MB  when allocating +KS_eigenvector_complex
  Note:  These values currently only include a subset of arrays which are explicitly tracked.
  The "true" memory usage will be greater.
------------------------------------------------------------

------------------------------------------------------------
          Begin self-consistency iteration #    9

  Date     :  20190514, Time     :  123612.374
------------------------------------------------------------
  Evaluating new KS density using the density matrix
  Evaluating density matrix
  Time summed over all CPUs for getting density from density matrix: real work        0.151 s, elapsed        0.151 s
  Integration grid: deviation in total charge (<rho> - N_e) =  -4.050094E-13
  Pulay mixing of updated and previous charge densities.

  Evaluating partitioned Hartree potential by multipole expansion.
  | Analytical far-field extrapolation by fixed multipoles:
  | Hartree multipole sum: apparent total charge =   0.541440E-04
  Summing up the Hartree potential.
  Time summed over all CPUs for potential: real work        0.162 s, elapsed        0.162 s
  | RMS charge density error from multipole expansion :   0.235476E-02
  | Average real-space part of the electrostatic potential :     -0.30790178 eV

  Integrating Hamiltonian matrix: batch-based integration.
  Time summed over all CPUs for integration: real work        0.101 s, elapsed        0.101 s

  Updating Kohn-Sham eigenvalues, eigenvectors, occupation numbers, and Fermi level.
  Solving generalized eigenproblem

  Obtaining occupation numbers and chemical potential using ELSI.
  | Chemical potential (Fermi level):    -4.83275264eV
  What follows are estimated values for band gap, HOMO, LUMO, etc.
  | They are estimated on a discrete k-point grid and not necessarily exact.
  | For converged numbers, create a DOS and/or band structure plot on a denser k-grid.

  Highest occupied state (VBM) at     -4.84073234 eV (relative to internal zero)
  | Occupation number:      1.17856532
  | K-point:     698 at    0.583333    0.250000    0.250000 (in units of recip. lattice)

  Lowest unoccupied state (CBM) at    -4.83151319 eV (relative to internal zero)
  | Occupation number:      0.97203425
  | K-point:     401 at    0.333333    0.000000    0.250000 (in units of recip. lattice)

  ESTIMATED overall HOMO-LUMO gap:      0.00921916 eV between HOMO at k-point 698 and LUMO at k-point 401
  | This appears to be an indirect band gap.
  | Smallest direct gap :      1.07967641 eV for k_point 779 at    0.333333    0.000000    0.250000 (in units of recip. lattice)
  However, this system has fractional occupation numbers. Since we use a finite k-point grid,
  this material is metallic within the approximate finite broadening function (occupation_type)
  applied to determine the occupation numbers.

  Total energy components:
  | Sum of eigenvalues            :        -163.81299840 Ha       -4457.57848553 eV
  | XC energy correction          :         -19.63273255 Ha        -534.23383419 eV
  | XC potential correction       :          25.93966437 Ha         705.85418102 eV
  | Free-atom electrostatic energy:        -132.18951458 Ha       -3597.05970823 eV
  | Hartree energy correction     :           0.42260804 Ha          11.49974991 eV
  | Entropy correction            :          -0.00003679 Ha          -0.00100122 eV
  | ---------------------------
  | Total energy                  :        -289.27297312 Ha       -7871.51809701 eV
  | Total energy, T -> 0          :        -289.27300991 Ha       -7871.51909823 eV  <-- do not rely on this value for anything but (periodic) metals
  | Electronic free energy        :        -289.27304671 Ha       -7871.52009945 eV

  Derived energy quantities:
  | Kinetic energy                :         289.32558107 Ha        7872.94963220 eV
  | Electrostatic energy          :        -558.96582164 Ha      -15210.23389502 eV
  | Energy correction for multipole
  | error in Hartree potential    :           0.00026996 Ha           0.00734598 eV
  | Sum of eigenvalues per atom                           :       -4457.57848553 eV
[...]
  | Hartree multipole update                   :        0.000 s           0.000 s
  | Hartree multipole summation                :        0.164 s           0.164 s
  | Integration                                :        0.101 s           0.101 s
  | Solution of K.-S. eqns.                    :        0.106 s           0.107 s
  | Total energy evaluation                    :        0.000 s           0.000 s

  Partial memory accounting:
  | Current value for overall tracked memory usage on task 0  :           2.649 MB
  | Peak value for overall tracked memory usage on task 0     :           3.828 MB after allocating wave
  | Largest tracked array allocation on task 0 so far         :           2.500 MB  when allocating +KS_eigenvector_complex
  Note:  These values currently only include a subset of arrays which are explicitly tracked.
  The "true" memory usage will be greater.
------------------------------------------------------------

------------------------------------------------------------
          Begin self-consistency iteration #   10

  Date     :  20190514, Time     :  123612.928
------------------------------------------------------------
  Evaluating new KS density using the density matrix
  Evaluating density matrix
  Time summed over all CPUs for getting density from density matrix: real work        0.150 s, elapsed        0.150 s
  Integration grid: deviation in total charge (<rho> - N_e) =  -2.717826E-13
  Pulay mixing of updated and previous charge densities.

  Evaluating partitioned Hartree potential by multipole expansion.
  | Analytical far-field extrapolation by fixed multipoles:
  | Hartree multipole sum: apparent total charge =   0.541056E-04
  Summing up the Hartree potential.
  Time summed over all CPUs for potential: real work        0.162 s, elapsed        0.162 s
  | RMS charge density error from multipole expansion :   0.235469E-02
  | Average real-space part of the electrostatic potential :     -0.30789120 eV

  Integrating Hamiltonian matrix: batch-based integration.
  Time summed over all CPUs for integration: real work        0.096 s, elapsed        0.096 s

  Updating Kohn-Sham eigenvalues, eigenvectors, occupation numbers, and Fermi level.
  Solving generalized eigenproblem

  Obtaining occupation numbers and chemical potential using ELSI.
  | Chemical potential (Fermi level):    -4.83274541eV
  What follows are estimated values for band gap, HOMO, LUMO, etc.
  | They are estimated on a discrete k-point grid and not necessarily exact.
  | For converged numbers, create a DOS and/or band structure plot on a denser k-grid.

  Highest occupied state (VBM) at     -4.84072538 eV (relative to internal zero)
  | Occupation number:      1.17857110
  | K-point:     585 at    0.416667    0.666667    0.666667 (in units of recip. lattice)

  Lowest unoccupied state (CBM) at    -4.83150472 eV (relative to internal zero)
  | Occupation number:      0.97200632
  | K-point:     401 at    0.333333    0.000000    0.250000 (in units of recip. lattice)

  ESTIMATED overall HOMO-LUMO gap:      0.00922066 eV between HOMO at k-point 585 and LUMO at k-point 401
  | This appears to be an indirect band gap.
  | Smallest direct gap :      1.07967634 eV for k_point 779 at    0.333333    0.000000    0.250000 (in units of recip. lattice)
  However, this system has fractional occupation numbers. Since we use a finite k-point grid,
  this material is metallic within the approximate finite broadening function (occupation_type)
  applied to determine the occupation numbers.

  Total energy components:
  | Sum of eigenvalues            :        -163.81297883 Ha       -4457.57795313 eV
  | XC energy correction          :         -19.63273437 Ha        -534.23388361 eV
  | XC potential correction       :          25.93966677 Ha         705.85424631 eV
  | Free-atom electrostatic energy:        -132.18951458 Ha       -3597.05970823 eV
  | Hartree energy correction     :           0.42258789 Ha          11.49920160 eV
  | Entropy correction            :          -0.00003679 Ha          -0.00100122 eV
  | ---------------------------
  | Total energy                  :        -289.27297312 Ha       -7871.51809707 eV
  | Total energy, T -> 0          :        -289.27300992 Ha       -7871.51909829 eV  <-- do not rely on this value for anything but (periodic) metals
  | Electronic free energy        :        -289.27304671 Ha       -7871.52009951 eV

  Derived energy quantities:
  | Kinetic energy                :         289.32559897 Ha        7872.95011939 eV
  | Electrostatic energy          :        -558.96583773 Ha      -15210.23433284 eV
  | Energy correction for multipole
  | error in Hartree potential    :           0.00026995 Ha           0.00734573 eV
  | Sum of eigenvalues per atom                           :       -4457.57795313 eV
  | Total energy (T->0) per atom                          :       -7871.51909829 eV  <-- do not rely on this value for anything but (periodic) metals
  | Electronic free energy per atom                       :       -7871.52009951 eV

  Self-consistency convergence accuracy:
  | Change of charge density      :  0.1586E-05
  | Change of sum of eigenvalues  :  0.5324E-03 eV
  | Change of total energy        : -0.5492E-07 eV

  End self-consistency iteration #    10       :  max(cpu_time)    wall_clock(cpu1)
  | Time for this iteration                    :        0.545 s           0.545 s
  | Charge density update                      :        0.163 s           0.163 s
  | Density mixing & preconditioning           :        0.017 s           0.017 s
  | Hartree multipole update                   :        0.000 s           0.001 s
  | Hartree multipole summation                :        0.163 s           0.163 s
  | Integration                                :        0.096 s           0.096 s
  | Solution of K.-S. eqns.                    :        0.105 s           0.105 s
  | Total energy evaluation                    :        0.000 s           0.000 s

  Partial memory accounting:
  | Current value for overall tracked memory usage on task 0  :           2.649 MB
  | Peak value for overall tracked memory usage on task 0     :           3.828 MB after allocating wave
  | Largest tracked array allocation on task 0 so far         :           2.500 MB  when allocating +KS_eigenvector_complex
  Note:  These values currently only include a subset of arrays which are explicitly tracked.
  The "true" memory usage will be greater.
------------------------------------------------------------

------------------------------------------------------------
          Begin self-consistency iteration #   11

  Date     :  20190514, Time     :  123613.473
------------------------------------------------------------
  Evaluating new KS density using the density matrix
  Evaluating density matrix
  Time summed over all CPUs for getting density from density matrix: real work        0.150 s, elapsed        0.150 s
  Integration grid: deviation in total charge (<rho> - N_e) =  -3.019807E-13
  Pulay mixing of updated and previous charge densities.

  Evaluating partitioned Hartree potential by multipole expansion.
  | Analytical far-field extrapolation by fixed multipoles:
  | Hartree multipole sum: apparent total charge =   0.550283E-04
  Summing up the Hartree potential.
  Time summed over all CPUs for potential: real work        0.164 s, elapsed        0.164 s
  | RMS charge density error from multipole expansion :   0.235467E-02
  | Average real-space part of the electrostatic potential :     -0.30789459 eV

  Integrating Hamiltonian matrix: batch-based integration.
  Time summed over all CPUs for integration: real work        0.097 s, elapsed        0.097 s

  Updating Kohn-Sham eigenvalues, eigenvectors, occupation numbers, and Fermi level.
  Solving generalized eigenproblem

  Obtaining occupation numbers and chemical potential using ELSI.
  | Chemical potential (Fermi level):    -4.83274370eV
  What follows are estimated values for band gap, HOMO, LUMO, etc.
  | They are estimated on a discrete k-point grid and not necessarily exact.
  | For converged numbers, create a DOS and/or band structure plot on a denser k-grid.

  Highest occupied state (VBM) at     -4.84072370 eV (relative to internal zero)
  | Occupation number:      1.17857179
  | K-point:     698 at    0.583333    0.250000    0.250000 (in units of recip. lattice)

  Lowest unoccupied state (CBM) at    -4.83150285 eV (relative to internal zero)
  | Occupation number:      0.97200291
  | K-point:     294 at    0.250000    0.000000    0.333333 (in units of recip. lattice)

  ESTIMATED overall HOMO-LUMO gap:      0.00922084 eV between HOMO at k-point 698 and LUMO at k-point 294
  | This appears to be an indirect band gap.
  | Smallest direct gap :      1.07967635 eV for k_point 779 at    0.250000    0.000000    0.333333 (in units of recip. lattice)
  However, this system has fractional occupation numbers. Since we use a finite k-point grid,
  this material is metallic within the approximate finite broadening function (occupation_type)
  applied to determine the occupation numbers.

  Total energy components:
  | Sum of eigenvalues            :        -163.81297695 Ha       -4457.57790200 eV
  | XC energy correction          :         -19.63273418 Ha        -534.23387854 eV
  | XC potential correction       :          25.93966653 Ha         705.85423970 eV
  | Free-atom electrostatic energy:        -132.18951458 Ha       -3597.05970823 eV
  | Hartree energy correction     :           0.42258607 Ha          11.49915198 eV
  | Entropy correction            :          -0.00003679 Ha          -0.00100122 eV
  | ---------------------------
  | Total energy                  :        -289.27297312 Ha       -7871.51809708 eV
  | Total energy, T -> 0          :        -289.27300992 Ha       -7871.51909831 eV  <-- do not rely on this value for anything but (periodic) metals
  | Electronic free energy        :        -289.27304671 Ha       -7871.52009953 eV

  Derived energy quantities:
  | Kinetic energy                :         289.32559886 Ha        7872.95011634 eV
  | Electrostatic energy          :        -558.96583781 Ha      -15210.23433488 eV
  | Energy correction for multipole
  | error in Hartree potential    :           0.00026995 Ha           0.00734565 eV
  | Sum of eigenvalues per atom                           :       -4457.57790200 eV
  | Total energy (T->0) per atom                          :       -7871.51909831 eV  <-- do not rely on this value for anything but (periodic) metals
  | Electronic free energy per atom                       :       -7871.52009953 eV

  Self-consistency convergence accuracy:
  | Change of charge density      :  0.2816E-06
  | Change of sum of eigenvalues  :  0.5114E-04 eV
  | Change of total energy        : -0.1868E-07 eV

  Preliminary charge convergence reached. Turning off preconditioner.

  Writing Kohn-Sham eigenvalues.
  K-point:       1 at    0.000000    0.000000    0.000000 (in units of recip. lattice)

  State    Occupation    Eigenvalue [Ha]    Eigenvalue [eV]
      1       2.00000         -65.535890        -1783.32231
      2       2.00000          -5.123565         -139.41929
      3       2.00000          -3.538471          -96.28671
      4       2.00000          -3.538471          -96.28671
      5       2.00000          -3.538471          -96.28671
      6       2.00000          -0.480169          -13.06607
      7       0.00000          -0.055872           -1.52036
      8       0.00000          -0.055872           -1.52036
      9       0.00000          -0.055872           -1.52036
     10       0.00000           0.129171            3.51492

  What follows are estimated values for band gap, HOMO, LUMO, etc.
  | They are estimated on a discrete k-point grid and not necessarily exact.
  | For converged numbers, create a DOS and/or band structure plot on a denser k-grid.

  Highest occupied state (VBM) at     -4.84072370 eV (relative to internal zero)
  | Occupation number:      1.17857179
  | K-point:     698 at    0.583333    0.250000    0.250000 (in units of recip. lattice)

  Lowest unoccupied state (CBM) at    -4.83150285 eV (relative to internal zero)
  | Occupation number:      0.97200291
  | K-point:     294 at    0.250000    0.000000    0.333333 (in units of recip. lattice)

  ESTIMATED overall HOMO-LUMO gap:      0.00922084 eV between HOMO at k-point 698 and LUMO at k-point 294
  | This appears to be an indirect band gap.
  | Smallest direct gap :      1.07967635 eV for k_point 779 at    0.250000    0.000000    0.333333 (in units of recip. lattice)
  However, this system has fractional occupation numbers. Since we use a finite k-point grid,
  this material is metallic within the approximate finite broadening function (occupation_type)
  applied to determine the occupation numbers.

  Self-consistency cycle converged.

  End self-consistency iteration #    11       :  max(cpu_time)    wall_clock(cpu1)
  | Time for this iteration                    :        0.552 s           0.552 s
  | Charge density update                      :        0.163 s           0.163 s
  | Density mixing                             :        0.017 s           0.018 s
  | Hartree multipole update                   :        0.001 s           0.000 s
  | Hartree multipole summation                :        0.165 s           0.166 s
  | Integration                                :        0.097 s           0.097 s
  | Solution of K.-S. eqns.                    :        0.108 s           0.108 s
  | Total energy evaluation                    :        0.000 s           0.000 s

  Partial memory accounting:
  | Current value for overall tracked memory usage on task 0  :           2.649 MB
  | Peak value for overall tracked memory usage on task 0     :           3.828 MB after allocating wave
  | Largest tracked array allocation on task 0 so far         :           2.500 MB  when allocating +KS_eigenvector_complex
  Note:  These values currently only include a subset of arrays which are explicitly tracked.
  The "true" memory usage will be greater.
------------------------------------------------------------

  Energy and forces in a compact form:
  | Total energy uncorrected      :         -0.787151809708385E+04 eV
  | Total energy corrected        :         -0.787151909830693E+04 eV  <-- do not rely on this value for anything but (periodic) metals
  | Electronic free energy        :         -0.787152009953002E+04 eV

  ------------------------------------ 
  Start decomposition of the XC Energy 
  ------------------------------------ 
  X and C from original XC functional choice 
  Hartree-Fock Energy :          0.000000000 Ha              0.000000000 eV
  X Energy            :        -18.577176636 Ha           -505.510696365 eV
  C Energy            :         -1.055557544 Ha            -28.723182178 eV
  Total XC Energy     :        -19.632734179 Ha           -534.233878543 eV
  ------------------------------------ 
  LDA X and C from self-consistent density 
  X Energy LDA        :        -18.577176636 Ha           -505.510696365 eV
  C Energy LDA        :         -1.055557544 Ha            -28.723182178 eV
  ------------------------------------ 
  End decomposition of the XC Energy 
  ------------------------------------ 

------------------------------------------------------------

------------------------------------------------------------------------------
  Final output of selected total energy values:

  The following output summarizes some interesting total energy values
  at the end of a run (AFTER all relaxation, molecular dynamics, etc.).

  | Total energy of the DFT / Hartree-Fock s.c.f. calculation      :          -7871.518097084 eV
  | Final zero-broadening corrected energy (caution - metals only) :          -7871.519098307 eV
  | For reference only, the value of 1 Hartree used in FHI-aims is :             27.211384500 eV

  Before relying on these values, please be sure to understand exactly which
  total energy value is referred to by a given number. Different objects may
  all carry the same name 'total energy'. Definitions:

  Total energy of the DFT / Hartree-Fock s.c.f. calculation:
  | Note that this energy does not include ANY quantities calculated after the
  | s.c.f. cycle, in particular not ANY RPA, MP2, etc. many-body perturbation terms.

  Final zero-broadening corrected energy:
  | For metallic systems only, a broadening of the occupation numbers at the Fermi
  | level can be extrapolated back to zero broadening by an electron-gas inspired
  | formula. For all systems that are not real metals, this value can be
  | meaningless and should be avoided.

------------------------------------------------------------------------------
  Methods described in the following list of references were used in this FHI-aims run.
  If you publish the results, please make sure to cite these reference if they apply.
  FHI-aims is an academic code, and for our developers (often, Ph.D. students
  and postdocs), scientific credit in the community is essential.
  Thank you for helping us!

  For any use of FHI-aims, please cite:

    Volker Blum, Ralf Gehrke, Felix Hanke, Paula Havu, Ville Havu,
    Xinguo Ren, Karsten Reuter, and Matthias Scheffler
    'Ab initio molecular simulations with numeric atom-centered orbitals'
    Computer Physics Communications 180, 2175-2196 (2009)
    http://dx.doi.org/10.1016/j.cpc.2009.06.022


  For the real-space grid partitioning and parallelization used in this calculation, please cite:

    Ville Havu, Volker Blum, Paula Havu, and Matthias Scheffler,
    'Efficient O(N) integration for all-electron electronic structure calculation'
    'using numerically tabulated basis functions'
    Journal of Computational Physics 228, 8367-8379 (2009).
    http://dx.doi.org/10.1016/j.jcp.2009.08.008

  Of course, there are many other important community references, e.g., those cited in the
  above references. Our list is limited to references that describe implementations in the
  FHI-aims code. The reason is purely practical (length of this list) - please credit others as well.

------------------------------------------------------------
          Leaving FHI-aims.
          Date     :  20190514, Time     :  123614.029

          Computational steps:
          | Number of self-consistency cycles          :           11
          | Number of SCF (re)initializations          :            1

          Detailed time accounting                     :  max(cpu_time)    wall_clock(cpu1)
          | Total time                                 :        6.617 s           6.617 s
          | Preparation time                           :        0.099 s           0.100 s
          | Boundary condition initalization           :        0.026 s           0.026 s
          | Grid partitioning                          :        0.009 s           0.010 s
          | Preloading free-atom quantities on grid    :        0.001 s           0.001 s
          | Free-atom superposition energy             :        0.008 s           0.008 s
          | Total time for integrations                :        1.265 s           1.262 s
          | Total time for solution of K.-S. equations :        1.404 s           1.406 s
          | Total time for density update              :        1.802 s           1.802 s
          | Total time for mixing & preconditioning    :        0.190 s           0.191 s
          | Total time for Hartree multipole update    :        0.004 s           0.005 s
          | Total time for Hartree multipole sum       :        1.767 s           1.768 s
          | Total time for total energy evaluation     :        0.002 s           0.002 s
          | Total time for scaled ZORA corrections     :        0.000 s           0.000 s

 This is a stub MPI_ALLREDUCE call.
 You should not be here. Check your
 setting on the use_mpi variable, or
 link against true MPI-libraries.
