------------------------------------------------------------
          Invoking FHI-aims ...
          Version 171221_1
          Compiled on 2019/05/06 at 14:26:40 on host ffph0xx.

          When using FHI-aims, please cite the following reference:

          Volker Blum, Ralf Gehrke, Felix Hanke, Paula Havu,
          Ville Havu, Xinguo Ren, Karsten Reuter, and Matthias Scheffler,
          'Ab Initio Molecular Simulations with Numeric Atom-Centered Orbitals',
          Computer Physics Communications 180, 2175-2196 (2009)

          For any questions about FHI-aims, please visit the aimsclub website
          with its forums and wiki. Contributions to both the forums and the
          wiki are warmly encouraged - they are for you, and everyone is welcome there.

------------------------------------------------------------



  Date     :  20190514, Time     :  123822.047
  Time zero on CPU 1             :   0.629000000000000E-03  s.
  Internal wall clock time zero  :           327069502.047  s.

  FHI-aims created a unique identifier for this run for later identification
  aims_uuid : 192FC6FB-306F-4367-AB4C-0B1B01EB86D2


  Performing system and environment tests:
  *** Environment variable OMP_NUM_THREADS is not set
  *** For performance reasons you might want to set it to 1
  | Stacksize not measured: no C compiler

  Obtaining array dimensions for all initial allocations:
  
  -----------------------------------------------------------------------
  Parsing control.in (first pass over file, find array dimensions only).
  The contents of control.in will be repeated verbatim below
  unless switched off by setting 'verbatim_writeout .false.' .
  in the first line of control.in .
  -----------------------------------------------------------------------
  
  #--- method ---
  xc pw-lda
  spin none
  relativistic atomic_zora scalar
  #---
  
  #--- k-grid settings ---
  k_grid 12 12 12
  #---
  
  
  
  
  
  
  
  
  
  
  
  #-------------------------------------------------------------------------------
  #--- Species defaults for Si
  #-------------------------------------------------------------------------------
  
  ################################################################################
  #
  #  FHI-aims code project
  #  VB, Fritz-Haber Institut, 2009
  #
  #  Suggested "light" defaults for Si atom (to be pasted into control.in file)
  #  Be sure to double-check any results obtained with these settings for post-processing,
  #  e.g., with the "tight" defaults and larger basis sets.
  #
  ################################################################################
    species        Si
  #     global species definitions
      nucleus             14
      mass                28.0855
  #
      l_hartree           4
  #
      cut_pot             3.5          1.5  1.0
      basis_dep_cutoff    1e-4
  #
      radial_base         42 5.0
      radial_multiplier   1
      angular_grids       specified
        division   0.5866   50
        division   0.9616  110
        division   1.2249  194
        division   1.3795  302
  #      division   1.4810  434
  #      division   1.5529  590
  #      division   1.6284  770
  #      division   1.7077  974
  #      division   2.4068 1202
  #      outer_grid   974
        outer_grid 302
  ################################################################################
  #
  #  Definition of "minimal" basis
  #
  ################################################################################
  #     valence basis states
      valence      3  s   2.
      valence      3  p   2.
  #     ion occupancy
      ion_occ      3  s   1.
      ion_occ      3  p   1.
  ################################################################################
  #
  #  Suggested additional basis functions. For production calculations,
  #  uncomment them one after another (the most important basis functions are
  #  listed first).
  #
  #  Constructed for dimers: 1.75 A, 2.0 A, 2.25 A, 2.75 A, 3.75 A
  #
  ################################################################################
  #  "First tier" - improvements: -571.96 meV to -37.03 meV
       hydro 3 d 4.2
       hydro 2 p 1.4
  #     hydro 4 f 6.2
       ionic 3 s auto
  #  "Second tier" - improvements: -16.76 meV to -3.03 meV
  #     hydro 3 d 9
  #     hydro 5 g 9.4
  #     hydro 4 p 4
  #     hydro 1 s 0.65
  #  "Third tier" - improvements: -3.89 meV to -0.60 meV
  #     ionic 3 d auto
  #     hydro 3 s 2.6
  #     hydro 4 f 8.4
  #     hydro 3 d 3.4
  #     hydro 3 p 7.8
  #  "Fourth tier" - improvements: -0.33 meV to -0.11 meV
  #     hydro 2 p 1.6
  #     hydro 5 g 10.8
  #     hydro 5 f 11.2
  #     hydro 3 d 1
  #     hydro 4 s 4.5
  #  Further basis functions that fell out of the optimization - noise
  #  level... < -0.08 meV
  #     hydro 4 d 6.6
  #     hydro 5 g 16.4
  #     hydro 4 d 9
  
  -----------------------------------------------------------------------
  Completed first pass over input file control.in .
  -----------------------------------------------------------------------
  
  
  -----------------------------------------------------------------------
  Parsing geometry.in (first pass over file, find array dimensions only).
  The contents of geometry.in will be repeated verbatim below
  unless switched off by setting 'verbatim_writeout .false.' .
  in the first line of geometry.in .
  -----------------------------------------------------------------------
  
  lattice_vector   0.000000   2.750000   2.750000
  lattice_vector   2.750000   0.000000   2.750000
  lattice_vector   2.750000   2.750000   0.000000
  atom_frac   0.000000   0.000000   0.000000 Si
  atom_frac   0.250000   0.250000   0.250000 Si
  
  -----------------------------------------------------------------------
  Completed first pass over input file geometry.in .
  -----------------------------------------------------------------------
  

  Basic array size parameters:
  | Number of species                 :        1
  | Number of atoms                   :        2
  | Number of lattice vectors         :        3
  | Max. basis fn. angular momentum   :        2
  | Max. atomic/ionic basis occupied n:        3
  | Max. number of basis fn. types    :        3
  | Max. radial fns per species/type  :        5
  | Max. logarithmic grid size        :     1346
  | Max. radial integration grid size :       42
  | Max. angular integration grid size:      302
  | Max. angular grid division number :        8
  | Radial grid for Hartree potential :     1346
  | Number of spin channels           :        1

------------------------------------------------------------
          Reading file control.in.
------------------------------------------------------------
  XC: Using Perdew-Wang parametrisation of Ceperley-Alder LDA.
  Spin treatment: No spin polarisation.
  Scalar relativistic treatment of kinetic energy: on-site free-atom approximation to ZORA.
  Found k-point grid:        12        12        12

  Reading configuration options for species Si                  .
  | Found nuclear charge :  14.0000
  | Found atomic mass :    28.085500000000000      amu
  | Found l_max for Hartree potential  :   4
  | Found cutoff potl. onset [A], width [A], scale factor :    3.50000    1.50000    1.00000
  | Threshold for basis-dependent cutoff potential is   0.100000E-03
  | Found data for basic radial integration grid :    42 points, outermost radius =    5.000 A
  | Found multiplier for basic radial grid :   1
  | Found angular grid specification: user-specified.
  | Specified grid contains     5 separate shells.
  | Check grid settings after all constraints further below.
  | Found free-atom valence shell :  3 s   2.000
  | Found free-atom valence shell :  3 p   2.000
  | Found free-ion valence shell :  3 s   1.000
  | Found free-ion valence shell :  3 p   1.000
  | Found hydrogenic basis function :  3 d   4.200
  | Found hydrogenic basis function :  2 p   1.400
  | Found ionic basis function :  3 s , default cutoff radius.
  Species Si                  : Missing cutoff potential type.
  Defaulting to exp(1/x)/(1-x)^2 type cutoff potential.
  Species Si: No 'logarithmic' tag. Using default grid for free atom:
  | Default logarithmic grid data [bohr] : 0.1000E-03 0.1000E+03 0.1012E+01
  | Will include ionic basis functions of  2.0-fold positive Si                   ion.
  Species Si: On-site basis accuracy parameter (for Gram-Schmidt orthonormalisation) not specified.
  Using default value basis_acc =  0.1000000E-03.
  Species Si                  : Using default innermost maximum threshold i_radial=  2 for radial functions.
  Species Si                  : Default cutoff onset for free atom density etc. : 0.35000000E+01 AA.
  Species Si                  : Basic radial grid will be enhanced according to radial_multiplier =   1, to contain    42 grid points.

  Finished reading input file 'control.in'. Consistency checks are next.

  MPI_IN_PLACE appears to work with this MPI implementation.
  | Keeping use_mpi_in_place .true. (see manual).
  Target number of points in a grid batch is not set. Defaulting to  100
  Method for grid partitioning is not set. Defaulting to 'maxmin' partitioning.
  Batch size limit is not set. Defaulting to    200
  By default, will store active basis functions for each batch.
  If in need of memory, prune_basis_once .false. can be used to disable this option.
  communication_type for Hartree potential was not specified.
  Defaulting to calc_hartree .
 * Attention: 
 * You may want to set distributed_spline_storage to .true. in order to save memory.
 * This doesn't harm performance and is perfectly ok unless:
 * - you get error messages in postprocessing (about missing atoms in get_rho_multipole_spl)
 * - you need full spline storage in hirshfeld_analysis
  Defaulting to Pulay charge density mixer.
  Pulay mixer: Number of relevant iterations not set.
  Defaulting to    8 iterations.
  Pulay mixer: Number of initial linear mixing iterations not set.
  Defaulting to    0 iterations.
  Work space size for distributed Hartree potential not set.
  Defaulting to   0.200000E+03 MB.
  Mixing parameter for charge density mixing has not been set.
  Using default: charge_mix_param =     0.0500.
  The mixing parameter will be adjusted in iteration number     2 of the first full s.c.f. cycle only.
  Algorithm-dependent basis array size parameters:
  | n_max_pulay                         :        8
 * Notice: The s.c.f. convergence criterion sc_accuracy_rho was not provided.
 * We used to stop in this case, and ask the user to provide reasonable
 * scf convergence criteria. However, this led some users to employ criteria
 * that led to extremely long run times, e.g., for simple relaxation.
 * We now preset a default value for sc_accuracy_rho if it is not set.
 * You may still wish to check if this setting is too tight or too loose for your needs.
 * Based on n_atoms, FHI-aims chose sc_accuracy_rho =  0.100000E-05 .
  Maximum number of self-consistency iterations not provided.
  Presetting  1000 iterations.
  Presetting      1001 iterations before the initial mixing cycle
  is restarted anyway using the sc_init_iter criterion / keyword.
  Presetting a factor      1.000 between actual scf density residual
  and density convergence criterion sc_accuracy_rho below which sc_init_iter
  takes no effect.
 * No s.c.f. convergence criteria (sc_accuracy_*) were provided in control.in.
 * The run will proceed with a reasonable default guess, but please check whether.
 * the s.c.f. cycles seem to take too much or too little time.
  Calculation of forces was not defined in control.in. No forces will be calculated.
  Geometry relaxation not requested: no relaxation will be performed.
  No accuracy limit for integral partition fn. given. Defaulting to  0.1000E-14.
  No threshold value for u(r) in integrations given. Defaulting to  0.1000E-05.
  No occupation type (smearing scheme) given. Defaulting to Gaussian broadening, width =  0.1000E-01 eV.
  The width will be adjusted in iteration number     2 of the first full s.c.f. cycle only.
  S.C.F. convergence parameters will be adjusted in iteration number     2 of the first full s.c.f. cycle only.
  No accuracy for occupation numbers given. Defaulting to  0.1000E-12.
  No threshold value for occupation numbers given. Defaulting to  0.0000E+00.
  No accuracy for fermi level given. Defaulting to  0.1000E-19.
  Maximum # of iterations to find E_F not set. Defaulting to  200.
  Preferred method for the eigenvalue solver ('KS_method') not specified in 'control.in'.
  Defaulting to serial version, 'lapack_fast'.
  Will not use alltoall communication since running on < 1024 CPUs.
  Threshold for basis singularities not set.
  Default threshold for basis singularities:  0.1000E-04
  partition_type (choice of integration weights) for integrals was not specified.
  | Using a version of the partition function of Stratmann and coworkers ('stratmann_smoother').
  | At each grid point, the set of atoms used to build the partition table is smoothly restricted to
  | only those atoms whose free-atom density would be non-zero at that grid point.
  Partitioning for Hartree potential was not defined. Using partition_type for integrals.
  | Adjusted default value of keyword multip_moments_threshold to:       0.10000000E-11
  | This value may affect high angular momentum components of the Hartree potential in periodic systems.
  Angular momentum expansion for Kerker preconditioner not set explicitly.
  | Using default value of   0
  No explicit requirement for turning off preconditioner.
  | By default, it will be turned off when the charge convergence reaches
  | sc_accuracy_rho  =   0.100000E-05
  No special mixing parameter while Kerker preconditioner is on.
  Using default: charge_mix_param =     0.0500.
  No q(lm)/r^(l+1) cutoff set for long-range Hartree potential.
  | Using default value of  0.100000E-09 .
  | Verify using the multipole_threshold keyword.
  Defaulting to new monopole extrapolation.
  Density update method: automatic selection selected.
  Using density matrix based charge density update.
  Using density matrix based charge density update.
  Using packed matrix style: index .
  Defaulting to use time-reversal symmetry for k-point grid.
------------------------------------------------------------


------------------------------------------------------------
          Reading geometry description geometry.in.
------------------------------------------------------------
  Input structure read successfully.
  The structure contains        2 atoms,  and a total of         28.000 electrons.

  Input geometry:
  | Unit cell:
  |        0.00000000        2.75000000        2.75000000
  |        2.75000000        0.00000000        2.75000000
  |        2.75000000        2.75000000        0.00000000
  | Atomic structure:
  |       Atom                x [A]            y [A]            z [A]
  |    1: Species Si            0.00000000        0.00000000        0.00000000
  |    2: Species Si            1.37500000        1.37500000        1.37500000

  Lattice parameters for 3D lattice (in Angstroms) :     3.889087    3.889087    3.889087
  Angle(s) between unit vectors (in degrees)      :    60.000000   60.000000   60.000000

  |

  | The smallest distance between any two atoms is         2.38156986 AA.
  |
  | The first atom of this pair is atom number                      1 .
  | The second atom of this pair is atom number                     2 .
  | Wigner-Seitz cell of the first atom image           0     0     0 .
  | (The Wigner-Seitz cell of the second atom is 0 0 0  by definition.)

  Quantities derived from the lattice vectors:
  | Reciprocal lattice vector 1: -1.142397  1.142397  1.142397
  | Reciprocal lattice vector 2:  1.142397 -1.142397  1.142397
  | Reciprocal lattice vector 3:  1.142397  1.142397 -1.142397
  | Unit cell volume                               :   0.415938E+02  A^3

  Range separation radius for Ewald summation (hartree_convergence_parameter):      3.94337166 bohr.

  Fractional coordinates:
                         L1                L2                L3
       atom_frac         0.00000000        0.00000000        0.00000000  Si
       atom_frac         0.25000000        0.25000000        0.25000000  Si

  Number of empty states per atom not set in control.in - providing a guess from actual geometry.
  | Total number of empty states used during s.c.f. cycle:        6
  If you use a very high smearing, use empty_states (per atom!) in control.in to increase this value.

  Structure-dependent array size parameters: 
  | Maximum number of distinct radial functions  :        8
  | Maximum number of basis functions            :       36
  | Number of Kohn-Sham states (occupied + empty):       20
------------------------------------------------------------

------------------------------------------------------------
          Preparing all fixed parts of the calculation.
------------------------------------------------------------
  Determining machine precision:
     2.2250738585072014E-308
  Setting up grids for atomic and cluster calculations.

  Creating wave function, potential, and density for free atoms.

  Species: Si

  List of occupied orbitals and eigenvalues:
    n    l              occ      energy [Ha]    energy [eV]
    1    0           2.0000       -65.491668     -1782.1190
    2    0           2.0000        -5.087967      -138.4506
    3    0           2.0000        -0.391471       -10.6525
    2    1           6.0000        -3.502246       -95.3010
    3    1           2.0000        -0.143943        -3.9169

  Creating fixed part of basis set: Ionic, confined, hydrogenic.

  Si                   ion:

  List of free ionic orbitals and eigenvalues:
    n    l      energy [Ha]    energy [eV]
    1    0       -66.364436     -1805.8682
    2    0        -5.935799      -161.5213
    3    0        -1.078166       -29.3384
    2    1        -4.351123      -118.4001
    3    1        -0.781733       -21.2720


  List of ionic basis orbitals and eigenvalues:
    n    l      energy [Ha]    energy [eV]    outer radius [A]
    3    0        -1.078146       -29.3378       4.214062


  Si                   hydrogenic:

  List of hydrogenic basis orbitals: 
    n    l      effective z      eigenvalue [eV]  inner max. [A]     outer max. [A]     outer radius [A]   
    3    2         4.200000       -26.6624           1.139231           1.139231           4.534782
    2    1         1.400000        -6.4613           1.472672           1.472672           4.590560


  Adding cutoff potential to free-atom effective potential.
  Creating atomic-like basis functions for current effective potential.

  Species Si                  :

  List of atomic basis orbitals and eigenvalues:
    n    l      energy [Ha]    energy [eV]    outer radius [A]
    1    0       -65.491668     -1782.1190       0.789468
    2    0        -5.087967      -138.4506       2.815114
    3    0        -0.391471       -10.6525       4.534782
    2    1        -3.502246       -95.3010       3.259919
    3    1        -0.143943        -3.9169       4.590560

  Assembling full basis from fixed parts.
  | Species Si :   atomic orbital   1 s accepted.
  | Species Si :   atomic orbital   2 s accepted.
  | Species Si :    ionic orbital   3 s accepted.
  | Species Si :   atomic orbital   3 s accepted.
  | Species Si :   atomic orbital   2 p accepted.
  | Species Si :   atomic orbital   3 p accepted.
  | Species Si :    hydro orbital   2 p accepted.
  | Species Si :    hydro orbital   3 d accepted.

  Basis size parameters after reduction:
  | Total number of radial functions:        8
  | Total number of basis functions :       36

  Per-task memory consumption for arrays in subroutine allocate_ext:
  |           2.757868MB.
  Testing on-site integration grid accuracy.
  |  Species  Function  <phi|h_atom|phi> (log., in eV)  <phi|h_atom|phi> (rad., in eV)
           1        1              -1782.1189727076              -1782.1182429251
           1        2               -138.4506350693               -138.4506310079
           1        3                -10.3030408815                -10.3029120678
           1        4                  5.0238999146                  4.9457540310 ***
           1        5                -95.3009689499                -95.3009689315
           1        6                 -3.9266496564                 -3.9420918374
           1        7                  6.3453628447                  6.1632372158 ***
           1        8                  6.2883050744                  6.2861881409
 * Note: Onsite integrals marked "***" above are less accurate than
 * onsite_accuracy_threshold =    0.03000 eV. Usually, this is harmless.
 * When in doubt, tighten the "radial" and/or "radial_multiplier" flags to check.

  Preparing densities etc. for the partition functions (integrals / Hartree potential).

  Preparations completed.
  max(cpu_time)          :      0.090 s.
  Wall clock time (cpu1) :      0.090 s.
------------------------------------------------------------

------------------------------------------------------------
          Begin self-consistency loop: Initialization.

          Date     :  20190514, Time     :  123822.138
------------------------------------------------------------

  Initializing index lists of integration centers etc. from given atomic structure:
  Mapping all atomic coordinates to central unit cell.

  Initializing the k-points
          Using symmetry for reducing the k-points
  | k-points reduced from:     1728 to      868
  | Number of k-points                             :       868
  The eigenvectors in the calculations are COMPLEX.
  | K-points in task   0:       868
  | Number of basis functions in the Hamiltonian integrals :      1454
  | Number of basis functions in a single unit cell        :        36
  | Number of centers in hartree potential         :       732
  | Number of centers in hartree multipole         :       318
  | Number of centers in electron density summation:       190
  | Number of centers in basis integrals           :       198
  | Number of centers in integrals                 :       101
  | Number of centers in hamiltonian               :       190
  | Consuming       1519 KiB for k_phase.
  | Number of super-cells (origin) [n_cells]                     :        2197
  | Number of super-cells (after PM_index) [n_cells]             :         112
  | Number of super-cells in hamiltonian [n_cells_in_hamiltonian]:         112
  | Size of matrix packed + index [n_hamiltonian_matrix_size] :       41847
  Partitioning the integration grid into batches with maxmin method.
  | Maximal weight for a single point:     1.000
  | Minimal weight for a single point:     0.645
  | Number of batches:      128
  | Maximal batch size:      90
  | Minimal batch size:      85
  | Average batch size:      87.562
  | Standard deviation of batch sizes:       1.493
  Initializing partition tables, free-atom densities, potentials, etc. across the integration grid (initialize_grid_storage).
  | initialize_grid_storage: Actual outermost partition radius vs. multipole_radius_free
  | (-- VB: in principle, multipole_radius_free should be larger, hence this output)
  | Species        1: Confinement radius =              4.999999999999999 AA, multipole_radius_free =              5.000694715736543 AA.
  | Species        1: outer_partition_radius set to              5.000694715736543 AA .
  | Original list of interatomic distances with         198 x        198 entries is created.
  | Net number of integration points:    11208
  | of which are non-zero points    :     9844
  | Numerical average free-atom electrostatic potential    :    -12.65157614 eV
  Renormalizing the initial density to the exact electron count on the 3D integration grid.
  | Initial density: Formal number of electrons (from input files) :      28.0000000000
  | Integrated number of electrons on 3D grid     :      28.0046443613
  | Charge integration error                      :       0.0046443613
  | Normalization factor for density and gradient :       0.9998341575
  Obtaining max. number of non-zero basis functions in each batch (get_n_compute_maxes).
  | Maximal number of non-zero basis functions:      448 in task     0
  Allocating        9.999 MB for KS_eigenvector_complex
  Integrating Hamiltonian matrix: batch-based integration.
  Time summed over all CPUs for integration: real work        0.552 s, elapsed        0.552 s
  Integrating overlap matrix.
  Time summed over all CPUs for integration: real work        0.389 s, elapsed        0.389 s
  Decreasing sparse matrix size:
   Tolerance:   9.9999998245167004E-014
   Hamiltonian matrix
  | Array has    36494 nonzero elements out of    41847 elements
  | Sparsity factor is 0.128
   Overlap matrix
  | Array has    34236 nonzero elements out of    41847 elements
  | Sparsity factor is 0.182
  New size of hamiltonian matrix:       36751

  Updating Kohn-Sham eigenvalues, eigenvectors, occupation numbers, and Fermi level.
  Solving generalized eigenproblem
  Transforming overlap matrix and checking for singularities.
  Overlap matrix is nonsingular at first k-point:
  | Lowest eigenvalue:  0.493089E-02

  Obtaining occupation numbers and chemical potential using ELSI.
  | Chemical potential (Fermi level):    -5.41255361eV
  Writing Kohn-Sham eigenvalues.
  K-point:       1 at    0.000000    0.000000    0.000000 (in units of recip. lattice)

  State    Occupation    Eigenvalue [Ha]    Eigenvalue [eV]
      1       2.00000         -65.511153        -1782.64916
      2       2.00000         -65.511153        -1782.64916
      3       2.00000          -5.112074         -139.10660
      4       2.00000          -5.111824         -139.09980
      5       2.00000          -3.526350          -95.95687
      6       2.00000          -3.526350          -95.95687
      7       2.00000          -3.526350          -95.95687
      8       2.00000          -3.525803          -95.94197
      9       2.00000          -3.525803          -95.94197
     10       2.00000          -3.525803          -95.94197
     11       2.00000          -0.655680          -17.84196
     12       2.00000          -0.230449           -6.27085
     13       2.00000          -0.230449           -6.27085
     14       2.00000          -0.230449           -6.27085
     15       0.00000          -0.128212           -3.48884
     16       0.00000          -0.128212           -3.48884
     17       0.00000          -0.128212           -3.48884
     18       0.00000          -0.124308           -3.38258
     19       0.00000           0.067790            1.84465
     20       0.00000           0.067790            1.84465

  What follows are estimated values for band gap, HOMO, LUMO, etc.
  | They are estimated on a discrete k-point grid and not necessarily exact.
  | For converged numbers, create a DOS and/or band structure plot on a denser k-grid.

  Highest occupied state (VBM) at     -6.27084700 eV (relative to internal zero)
  | Occupation number:      2.00000000
  | K-point:       1 at    0.000000    0.000000    0.000000 (in units of recip. lattice)

  Lowest unoccupied state (CBM) at    -5.37035874 eV (relative to internal zero)
  | Occupation number:      0.00000000
  | K-point:     690 at    0.583333    0.000000    0.583333 (in units of recip. lattice)

  ESTIMATED overall HOMO-LUMO gap:      0.90048825 eV between HOMO at k-point 1 and LUMO at k-point 690
  | This appears to be an indirect band gap.
  | Smallest direct gap :      2.60778269 eV for k_point 671 at    0.583333    0.000000    0.583333 (in units of recip. lattice)
  The gap value is above 0.2 eV. Unless you are using a very sparse k-point grid,
  this system is most likely an insulator or a semiconductor.
  Calculating total energy contributions from superposition of free atom densities.

  Total energy components:
  | Sum of eigenvalues            :        -328.07780766 Ha       -8927.45137003 eV
  | XC energy correction          :         -39.64012500 Ha       -1078.66268311 eV
  | XC potential correction       :          52.37117597 Ha        1425.09220607 eV
  | Free-atom electrostatic energy:        -263.39488195 Ha       -7167.33940814 eV
  | Hartree energy correction     :          -0.00000000 Ha          -0.00000000 eV
  | Entropy correction            :          -0.00000000 Ha          -0.00000000 eV
  | ---------------------------
  | Total energy                  :        -578.74163864 Ha      -15748.36125522 eV
  | Total energy, T -> 0          :        -578.74163864 Ha      -15748.36125522 eV  <-- do not rely on this value for anything but (periodic) metals
  | Electronic free energy        :        -578.74163864 Ha      -15748.36125522 eV

  Derived energy quantities:
  | Kinetic energy                :         579.65288685 Ha       15773.15758062 eV
  | Electrostatic energy          :       -1118.75440049 Ha      -30442.85615273 eV
  | Energy correction for multipole
  | error in Hartree potential    :           0.00000000 Ha           0.00000000 eV
  | Sum of eigenvalues per atom                           :       -4463.72568502 eV
  | Total energy (T->0) per atom                          :       -7874.18062761 eV  <-- do not rely on this value for anything but (periodic) metals
  | Electronic free energy per atom                       :       -7874.18062761 eV
  Initialize hartree_potential_storage
  Max. number of atoms included in rho_multipole:            2

  End scf initialization - timings             :  max(cpu_time)    wall_clock(cpu1)
  | Time for scf. initialization               :        2.187 s           2.187 s
  | Boundary condition initialization          :        0.040 s           0.040 s
  | Integration                                :        0.941 s           0.941 s
  | Solution of K.-S. eqns.                    :        0.999 s           0.999 s
  | Grid partitioning                          :        0.031 s           0.031 s
  | Preloading free-atom quantities on grid    :        0.001 s           0.001 s
  | Free-atom superposition energy             :        0.028 s           0.028 s
  | Total energy evaluation                    :        0.000 s           0.000 s

  Partial memory accounting:
  | Current value for overall tracked memory usage on task 0  :          10.735 MB
  | Peak value for overall tracked memory usage on task 0     :          13.410 MB after allocating wave
  | Largest tracked array allocation on task 0 so far         :           9.999 MB  when allocating +KS_eigenvector_complex
  Note:  These values currently only include a subset of arrays which are explicitly tracked.
  The "true" memory usage will be greater.
------------------------------------------------------------

------------------------------------------------------------
          Begin self-consistency iteration #    1

  Date     :  20190514, Time     :  123824.326
------------------------------------------------------------
  Evaluating new KS density using the density matrix
  Evaluating density matrix
  Time summed over all CPUs for getting density from density matrix: real work        0.913 s, elapsed        0.913 s
  Integration grid: deviation in total charge (<rho> - N_e) =   8.540724E-12
  Pulay mixing of updated and previous charge densities.

  Evaluating partitioned Hartree potential by multipole expansion.
  | Analytical far-field extrapolation by fixed multipoles:
  | Hartree multipole sum: apparent total charge =   0.486615E-02
  Summing up the Hartree potential.
  | Estimated reciprocal-space cutoff momentum G_max:         2.36574414 bohr^-1 .
  | Reciprocal lattice points for long-range Hartree potential:      58
  Time summed over all CPUs for potential: real work        0.360 s, elapsed        0.360 s
  | RMS charge density error from multipole expansion :   0.491911E-03
  | Average real-space part of the electrostatic potential :     -0.00396934 eV

  Integrating Hamiltonian matrix: batch-based integration.
  Time summed over all CPUs for integration: real work        0.556 s, elapsed        0.556 s

  Updating Kohn-Sham eigenvalues, eigenvectors, occupation numbers, and Fermi level.
  Solving generalized eigenproblem

  Obtaining occupation numbers and chemical potential using ELSI.
  | Chemical potential (Fermi level):    -5.40618410eV
  Writing Kohn-Sham eigenvalues.
  K-point:       1 at    0.000000    0.000000    0.000000 (in units of recip. lattice)

  State    Occupation    Eigenvalue [Ha]    Eigenvalue [eV]
      1       2.00000         -65.514263        -1782.73380
      2       2.00000         -65.514263        -1782.73380
      3       2.00000          -5.112676         -139.12298
      4       2.00000          -5.112426         -139.11618
      5       2.00000          -3.527039          -95.97562
      6       2.00000          -3.527039          -95.97562
      7       2.00000          -3.527039          -95.97562
      8       2.00000          -3.526493          -95.96076
      9       2.00000          -3.526493          -95.96076
     10       2.00000          -3.526493          -95.96076
     11       2.00000          -0.655157          -17.82774
     12       2.00000          -0.229715           -6.25087
     13       2.00000          -0.229715           -6.25087
     14       2.00000          -0.229715           -6.25087
     15       0.00000          -0.127839           -3.47869
     16       0.00000          -0.127839           -3.47869
     17       0.00000          -0.127839           -3.47869
     18       0.00000          -0.123680           -3.36550
     19       0.00000           0.068242            1.85696
     20       0.00000           0.068242            1.85696

  What follows are estimated values for band gap, HOMO, LUMO, etc.
  | They are estimated on a discrete k-point grid and not necessarily exact.
  | For converged numbers, create a DOS and/or band structure plot on a denser k-grid.

  Highest occupied state (VBM) at     -6.25086743 eV (relative to internal zero)
  | Occupation number:      2.00000000
  | K-point:       1 at    0.000000    0.000000    0.000000 (in units of recip. lattice)

  Lowest unoccupied state (CBM) at    -5.36398012 eV (relative to internal zero)
  | Occupation number:      0.00000000
  | K-point:     690 at    0.583333    0.000000    0.583333 (in units of recip. lattice)

  ESTIMATED overall HOMO-LUMO gap:      0.88688730 eV between HOMO at k-point 1 and LUMO at k-point 690
  | This appears to be an indirect band gap.
  | Smallest direct gap :      2.60141998 eV for k_point 671 at    0.583333    0.000000    0.583333 (in units of recip. lattice)
  The gap value is above 0.2 eV. Unless you are using a very sparse k-point grid,
  this system is most likely an insulator or a semiconductor.

  Total energy components:
  | Sum of eigenvalues            :        -328.09639563 Ha       -8927.95717455 eV
  | XC energy correction          :         -39.64260226 Ha       -1078.73009262 eV
  | XC potential correction       :          52.37444143 Ha        1425.18106372 eV
  | Free-atom electrostatic energy:        -263.39488195 Ha       -7167.33940814 eV
  | Hartree energy correction     :           0.01832581 Ha           0.49867078 eV
  | Entropy correction            :          -0.00000000 Ha          -0.00000000 eV
  | ---------------------------
  | Total energy                  :        -578.74111260 Ha      -15748.34694082 eV
  | Total energy, T -> 0          :        -578.74111260 Ha      -15748.34694082 eV  <-- do not rely on this value for anything but (periodic) metals
  | Electronic free energy        :        -578.74111260 Ha      -15748.34694082 eV

  Derived energy quantities:
  | Kinetic energy                :         579.52087656 Ha       15769.56539772 eV
  | Electrostatic energy          :       -1118.61938689 Ha      -30439.18224593 eV
  | Energy correction for multipole
  | error in Hartree potential    :           0.00063582 Ha           0.01730159 eV
  | Sum of eigenvalues per atom                           :       -4463.97858728 eV
  | Total energy (T->0) per atom                          :       -7874.17347041 eV  <-- do not rely on this value for anything but (periodic) metals
  | Electronic free energy per atom                       :       -7874.17347041 eV

  Self-consistency convergence accuracy:
  | Change of charge density      :  0.1012E+00
  | Change of sum of eigenvalues  : -0.5058E+00 eV
  | Change of total energy        :  0.1431E-01 eV

  End self-consistency iteration #     1       :  max(cpu_time)    wall_clock(cpu1)
  | Time for this iteration                    :        2.444 s           2.444 s
  | Charge density update                      :        0.975 s           0.975 s
  | Density mixing & preconditioning           :        0.048 s           0.048 s
  | Hartree multipole update                   :        0.001 s           0.001 s
  | Hartree multipole summation                :        0.363 s           0.363 s
  | Integration                                :        0.556 s           0.556 s
  | Solution of K.-S. eqns.                    :        0.501 s           0.500 s
  | Total energy evaluation                    :        0.000 s           0.000 s

  Partial memory accounting:
  | Current value for overall tracked memory usage on task 0  :          10.735 MB
  | Peak value for overall tracked memory usage on task 0     :          13.410 MB after allocating wave
  | Largest tracked array allocation on task 0 so far         :           9.999 MB  when allocating +KS_eigenvector_complex
  Note:  These values currently only include a subset of arrays which are explicitly tracked.
  The "true" memory usage will be greater.
------------------------------------------------------------

------------------------------------------------------------
          Begin self-consistency iteration #    2

  Date     :  20190514, Time     :  123826.770
------------------------------------------------------------
  Evaluating new KS density using the density matrix
  Evaluating density matrix
  Time summed over all CPUs for getting density from density matrix: real work        0.914 s, elapsed        0.914 s
  Integration grid: deviation in total charge (<rho> - N_e) =   8.355983E-12
  Pulay mixing of updated and previous charge densities.

  Evaluating partitioned Hartree potential by multipole expansion.
  | Analytical far-field extrapolation by fixed multipoles:
  | Hartree multipole sum: apparent total charge =   0.889151E-02
  Summing up the Hartree potential.
  Time summed over all CPUs for potential: real work        0.438 s, elapsed        0.438 s
  | RMS charge density error from multipole expansion :   0.963880E-02
  | Average real-space part of the electrostatic potential :      0.30060922 eV

  Integrating Hamiltonian matrix: batch-based integration.
  Time summed over all CPUs for integration: real work        0.560 s, elapsed        0.560 s

  Updating Kohn-Sham eigenvalues, eigenvectors, occupation numbers, and Fermi level.
  Solving generalized eigenproblem

  Obtaining occupation numbers and chemical potential using ELSI.
  | Chemical potential (Fermi level):    -5.24701220eV
  What follows are estimated values for band gap, HOMO, LUMO, etc.
  | They are estimated on a discrete k-point grid and not necessarily exact.
  | For converged numbers, create a DOS and/or band structure plot on a denser k-grid.

  Highest occupied state (VBM) at     -5.72156950 eV (relative to internal zero)
  | Occupation number:      2.00000000
  | K-point:       1 at    0.000000    0.000000    0.000000 (in units of recip. lattice)

  Lowest unoccupied state (CBM) at    -5.20480795 eV (relative to internal zero)
  | Occupation number:      0.00000000
  | K-point:      48 at    0.000000    0.416667    0.416667 (in units of recip. lattice)

  ESTIMATED overall HOMO-LUMO gap:      0.51676155 eV between HOMO at k-point 1 and LUMO at k-point 48
  | This appears to be an indirect band gap.
  | Smallest direct gap :      2.46850930 eV for k_point 615 at    0.000000    0.416667    0.416667 (in units of recip. lattice)
  The gap value is above 0.2 eV. Unless you are using a very sparse k-point grid,
  this system is most likely an insulator or a semiconductor.

  Checking to see if s.c.f. parameters should be adjusted.
  The system likely has a gap. Increased the default Pulay mixing parameter (charge_mix_param). Value:   0.200000 .
  Kept the default occupation width. Value:   0.010000 eV.

  Total energy components:
  | Sum of eigenvalues            :        -327.35635133 Ha       -8907.81954465 eV
  | XC energy correction          :         -39.69943961 Ha       -1080.27671574 eV
  | XC potential correction       :          52.44934568 Ha        1427.21931201 eV
  | Free-atom electrostatic energy:        -263.39488195 Ha       -7167.33940814 eV
  | Hartree energy correction     :          -0.73487693 Ha         -19.99701859 eV
  | Entropy correction            :          -0.00000000 Ha          -0.00000000 eV
  | ---------------------------
  | Total energy                  :        -578.73620415 Ha      -15748.21337512 eV
  | Total energy, T -> 0          :        -578.73620415 Ha      -15748.21337512 eV  <-- do not rely on this value for anything but (periodic) metals
  | Electronic free energy        :        -578.73620415 Ha      -15748.21337512 eV

  Derived energy quantities:
  | Kinetic energy                :         579.70031710 Ha       15774.44822331 eV
  | Electrostatic energy          :       -1118.73708163 Ha      -30442.38488269 eV
  | Energy correction for multipole
  | error in Hartree potential    :           0.01244052 Ha           0.33852373 eV
  | Sum of eigenvalues per atom                           :       -4453.90977232 eV
  | Total energy (T->0) per atom                          :       -7874.10668756 eV  <-- do not rely on this value for anything but (periodic) metals
  | Electronic free energy per atom                       :       -7874.10668756 eV

  Self-consistency convergence accuracy:
  | Change of charge density      :  0.9609E-01
  | Change of sum of eigenvalues  :  0.2014E+02 eV
  | Change of total energy        :  0.1336E+00 eV

  End self-consistency iteration #     2       :  max(cpu_time)    wall_clock(cpu1)
  | Time for this iteration                    :        2.528 s           2.528 s
  | Charge density update                      :        0.975 s           0.975 s
  | Density mixing & preconditioning           :        0.045 s           0.045 s
  | Hartree multipole update                   :        0.001 s           0.001 s
  | Hartree multipole summation                :        0.441 s           0.441 s
  | Integration                                :        0.560 s           0.560 s
  | Solution of K.-S. eqns.                    :        0.505 s           0.505 s
  | Total energy evaluation                    :        0.000 s           0.001 s

  Partial memory accounting:
  | Current value for overall tracked memory usage on task 0  :          10.736 MB
  | Peak value for overall tracked memory usage on task 0     :          13.410 MB after allocating wave
  | Largest tracked array allocation on task 0 so far         :           9.999 MB  when allocating +KS_eigenvector_complex
  Note:  These values currently only include a subset of arrays which are explicitly tracked.
  The "true" memory usage will be greater.
------------------------------------------------------------

------------------------------------------------------------
          Begin self-consistency iteration #    3

  Date     :  20190514, Time     :  123829.298
------------------------------------------------------------
  Evaluating new KS density using the density matrix
  Evaluating density matrix
  Time summed over all CPUs for getting density from density matrix: real work        0.912 s, elapsed        0.912 s
  Integration grid: deviation in total charge (<rho> - N_e) =   8.391510E-12
  Pulay mixing of updated and previous charge densities.

  Evaluating partitioned Hartree potential by multipole expansion.
  | Analytical far-field extrapolation by fixed multipoles:
  | Hartree multipole sum: apparent total charge =   0.836480E-02
  Summing up the Hartree potential.
  Time summed over all CPUs for potential: real work        0.439 s, elapsed        0.439 s
  | RMS charge density error from multipole expansion :   0.956976E-02
  | Average real-space part of the electrostatic potential :      0.29189471 eV

  Integrating Hamiltonian matrix: batch-based integration.
  Time summed over all CPUs for integration: real work        0.557 s, elapsed        0.557 s

  Updating Kohn-Sham eigenvalues, eigenvectors, occupation numbers, and Fermi level.
  Solving generalized eigenproblem

  Obtaining occupation numbers and chemical potential using ELSI.
  | Chemical potential (Fermi level):    -5.25169310eV
  What follows are estimated values for band gap, HOMO, LUMO, etc.
  | They are estimated on a discrete k-point grid and not necessarily exact.
  | For converged numbers, create a DOS and/or band structure plot on a denser k-grid.

  Highest occupied state (VBM) at     -5.73834706 eV (relative to internal zero)
  | Occupation number:      2.00000000
  | K-point:       1 at    0.000000    0.000000    0.000000 (in units of recip. lattice)

  Lowest unoccupied state (CBM) at    -5.20949361 eV (relative to internal zero)
  | Occupation number:      0.00000000
  | K-point:      48 at    0.000000    0.416667    0.416667 (in units of recip. lattice)

  ESTIMATED overall HOMO-LUMO gap:      0.52885346 eV between HOMO at k-point 1 and LUMO at k-point 48
  | This appears to be an indirect band gap.
  | Smallest direct gap :      2.47222362 eV for k_point 615 at    0.000000    0.416667    0.416667 (in units of recip. lattice)
  The gap value is above 0.2 eV. Unless you are using a very sparse k-point grid,
  this system is most likely an insulator or a semiconductor.

  Total energy components:
  | Sum of eigenvalues            :        -327.39047167 Ha       -8908.74800628 eV
  | XC energy correction          :         -39.69745474 Ha       -1080.22270465 eV
  | XC potential correction       :          52.44672842 Ha        1427.14809292 eV
  | Free-atom electrostatic energy:        -263.39488195 Ha       -7167.33940814 eV
  | Hartree energy correction     :          -0.70002635 Ha         -19.04868604 eV
  | Entropy correction            :          -0.00000000 Ha          -0.00000000 eV
  | ---------------------------
  | Total energy                  :        -578.73610629 Ha      -15748.21071220 eV
  | Total energy, T -> 0          :        -578.73610629 Ha      -15748.21071220 eV  <-- do not rely on this value for anything but (periodic) metals
  | Electronic free energy        :        -578.73610629 Ha      -15748.21071220 eV

  Derived energy quantities:
  | Kinetic energy                :         579.68894830 Ha       15774.13886266 eV
  | Electrostatic energy          :       -1118.72759985 Ha      -30442.12687020 eV
  | Energy correction for multipole
  | error in Hartree potential    :           0.01237765 Ha           0.33681308 eV
  | Sum of eigenvalues per atom                           :       -4454.37400314 eV
  | Total energy (T->0) per atom                          :       -7874.10535610 eV  <-- do not rely on this value for anything but (periodic) metals
  | Electronic free energy per atom                       :       -7874.10535610 eV

  Self-consistency convergence accuracy:
  | Change of charge density      :  0.1575E-01
  | Change of sum of eigenvalues  : -0.9285E+00 eV
  | Change of total energy        :  0.2663E-02 eV

  End self-consistency iteration #     3       :  max(cpu_time)    wall_clock(cpu1)
  | Time for this iteration                    :        2.527 s           2.526 s
  | Charge density update                      :        0.977 s           0.976 s
  | Density mixing & preconditioning           :        0.045 s           0.045 s
  | Hartree multipole update                   :        0.001 s           0.001 s
  | Hartree multipole summation                :        0.443 s           0.443 s
  | Integration                                :        0.557 s           0.557 s
  | Solution of K.-S. eqns.                    :        0.504 s           0.504 s
  | Total energy evaluation                    :        0.000 s           0.000 s

  Partial memory accounting:
  | Current value for overall tracked memory usage on task 0  :          10.736 MB
  | Peak value for overall tracked memory usage on task 0     :          13.410 MB after allocating wave
  | Largest tracked array allocation on task 0 so far         :           9.999 MB  when allocating +KS_eigenvector_complex
  Note:  These values currently only include a subset of arrays which are explicitly tracked.
  The "true" memory usage will be greater.
------------------------------------------------------------

------------------------------------------------------------
          Begin self-consistency iteration #    4

  Date     :  20190514, Time     :  123831.824
------------------------------------------------------------
  Evaluating new KS density using the density matrix
  Evaluating density matrix
  Time summed over all CPUs for getting density from density matrix: real work        0.911 s, elapsed        0.911 s
  Integration grid: deviation in total charge (<rho> - N_e) =   8.331114E-12
  Pulay mixing of updated and previous charge densities.

  Evaluating partitioned Hartree potential by multipole expansion.
  | Analytical far-field extrapolation by fixed multipoles:
  | Hartree multipole sum: apparent total charge =   0.561374E-02
  Summing up the Hartree potential.
  Time summed over all CPUs for potential: real work        0.437 s, elapsed        0.437 s
  | RMS charge density error from multipole expansion :   0.101434E-01
  | Average real-space part of the electrostatic potential :      0.27410744 eV

  Integrating Hamiltonian matrix: batch-based integration.
  Time summed over all CPUs for integration: real work        0.556 s, elapsed        0.556 s

  Updating Kohn-Sham eigenvalues, eigenvectors, occupation numbers, and Fermi level.
  Solving generalized eigenproblem

  Obtaining occupation numbers and chemical potential using ELSI.
  | Chemical potential (Fermi level):    -5.25931976eV
  What follows are estimated values for band gap, HOMO, LUMO, etc.
  | They are estimated on a discrete k-point grid and not necessarily exact.
  | For converged numbers, create a DOS and/or band structure plot on a denser k-grid.

  Highest occupied state (VBM) at     -5.77665722 eV (relative to internal zero)
  | Occupation number:      2.00000000
  | K-point:       1 at    0.000000    0.000000    0.000000 (in units of recip. lattice)

  Lowest unoccupied state (CBM) at    -5.21711657 eV (relative to internal zero)
  | Occupation number:      0.00000000
  | K-point:      48 at    0.000000    0.416667    0.416667 (in units of recip. lattice)

  ESTIMATED overall HOMO-LUMO gap:      0.55954065 eV between HOMO at k-point 1 and LUMO at k-point 48
  | This appears to be an indirect band gap.
  | Smallest direct gap :      2.47989197 eV for k_point 671 at    0.000000    0.416667    0.416667 (in units of recip. lattice)
  The gap value is above 0.2 eV. Unless you are using a very sparse k-point grid,
  this system is most likely an insulator or a semiconductor.

  Total energy components:
  | Sum of eigenvalues            :        -327.51134576 Ha       -8912.03715772 eV
  | XC energy correction          :         -39.69278972 Ha       -1080.09576292 eV
  | XC potential correction       :          52.44056647 Ha        1426.98041761 eV
  | Free-atom electrostatic energy:        -263.39488195 Ha       -7167.33940814 eV
  | Hartree energy correction     :          -0.57738383 Ha         -15.71141330 eV
  | Entropy correction            :          -0.00000000 Ha          -0.00000000 eV
  | ---------------------------
  | Total energy                  :        -578.73583479 Ha      -15748.20332447 eV
  | Total energy, T -> 0          :        -578.73583479 Ha      -15748.20332447 eV  <-- do not rely on this value for anything but (periodic) metals
  | Electronic free energy        :        -578.73583479 Ha      -15748.20332447 eV

  Derived energy quantities:
  | Kinetic energy                :         579.63804682 Ha       15772.75376282 eV
  | Electrostatic energy          :       -1118.68109189 Ha      -30440.86132438 eV
  | Energy correction for multipole
  | error in Hartree potential    :           0.01325258 Ha           0.36062109 eV
  | Sum of eigenvalues per atom                           :       -4456.01857886 eV
  | Total energy (T->0) per atom                          :       -7874.10166224 eV  <-- do not rely on this value for anything but (periodic) metals
  | Electronic free energy per atom                       :       -7874.10166224 eV

  Self-consistency convergence accuracy:
  | Change of charge density      :  0.1376E-01
  | Change of sum of eigenvalues  : -0.3289E+01 eV
  | Change of total energy        :  0.7388E-02 eV

  End self-consistency iteration #     4       :  max(cpu_time)    wall_clock(cpu1)
  | Time for this iteration                    :        2.521 s           2.522 s
  | Charge density update                      :        0.973 s           0.973 s
  | Density mixing & preconditioning           :        0.045 s           0.045 s
  | Hartree multipole update                   :        0.001 s           0.001 s
  | Hartree multipole summation                :        0.440 s           0.440 s
  | Integration                                :        0.556 s           0.556 s
  | Solution of K.-S. eqns.                    :        0.505 s           0.505 s
  | Total energy evaluation                    :        0.000 s           0.000 s

  Partial memory accounting:
  | Current value for overall tracked memory usage on task 0  :          10.736 MB
  | Peak value for overall tracked memory usage on task 0     :          13.410 MB after allocating wave
  | Largest tracked array allocation on task 0 so far         :           9.999 MB  when allocating +KS_eigenvector_complex
  Note:  These values currently only include a subset of arrays which are explicitly tracked.
  The "true" memory usage will be greater.
------------------------------------------------------------

------------------------------------------------------------
          Begin self-consistency iteration #    5

  Date     :  20190514, Time     :  123834.346
------------------------------------------------------------
  Evaluating new KS density using the density matrix
  Evaluating density matrix
  Time summed over all CPUs for getting density from density matrix: real work        0.911 s, elapsed        0.911 s
  Integration grid: deviation in total charge (<rho> - N_e) =   8.302692E-12
  Pulay mixing of updated and previous charge densities.

  Evaluating partitioned Hartree potential by multipole expansion.
  | Analytical far-field extrapolation by fixed multipoles:
  | Hartree multipole sum: apparent total charge =   0.461883E-02
  Summing up the Hartree potential.
  Time summed over all CPUs for potential: real work        0.435 s, elapsed        0.435 s
  | RMS charge density error from multipole expansion :   0.101176E-01
  | Average real-space part of the electrostatic potential :      0.27096014 eV

  Integrating Hamiltonian matrix: batch-based integration.
  Time summed over all CPUs for integration: real work        0.562 s, elapsed        0.562 s

  Updating Kohn-Sham eigenvalues, eigenvectors, occupation numbers, and Fermi level.
  Solving generalized eigenproblem

  Obtaining occupation numbers and chemical potential using ELSI.
  | Chemical potential (Fermi level):    -5.26222184eV
  What follows are estimated values for band gap, HOMO, LUMO, etc.
  | They are estimated on a discrete k-point grid and not necessarily exact.
  | For converged numbers, create a DOS and/or band structure plot on a denser k-grid.

  Highest occupied state (VBM) at     -5.78461929 eV (relative to internal zero)
  | Occupation number:      2.00000000
  | K-point:       1 at    0.000000    0.000000    0.000000 (in units of recip. lattice)

  Lowest unoccupied state (CBM) at    -5.22003124 eV (relative to internal zero)
  | Occupation number:      0.00000000
  | K-point:      48 at    0.000000    0.416667    0.416667 (in units of recip. lattice)

  ESTIMATED overall HOMO-LUMO gap:      0.56458805 eV between HOMO at k-point 1 and LUMO at k-point 48
  | This appears to be an indirect band gap.
  | Smallest direct gap :      2.48057012 eV for k_point 615 at    0.000000    0.416667    0.416667 (in units of recip. lattice)
  The gap value is above 0.2 eV. Unless you are using a very sparse k-point grid,
  this system is most likely an insulator or a semiconductor.

  Total energy components:
  | Sum of eigenvalues            :        -327.54597123 Ha       -8912.97936464 eV
  | XC energy correction          :         -39.69008416 Ha       -1080.02214094 eV
  | XC potential correction       :          52.43698047 Ha        1426.88283756 eV
  | Free-atom electrostatic energy:        -263.39488195 Ha       -7167.33940814 eV
  | Hartree energy correction     :          -0.54184674 Ha         -14.74439989 eV
  | Entropy correction            :          -0.00000000 Ha          -0.00000000 eV
  | ---------------------------
  | Total energy                  :        -578.73580361 Ha      -15748.20247606 eV
  | Total energy, T -> 0          :        -578.73580361 Ha      -15748.20247606 eV  <-- do not rely on this value for anything but (periodic) metals
  | Electronic free energy        :        -578.73580361 Ha      -15748.20247606 eV

  Derived energy quantities:
  | Kinetic energy                :         579.61422817 Ha       15772.10562450 eV
  | Electrostatic energy          :       -1118.65994763 Ha      -30440.28595962 eV
  | Energy correction for multipole
  | error in Hartree potential    :           0.01318875 Ha           0.35888427 eV
  | Sum of eigenvalues per atom                           :       -4456.48968232 eV
  | Total energy (T->0) per atom                          :       -7874.10123803 eV  <-- do not rely on this value for anything but (periodic) metals
  | Electronic free energy per atom                       :       -7874.10123803 eV

  Self-consistency convergence accuracy:
  | Change of charge density      :  0.7796E-02
  | Change of sum of eigenvalues  : -0.9422E+00 eV
  | Change of total energy        :  0.8484E-03 eV

  End self-consistency iteration #     5       :  max(cpu_time)    wall_clock(cpu1)
  | Time for this iteration                    :        2.523 s           2.522 s
  | Charge density update                      :        0.974 s           0.974 s
  | Density mixing & preconditioning           :        0.045 s           0.045 s
  | Hartree multipole update                   :        0.001 s           0.000 s
  | Hartree multipole summation                :        0.439 s           0.439 s
  | Integration                                :        0.562 s           0.562 s
  | Solution of K.-S. eqns.                    :        0.502 s           0.502 s
  | Total energy evaluation                    :        0.000 s           0.000 s

  Partial memory accounting:
  | Current value for overall tracked memory usage on task 0  :          10.737 MB
  | Peak value for overall tracked memory usage on task 0     :          13.410 MB after allocating wave
  | Largest tracked array allocation on task 0 so far         :           9.999 MB  when allocating +KS_eigenvector_complex
  Note:  These values currently only include a subset of arrays which are explicitly tracked.
  The "true" memory usage will be greater.
------------------------------------------------------------

------------------------------------------------------------
          Begin self-consistency iteration #    6

  Date     :  20190514, Time     :  123836.869
------------------------------------------------------------
  Evaluating new KS density using the density matrix
  Evaluating density matrix
  Time summed over all CPUs for getting density from density matrix: real work        0.911 s, elapsed        0.911 s
  Integration grid: deviation in total charge (<rho> - N_e) =   8.505197E-12
  Pulay mixing of updated and previous charge densities.

  Evaluating partitioned Hartree potential by multipole expansion.
  | Analytical far-field extrapolation by fixed multipoles:
  | Hartree multipole sum: apparent total charge =   0.458537E-02
  Summing up the Hartree potential.
  Time summed over all CPUs for potential: real work        0.437 s, elapsed        0.437 s
  | RMS charge density error from multipole expansion :   0.101368E-01
  | Average real-space part of the electrostatic potential :      0.27064838 eV

  Integrating Hamiltonian matrix: batch-based integration.
  Time summed over all CPUs for integration: real work        0.556 s, elapsed        0.556 s

  Updating Kohn-Sham eigenvalues, eigenvectors, occupation numbers, and Fermi level.
  Solving generalized eigenproblem

  Obtaining occupation numbers and chemical potential using ELSI.
  | Chemical potential (Fermi level):    -5.26225561eV
  What follows are estimated values for band gap, HOMO, LUMO, etc.
  | They are estimated on a discrete k-point grid and not necessarily exact.
  | For converged numbers, create a DOS and/or band structure plot on a denser k-grid.

  Highest occupied state (VBM) at     -5.78468641 eV (relative to internal zero)
  | Occupation number:      2.00000000
  | K-point:       1 at    0.000000    0.000000    0.000000 (in units of recip. lattice)

  Lowest unoccupied state (CBM) at    -5.22005615 eV (relative to internal zero)
  | Occupation number:      0.00000000
  | K-point:      48 at    0.000000    0.416667    0.416667 (in units of recip. lattice)

  ESTIMATED overall HOMO-LUMO gap:      0.56463027 eV between HOMO at k-point 1 and LUMO at k-point 48
  | This appears to be an indirect band gap.
  | Smallest direct gap :      2.48039649 eV for k_point 6 at    0.000000    0.416667    0.416667 (in units of recip. lattice)
  The gap value is above 0.2 eV. Unless you are using a very sparse k-point grid,
  this system is most likely an insulator or a semiconductor.

  Total energy components:
  | Sum of eigenvalues            :        -327.55100658 Ha       -8913.11638345 eV
  | XC energy correction          :         -39.68958884 Ha       -1080.00866270 eV
  | XC potential correction       :          52.43632310 Ha        1426.86494965 eV
  | Free-atom electrostatic energy:        -263.39488195 Ha       -7167.33940814 eV
  | Hartree energy correction     :          -0.53664587 Ha         -14.60287705 eV
  | Entropy correction            :          -0.00000000 Ha          -0.00000000 eV
  | ---------------------------
  | Total energy                  :        -578.73580015 Ha      -15748.20238169 eV
  | Total energy, T -> 0          :        -578.73580015 Ha      -15748.20238169 eV  <-- do not rely on this value for anything but (periodic) metals
  | Electronic free energy        :        -578.73580015 Ha      -15748.20238169 eV

  Derived energy quantities:
  | Kinetic energy                :         579.60676904 Ha       15771.90265111 eV
  | Electrostatic energy          :       -1118.65298034 Ha      -30440.09637010 eV
  | Energy correction for multipole
  | error in Hartree potential    :           0.01320421 Ha           0.35930483 eV
  | Sum of eigenvalues per atom                           :       -4456.55819173 eV
  | Total energy (T->0) per atom                          :       -7874.10119085 eV  <-- do not rely on this value for anything but (periodic) metals
  | Electronic free energy per atom                       :       -7874.10119085 eV

  Self-consistency convergence accuracy:
  | Change of charge density      :  0.6298E-02
  | Change of sum of eigenvalues  : -0.1370E+00 eV
  | Change of total energy        :  0.9437E-04 eV

  End self-consistency iteration #     6       :  max(cpu_time)    wall_clock(cpu1)
  | Time for this iteration                    :        2.518 s           2.518 s
  | Charge density update                      :        0.972 s           0.972 s
  | Density mixing & preconditioning           :        0.045 s           0.044 s
  | Hartree multipole update                   :        0.001 s           0.001 s
  | Hartree multipole summation                :        0.441 s           0.441 s
  | Integration                                :        0.556 s           0.556 s
  | Solution of K.-S. eqns.                    :        0.503 s           0.503 s
  | Total energy evaluation                    :        0.000 s           0.000 s

  Partial memory accounting:
  | Current value for overall tracked memory usage on task 0  :          10.737 MB
  | Peak value for overall tracked memory usage on task 0     :          13.410 MB after allocating wave
  | Largest tracked array allocation on task 0 so far         :           9.999 MB  when allocating +KS_eigenvector_complex
  Note:  These values currently only include a subset of arrays which are explicitly tracked.
  The "true" memory usage will be greater.
------------------------------------------------------------

------------------------------------------------------------
          Begin self-consistency iteration #    7

  Date     :  20190514, Time     :  123839.387
------------------------------------------------------------
  Evaluating new KS density using the density matrix
  Evaluating density matrix
  Time summed over all CPUs for getting density from density matrix: real work        0.913 s, elapsed        0.913 s
  Integration grid: deviation in total charge (<rho> - N_e) =   8.345324E-12
  Pulay mixing of updated and previous charge densities.

  Evaluating partitioned Hartree potential by multipole expansion.
  | Analytical far-field extrapolation by fixed multipoles:
  | Hartree multipole sum: apparent total charge =   0.457197E-02
  Summing up the Hartree potential.
  Time summed over all CPUs for potential: real work        0.435 s, elapsed        0.435 s
  | RMS charge density error from multipole expansion :   0.101069E-01
  | Average real-space part of the electrostatic potential :      0.26687811 eV

  Integrating Hamiltonian matrix: batch-based integration.
  Time summed over all CPUs for integration: real work        0.560 s, elapsed        0.560 s

  Updating Kohn-Sham eigenvalues, eigenvectors, occupation numbers, and Fermi level.
  Solving generalized eigenproblem

  Obtaining occupation numbers and chemical potential using ELSI.
  | Chemical potential (Fermi level):    -5.26386903eV
  What follows are estimated values for band gap, HOMO, LUMO, etc.
  | They are estimated on a discrete k-point grid and not necessarily exact.
  | For converged numbers, create a DOS and/or band structure plot on a denser k-grid.

  Highest occupied state (VBM) at     -5.78952285 eV (relative to internal zero)
  | Occupation number:      2.00000000
  | K-point:       1 at    0.000000    0.000000    0.000000 (in units of recip. lattice)

  Lowest unoccupied state (CBM) at    -5.22166434 eV (relative to internal zero)
  | Occupation number:      0.00000000
  | K-point:      48 at    0.000000    0.416667    0.416667 (in units of recip. lattice)

  ESTIMATED overall HOMO-LUMO gap:      0.56785850 eV between HOMO at k-point 1 and LUMO at k-point 48
  | This appears to be an indirect band gap.
  | Smallest direct gap :      2.48106169 eV for k_point 6 at    0.000000    0.416667    0.416667 (in units of recip. lattice)
  The gap value is above 0.2 eV. Unless you are using a very sparse k-point grid,
  this system is most likely an insulator or a semiconductor.

  Total energy components:
  | Sum of eigenvalues            :        -327.57058911 Ha       -8913.64925115 eV
  | XC energy correction          :         -39.68763240 Ha       -1079.95542509 eV
  | XC potential correction       :          52.43373252 Ha        1426.79445645 eV
  | Free-atom electrostatic energy:        -263.39488195 Ha       -7167.33940814 eV
  | Hartree energy correction     :          -0.51641595 Ha         -14.05239290 eV
  | Entropy correction            :          -0.00000000 Ha          -0.00000000 eV
  | ---------------------------
  | Total energy                  :        -578.73578689 Ha      -15748.20202084 eV
  | Total energy, T -> 0          :        -578.73578689 Ha      -15748.20202084 eV  <-- do not rely on this value for anything but (periodic) metals
  | Electronic free energy        :        -578.73578689 Ha      -15748.20202084 eV

  Derived energy quantities:
  | Kinetic energy                :         579.58385440 Ha       15771.27911194 eV
  | Electrostatic energy          :       -1118.63200888 Ha      -30439.52570769 eV
  | Energy correction for multipole
  | error in Hartree potential    :           0.01313786 Ha           0.35749924 eV
  | Sum of eigenvalues per atom                           :       -4456.82462557 eV
  | Total energy (T->0) per atom                          :       -7874.10101042 eV  <-- do not rely on this value for anything but (periodic) metals
  | Electronic free energy per atom                       :       -7874.10101042 eV

  Self-consistency convergence accuracy:
  | Change of charge density      :  0.6009E-02
  | Change of sum of eigenvalues  : -0.5329E+00 eV
  | Change of total energy        :  0.3608E-03 eV

  End self-consistency iteration #     7       :  max(cpu_time)    wall_clock(cpu1)
  | Time for this iteration                    :        2.522 s           2.521 s
  | Charge density update                      :        0.974 s           0.973 s
  | Density mixing & preconditioning           :        0.045 s           0.045 s
  | Hartree multipole update                   :        0.001 s           0.001 s
  | Hartree multipole summation                :        0.438 s           0.439 s
  | Integration                                :        0.561 s           0.560 s
  | Solution of K.-S. eqns.                    :        0.503 s           0.503 s
  | Total energy evaluation                    :        0.000 s           0.000 s

  Partial memory accounting:
  | Current value for overall tracked memory usage on task 0  :          10.737 MB
  | Peak value for overall tracked memory usage on task 0     :          13.410 MB after allocating wave
  | Largest tracked array allocation on task 0 so far         :           9.999 MB  when allocating +KS_eigenvector_complex
  Note:  These values currently only include a subset of arrays which are explicitly tracked.
  The "true" memory usage will be greater.
------------------------------------------------------------

------------------------------------------------------------
          Begin self-consistency iteration #    8

  Date     :  20190514, Time     :  123841.908
------------------------------------------------------------
  Evaluating new KS density using the density matrix
  Evaluating density matrix
  Time summed over all CPUs for getting density from density matrix: real work        0.917 s, elapsed        0.917 s
  Integration grid: deviation in total charge (<rho> - N_e) =   8.373746E-12
  Pulay mixing of updated and previous charge densities.

  Evaluating partitioned Hartree potential by multipole expansion.
  | Analytical far-field extrapolation by fixed multipoles:
  | Hartree multipole sum: apparent total charge =   0.471926E-02
  Summing up the Hartree potential.
  Time summed over all CPUs for potential: real work        0.440 s, elapsed        0.440 s
  | RMS charge density error from multipole expansion :   0.100713E-01
  | Average real-space part of the electrostatic potential :      0.25960714 eV

  Integrating Hamiltonian matrix: batch-based integration.
  Time summed over all CPUs for integration: real work        0.561 s, elapsed        0.561 s

  Updating Kohn-Sham eigenvalues, eigenvectors, occupation numbers, and Fermi level.
  Solving generalized eigenproblem

  Obtaining occupation numbers and chemical potential using ELSI.
  | Chemical potential (Fermi level):    -5.26648456eV
  What follows are estimated values for band gap, HOMO, LUMO, etc.
  | They are estimated on a discrete k-point grid and not necessarily exact.
  | For converged numbers, create a DOS and/or band structure plot on a denser k-grid.

  Highest occupied state (VBM) at     -5.79768411 eV (relative to internal zero)
  | Occupation number:      2.00000000
  | K-point:       1 at    0.000000    0.000000    0.000000 (in units of recip. lattice)

  Lowest unoccupied state (CBM) at    -5.22427846 eV (relative to internal zero)
  | Occupation number:      0.00000000
  | K-point:      48 at    0.000000    0.416667    0.416667 (in units of recip. lattice)

  ESTIMATED overall HOMO-LUMO gap:      0.57340565 eV between HOMO at k-point 1 and LUMO at k-point 48
  | This appears to be an indirect band gap.
  | Smallest direct gap :      2.48216653 eV for k_point 615 at    0.000000    0.416667    0.416667 (in units of recip. lattice)
  The gap value is above 0.2 eV. Unless you are using a very sparse k-point grid,
  this system is most likely an insulator or a semiconductor.

  Total energy components:
  | Sum of eigenvalues            :        -327.60640899 Ha       -8914.62395966 eV
  | XC energy correction          :         -39.68400453 Ha       -1079.85670582 eV
  | XC potential correction       :          52.42892889 Ha        1426.66374291 eV
  | Free-atom electrostatic energy:        -263.39488195 Ha       -7167.33940814 eV
  | Hartree energy correction     :          -0.47940066 Ha         -13.04515576 eV
  | Entropy correction            :          -0.00000000 Ha          -0.00000000 eV
  | ---------------------------
  | Total energy                  :        -578.73576725 Ha      -15748.20148648 eV
  | Total energy, T -> 0          :        -578.73576725 Ha      -15748.20148648 eV  <-- do not rely on this value for anything but (periodic) metals
  | Electronic free energy        :        -578.73576725 Ha      -15748.20148648 eV

  Derived energy quantities:
  | Kinetic energy                :         579.54035757 Ha       15770.09550319 eV
  | Electrostatic energy          :       -1118.59212029 Ha      -30438.44028385 eV
  | Energy correction for multipole
  | error in Hartree potential    :           0.01303998 Ha           0.35483590 eV
  | Sum of eigenvalues per atom                           :       -4457.31197983 eV
  | Total energy (T->0) per atom                          :       -7874.10074324 eV  <-- do not rely on this value for anything but (periodic) metals
  | Electronic free energy per atom                       :       -7874.10074324 eV

  Self-consistency convergence accuracy:
  | Change of charge density      :  0.4833E-02
  | Change of sum of eigenvalues  : -0.9747E+00 eV
  | Change of total energy        :  0.5344E-03 eV

  End self-consistency iteration #     8       :  max(cpu_time)    wall_clock(cpu1)
  | Time for this iteration                    :        2.532 s           2.532 s
  | Charge density update                      :        0.978 s           0.979 s
  | Density mixing & preconditioning           :        0.043 s           0.043 s
  | Hartree multipole update                   :        0.001 s           0.001 s
  | Hartree multipole summation                :        0.443 s           0.443 s
  | Integration                                :        0.561 s           0.561 s
  | Solution of K.-S. eqns.                    :        0.505 s           0.505 s
  | Total energy evaluation                    :        0.000 s           0.000 s

  Partial memory accounting:
  | Current value for overall tracked memory usage on task 0  :          10.737 MB
  | Peak value for overall tracked memory usage on task 0     :          13.410 MB after allocating wave
  | Largest tracked array allocation on task 0 so far         :           9.999 MB  when allocating +KS_eigenvector_complex
  Note:  These values currently only include a subset of arrays which are explicitly tracked.
  The "true" memory usage will be greater.
------------------------------------------------------------

------------------------------------------------------------
          Begin self-consistency iteration #    9

  Date     :  20190514, Time     :  123844.440
------------------------------------------------------------
  Evaluating new KS density using the density matrix
  Evaluating density matrix
  Time summed over all CPUs for getting density from density matrix: real work        0.916 s, elapsed        0.916 s
  Integration grid: deviation in total charge (<rho> - N_e) =   8.455459E-12
  Pulay mixing of updated and previous charge densities.

  Evaluating partitioned Hartree potential by multipole expansion.
  | Analytical far-field extrapolation by fixed multipoles:
  | Hartree multipole sum: apparent total charge =   0.473690E-02
  Summing up the Hartree potential.
  Time summed over all CPUs for potential: real work        0.433 s, elapsed        0.433 s
  | RMS charge density error from multipole expansion :   0.100581E-01
  | Average real-space part of the electrostatic potential :      0.25759337 eV

  Integrating Hamiltonian matrix: batch-based integration.
  Time summed over all CPUs for integration: real work        0.558 s, elapsed        0.558 s

  Updating Kohn-Sham eigenvalues, eigenvectors, occupation numbers, and Fermi level.
  Solving generalized eigenproblem

  Obtaining occupation numbers and chemical potential using ELSI.
  | Chemical potential (Fermi level):    -5.26726515eV
  What follows are estimated values for band gap, HOMO, LUMO, etc.
  | They are estimated on a discrete k-point grid and not necessarily exact.
  | For converged numbers, create a DOS and/or band structure plot on a denser k-grid.

  Highest occupied state (VBM) at     -5.80010181 eV (relative to internal zero)
  | Occupation number:      2.00000000
  | K-point:       1 at    0.000000    0.000000    0.000000 (in units of recip. lattice)

  Lowest unoccupied state (CBM) at    -5.22506617 eV (relative to internal zero)
  | Occupation number:      0.00000000
  | K-point:      48 at    0.000000    0.416667    0.416667 (in units of recip. lattice)

  ESTIMATED overall HOMO-LUMO gap:      0.57503564 eV between HOMO at k-point 1 and LUMO at k-point 48
  | This appears to be an indirect band gap.
  | Smallest direct gap :      2.48250780 eV for k_point 615 at    0.000000    0.416667    0.416667 (in units of recip. lattice)
  The gap value is above 0.2 eV. Unless you are using a very sparse k-point grid,
  this system is most likely an insulator or a semiconductor.

  Total energy components:
  | Sum of eigenvalues            :        -327.61645620 Ha       -8914.89735828 eV
  | XC energy correction          :         -39.68299404 Ha       -1079.82920884 eV
  | XC potential correction       :          52.42759089 Ha        1426.62733398 eV
  | Free-atom electrostatic energy:        -263.39488195 Ha       -7167.33940814 eV
  | Hartree energy correction     :          -0.46902154 Ha         -12.76272550 eV
  | Entropy correction            :          -0.00000000 Ha          -0.00000000 eV
  | ---------------------------
  | Total energy                  :        -578.73576285 Ha      -15748.20136678 eV
  | Total energy, T -> 0          :        -578.73576285 Ha      -15748.20136678 eV  <-- do not rely on this value for anything but (periodic) metals
  | Electronic free energy        :        -578.73576285 Ha      -15748.20136678 eV

  Derived energy quantities:
[...]
  | Total energy evaluation                    :        0.000 s           0.001 s

  Partial memory accounting:
  | Current value for overall tracked memory usage on task 0  :          10.738 MB
  | Peak value for overall tracked memory usage on task 0     :          13.410 MB after allocating wave
  | Largest tracked array allocation on task 0 so far         :           9.999 MB  when allocating +KS_eigenvector_complex
  Note:  These values currently only include a subset of arrays which are explicitly tracked.
  The "true" memory usage will be greater.
------------------------------------------------------------

------------------------------------------------------------
          Begin self-consistency iteration #   11

  Date     :  20190514, Time     :  123849.494
------------------------------------------------------------
  Evaluating new KS density using the density matrix
  Evaluating density matrix
  Time summed over all CPUs for getting density from density matrix: real work        0.912 s, elapsed        0.912 s
  Integration grid: deviation in total charge (<rho> - N_e) =   8.384404E-12
  Pulay mixing of updated and previous charge densities.

  Evaluating partitioned Hartree potential by multipole expansion.
  | Analytical far-field extrapolation by fixed multipoles:
  | Hartree multipole sum: apparent total charge =   0.472272E-02
  Summing up the Hartree potential.
  Time summed over all CPUs for potential: real work        0.434 s, elapsed        0.434 s
  | RMS charge density error from multipole expansion :   0.100241E-01
  | Average real-space part of the electrostatic potential :      0.25138426 eV

  Integrating Hamiltonian matrix: batch-based integration.
  Time summed over all CPUs for integration: real work        0.551 s, elapsed        0.551 s

  Updating Kohn-Sham eigenvalues, eigenvectors, occupation numbers, and Fermi level.
  Solving generalized eigenproblem

  Obtaining occupation numbers and chemical potential using ELSI.
  | Chemical potential (Fermi level):    -5.26976087eV
  What follows are estimated values for band gap, HOMO, LUMO, etc.
  | They are estimated on a discrete k-point grid and not necessarily exact.
  | For converged numbers, create a DOS and/or band structure plot on a denser k-grid.

  Highest occupied state (VBM) at     -5.80768004 eV (relative to internal zero)
  | Occupation number:      2.00000000
  | K-point:       1 at    0.000000    0.000000    0.000000 (in units of recip. lattice)

  Lowest unoccupied state (CBM) at    -5.22755009 eV (relative to internal zero)
  | Occupation number:      0.00000000
  | K-point:      48 at    0.000000    0.416667    0.416667 (in units of recip. lattice)

  ESTIMATED overall HOMO-LUMO gap:      0.58012994 eV between HOMO at k-point 1 and LUMO at k-point 48
  | This appears to be an indirect band gap.
  | Smallest direct gap :      2.48352548 eV for k_point 671 at    0.000000    0.416667    0.416667 (in units of recip. lattice)
  The gap value is above 0.2 eV. Unless you are using a very sparse k-point grid,
  this system is most likely an insulator or a semiconductor.

  Total energy components:
  | Sum of eigenvalues            :        -327.64936381 Ha       -8915.79281971 eV
  | XC energy correction          :         -39.67971726 Ha       -1079.74004318 eV
  | XC potential correction       :          52.42325120 Ha        1426.50924518 eV
  | Free-atom electrostatic energy:        -263.39488195 Ha       -7167.33940814 eV
  | Hartree energy correction     :          -0.43503976 Ha         -11.83803424 eV
  | Entropy correction            :          -0.00000000 Ha          -0.00000000 eV
  | ---------------------------
  | Total energy                  :        -578.73575158 Ha      -15748.20106009 eV
  | Total energy, T -> 0          :        -578.73575158 Ha      -15748.20106009 eV  <-- do not rely on this value for anything but (periodic) metals
  | Electronic free energy        :        -578.73575158 Ha      -15748.20106009 eV

  Derived energy quantities:
  | Kinetic energy                :         579.48852420 Ha       15768.68504542 eV
  | Electrostatic energy          :       -1118.54455852 Ha      -30437.14606233 eV
  | Energy correction for multipole
  | error in Hartree potential    :           0.01291559 Ha           0.35145119 eV
  | Sum of eigenvalues per atom                           :       -4457.89640986 eV
  | Total energy (T->0) per atom                          :       -7874.10053004 eV  <-- do not rely on this value for anything but (periodic) metals
  | Electronic free energy per atom                       :       -7874.10053004 eV

  Self-consistency convergence accuracy:
  | Change of charge density      :  0.1115E-05
  | Change of sum of eigenvalues  : -0.1016E-03 eV
  | Change of total energy        :  0.6262E-07 eV

  End self-consistency iteration #    11       :  max(cpu_time)    wall_clock(cpu1)
  | Time for this iteration                    :        2.512 s           2.512 s
  | Charge density update                      :        0.974 s           0.974 s
  | Density mixing & preconditioning           :        0.043 s           0.043 s
  | Hartree multipole update                   :        0.001 s           0.001 s
  | Hartree multipole summation                :        0.437 s           0.437 s
  | Integration                                :        0.551 s           0.551 s
  | Solution of K.-S. eqns.                    :        0.506 s           0.505 s
  | Total energy evaluation                    :        0.000 s           0.000 s

  Partial memory accounting:
  | Current value for overall tracked memory usage on task 0  :          10.738 MB
  | Peak value for overall tracked memory usage on task 0     :          13.410 MB after allocating wave
  | Largest tracked array allocation on task 0 so far         :           9.999 MB  when allocating +KS_eigenvector_complex
  Note:  These values currently only include a subset of arrays which are explicitly tracked.
  The "true" memory usage will be greater.
------------------------------------------------------------

------------------------------------------------------------
          Begin self-consistency iteration #   12

  Date     :  20190514, Time     :  123852.006
------------------------------------------------------------
  Evaluating new KS density using the density matrix
  Evaluating density matrix
  Time summed over all CPUs for getting density from density matrix: real work        0.913 s, elapsed        0.913 s
  Integration grid: deviation in total charge (<rho> - N_e) =   8.242296E-12
  Pulay mixing of updated and previous charge densities.

  Evaluating partitioned Hartree potential by multipole expansion.
  | Analytical far-field extrapolation by fixed multipoles:
  | Hartree multipole sum: apparent total charge =   0.472288E-02
  Summing up the Hartree potential.
  Time summed over all CPUs for potential: real work        0.438 s, elapsed        0.438 s
  | RMS charge density error from multipole expansion :   0.100241E-01
  | Average real-space part of the electrostatic potential :      0.25138266 eV

  Integrating Hamiltonian matrix: batch-based integration.
  Time summed over all CPUs for integration: real work        0.554 s, elapsed        0.554 s

  Updating Kohn-Sham eigenvalues, eigenvectors, occupation numbers, and Fermi level.
  Solving generalized eigenproblem

  Obtaining occupation numbers and chemical potential using ELSI.
  | Chemical potential (Fermi level):    -5.26976146eV
  What follows are estimated values for band gap, HOMO, LUMO, etc.
  | They are estimated on a discrete k-point grid and not necessarily exact.
  | For converged numbers, create a DOS and/or band structure plot on a denser k-grid.

  Highest occupied state (VBM) at     -5.80768109 eV (relative to internal zero)
  | Occupation number:      2.00000000
  | K-point:       1 at    0.000000    0.000000    0.000000 (in units of recip. lattice)

  Lowest unoccupied state (CBM) at    -5.22755059 eV (relative to internal zero)
  | Occupation number:      0.00000000
  | K-point:      48 at    0.000000    0.416667    0.416667 (in units of recip. lattice)

  ESTIMATED overall HOMO-LUMO gap:      0.58013050 eV between HOMO at k-point 1 and LUMO at k-point 48
  | This appears to be an indirect band gap.
  | Smallest direct gap :      2.48352551 eV for k_point 615 at    0.000000    0.416667    0.416667 (in units of recip. lattice)
  The gap value is above 0.2 eV. Unless you are using a very sparse k-point grid,
  this system is most likely an insulator or a semiconductor.

  Total energy components:
  | Sum of eigenvalues            :        -327.64936957 Ha       -8915.79297643 eV
  | XC energy correction          :         -39.67971644 Ha       -1079.74002103 eV
  | XC potential correction       :          52.42325012 Ha        1426.50921586 eV
  | Free-atom electrostatic energy:        -263.39488195 Ha       -7167.33940814 eV
  | Hartree energy correction     :          -0.43503374 Ha         -11.83787039 eV
  | Entropy correction            :          -0.00000000 Ha          -0.00000000 eV
  | ---------------------------
  | Total energy                  :        -578.73575158 Ha      -15748.20106013 eV
  | Total energy, T -> 0          :        -578.73575158 Ha      -15748.20106013 eV  <-- do not rely on this value for anything but (periodic) metals
  | Electronic free energy        :        -578.73575158 Ha      -15748.20106013 eV

  Derived energy quantities:
  | Kinetic energy                :         579.48851548 Ha       15768.68480803 eV
  | Electrostatic energy          :       -1118.54455061 Ha      -30437.14584713 eV
  | Energy correction for multipole
  | error in Hartree potential    :           0.01291553 Ha           0.35144958 eV
  | Sum of eigenvalues per atom                           :       -4457.89648821 eV
  | Total energy (T->0) per atom                          :       -7874.10053006 eV  <-- do not rely on this value for anything but (periodic) metals
  | Electronic free energy per atom                       :       -7874.10053006 eV

  Self-consistency convergence accuracy:
  | Change of charge density      :  0.5603E-06
  | Change of sum of eigenvalues  : -0.1567E-03 eV
  | Change of total energy        : -0.4064E-07 eV

  Preliminary charge convergence reached. Turning off preconditioner.

  Writing Kohn-Sham eigenvalues.
  K-point:       1 at    0.000000    0.000000    0.000000 (in units of recip. lattice)

  State    Occupation    Eigenvalue [Ha]    Eigenvalue [eV]
      1       2.00000         -65.491784        -1782.12211
      2       2.00000         -65.491784        -1782.12211
      3       2.00000          -5.097227         -138.70261
      4       2.00000          -5.096979         -138.69586
      5       2.00000          -3.510773          -95.53300
      6       2.00000          -3.510773          -95.53300
      7       2.00000          -3.510773          -95.53300
      8       2.00000          -3.510233          -95.51829
      9       2.00000          -3.510233          -95.51829
     10       2.00000          -3.510233          -95.51829
     11       2.00000          -0.643666          -17.51504
     12       2.00000          -0.213428           -5.80768
     13       2.00000          -0.213428           -5.80768
     14       2.00000          -0.213428           -5.80768
     15       0.00000          -0.119706           -3.25735
     16       0.00000          -0.119706           -3.25735
     17       0.00000          -0.119706           -3.25735
     18       0.00000          -0.107720           -2.93122
     19       0.00000           0.076753            2.08855
     20       0.00000           0.076753            2.08855

  What follows are estimated values for band gap, HOMO, LUMO, etc.
  | They are estimated on a discrete k-point grid and not necessarily exact.
  | For converged numbers, create a DOS and/or band structure plot on a denser k-grid.

  Highest occupied state (VBM) at     -5.80768109 eV (relative to internal zero)
  | Occupation number:      2.00000000
  | K-point:       1 at    0.000000    0.000000    0.000000 (in units of recip. lattice)

  Lowest unoccupied state (CBM) at    -5.22755059 eV (relative to internal zero)
  | Occupation number:      0.00000000
  | K-point:      48 at    0.000000    0.416667    0.416667 (in units of recip. lattice)

  ESTIMATED overall HOMO-LUMO gap:      0.58013050 eV between HOMO at k-point 1 and LUMO at k-point 48
  | This appears to be an indirect band gap.
  | Smallest direct gap :      2.48352551 eV for k_point 615 at    0.000000    0.416667    0.416667 (in units of recip. lattice)
  The gap value is above 0.2 eV. Unless you are using a very sparse k-point grid,
  this system is most likely an insulator or a semiconductor.

  Self-consistency cycle converged.

  End self-consistency iteration #    12       :  max(cpu_time)    wall_clock(cpu1)
  | Time for this iteration                    :        2.523 s           2.524 s
  | Charge density update                      :        0.975 s           0.974 s
  | Density mixing                             :        0.044 s           0.045 s
  | Hartree multipole update                   :        0.001 s           0.000 s
  | Hartree multipole summation                :        0.441 s           0.442 s
  | Integration                                :        0.554 s           0.554 s
  | Solution of K.-S. eqns.                    :        0.508 s           0.507 s
  | Total energy evaluation                    :        0.000 s           0.000 s

  Partial memory accounting:
  | Current value for overall tracked memory usage on task 0  :          10.738 MB
  | Peak value for overall tracked memory usage on task 0     :          13.410 MB after allocating wave
  | Largest tracked array allocation on task 0 so far         :           9.999 MB  when allocating +KS_eigenvector_complex
  Note:  These values currently only include a subset of arrays which are explicitly tracked.
  The "true" memory usage will be greater.
------------------------------------------------------------

  Energy and forces in a compact form:
  | Total energy uncorrected      :         -0.157482010601285E+05 eV
  | Total energy corrected        :         -0.157482010601285E+05 eV  <-- do not rely on this value for anything but (periodic) metals
  | Electronic free energy        :         -0.157482010601285E+05 eV

  ------------------------------------ 
  Start decomposition of the XC Energy 
  ------------------------------------ 
  X and C from original XC functional choice 
  Hartree-Fock Energy :          0.000000000 Ha              0.000000000 eV
  X Energy            :        -37.536134995 Ha          -1021.410201997 eV
  C Energy            :         -2.143581450 Ha            -58.329819032 eV
  Total XC Energy     :        -39.679716445 Ha          -1079.740021030 eV
  ------------------------------------ 
  LDA X and C from self-consistent density 
  X Energy LDA        :        -37.536134995 Ha          -1021.410201997 eV
  C Energy LDA        :         -2.143581450 Ha            -58.329819032 eV
  ------------------------------------ 
  End decomposition of the XC Energy 
  ------------------------------------ 

------------------------------------------------------------

------------------------------------------------------------------------------
  Final output of selected total energy values:

  The following output summarizes some interesting total energy values
  at the end of a run (AFTER all relaxation, molecular dynamics, etc.).

  | Total energy of the DFT / Hartree-Fock s.c.f. calculation      :         -15748.201060128 eV
  | Final zero-broadening corrected energy (caution - metals only) :         -15748.201060128 eV
  | For reference only, the value of 1 Hartree used in FHI-aims is :             27.211384500 eV

  Before relying on these values, please be sure to understand exactly which
  total energy value is referred to by a given number. Different objects may
  all carry the same name 'total energy'. Definitions:

  Total energy of the DFT / Hartree-Fock s.c.f. calculation:
  | Note that this energy does not include ANY quantities calculated after the
  | s.c.f. cycle, in particular not ANY RPA, MP2, etc. many-body perturbation terms.

  Final zero-broadening corrected energy:
  | For metallic systems only, a broadening of the occupation numbers at the Fermi
  | level can be extrapolated back to zero broadening by an electron-gas inspired
  | formula. For all systems that are not real metals, this value can be
  | meaningless and should be avoided.

------------------------------------------------------------------------------
  Methods described in the following list of references were used in this FHI-aims run.
  If you publish the results, please make sure to cite these reference if they apply.
  FHI-aims is an academic code, and for our developers (often, Ph.D. students
  and postdocs), scientific credit in the community is essential.
  Thank you for helping us!

  For any use of FHI-aims, please cite:

    Volker Blum, Ralf Gehrke, Felix Hanke, Paula Havu, Ville Havu,
    Xinguo Ren, Karsten Reuter, and Matthias Scheffler
    'Ab initio molecular simulations with numeric atom-centered orbitals'
    Computer Physics Communications 180, 2175-2196 (2009)
    http://dx.doi.org/10.1016/j.cpc.2009.06.022


  For the real-space grid partitioning and parallelization used in this calculation, please cite:

    Ville Havu, Volker Blum, Paula Havu, and Matthias Scheffler,
    'Efficient O(N) integration for all-electron electronic structure calculation'
    'using numerically tabulated basis functions'
    Journal of Computational Physics 228, 8367-8379 (2009).
    http://dx.doi.org/10.1016/j.jcp.2009.08.008

  Of course, there are many other important community references, e.g., those cited in the
  above references. Our list is limited to references that describe implementations in the
  FHI-aims code. The reason is purely practical (length of this list) - please credit others as well.

------------------------------------------------------------
          Leaving FHI-aims.
          Date     :  20190514, Time     :  123854.538

          Computational steps:
          | Number of self-consistency cycles          :           12
          | Number of SCF (re)initializations          :            1

          Detailed time accounting                     :  max(cpu_time)    wall_clock(cpu1)
          | Total time                                 :       32.485 s          32.491 s
          | Preparation time                           :        0.090 s           0.090 s
          | Boundary condition initalization           :        0.040 s           0.040 s
          | Grid partitioning                          :        0.031 s           0.031 s
          | Preloading free-atom quantities on grid    :        0.001 s           0.001 s
          | Free-atom superposition energy             :        0.028 s           0.028 s
          | Total time for integrations                :        7.627 s           7.631 s
          | Total time for solution of K.-S. equations :        7.055 s           7.053 s
          | Total time for density update              :       11.699 s          11.699 s
          | Total time for mixing & preconditioning    :        0.537 s           0.537 s
          | Total time for Hartree multipole update    :        0.009 s           0.009 s
          | Total time for Hartree multipole sum       :        5.204 s           5.205 s
          | Total time for total energy evaluation     :        0.003 s           0.002 s
          | Total time for scaled ZORA corrections     :        0.000 s           0.000 s

 This is a stub MPI_ALLREDUCE call.
 You should not be here. Check your
 setting on the use_mpi variable, or
 link against true MPI-libraries.
