------------------------------------------------------------
          Invoking FHI-aims ...
          Version 171221_1
          Compiled on 2019/05/06 at 14:26:40 on host ffph0xx.

          When using FHI-aims, please cite the following reference:

          Volker Blum, Ralf Gehrke, Felix Hanke, Paula Havu,
          Ville Havu, Xinguo Ren, Karsten Reuter, and Matthias Scheffler,
          'Ab Initio Molecular Simulations with Numeric Atom-Centered Orbitals',
          Computer Physics Communications 180, 2175-2196 (2009)

          For any questions about FHI-aims, please visit the aimsclub website
          with its forums and wiki. Contributions to both the forums and the
          wiki are warmly encouraged - they are for you, and everyone is welcome there.

------------------------------------------------------------



  Date     :  20190508, Time     :  153130.073
  Time zero on CPU 1             :   0.811000000000000E-03  s.
  Internal wall clock time zero  :           326561490.073  s.

  FHI-aims created a unique identifier for this run for later identification
  aims_uuid : CB541487-EBF9-444D-A92E-D043393C7DA4


  Performing system and environment tests:
  *** Environment variable OMP_NUM_THREADS is not set
  *** For performance reasons you might want to set it to 1
  | Stacksize not measured: no C compiler

  Obtaining array dimensions for all initial allocations:
  
  -----------------------------------------------------------------------
  Parsing control.in (first pass over file, find array dimensions only).
  The contents of control.in will be repeated verbatim below
  unless switched off by setting 'verbatim_writeout .false.' .
  in the first line of control.in .
  -----------------------------------------------------------------------
  
  #--- Specification of method ---
  xc pbe0
  charge 0.0
  spin collinear
  default_initial_moment 2.0
  #---
  
  #--- iteration limit ---
  sc_iter_limit 100
  
  # other possible thresholds
  # sc_accuracy_eev ... for sum of Kohn-Sham eigen values
  # sc_accuracy_etot .. total energy
  # sc_accuracy_rho ... electron density
  #---
  
  #--- tasks (what to calculate) ---
  output dipole
  #---
  
  
  ################################################################################
  ############# Species Defaults ####################
  ################################################################################
  
  
  ################################################################################
  #
  #  FHI-aims code project
  # Volker Blum, Fritz Haber Institute Berlin, 2009
  #
  #  Suggested "tight" defaults for O atom (to be pasted into control.in file)
  #
  ################################################################################
    species        O
  #     global species definitions
      nucleus             8
      mass                15.9994
  #
      l_hartree           6
  #
      cut_pot             4.0  2.0  1.0
      basis_dep_cutoff    1e-4
  #
      radial_base         36 7.0
      radial_multiplier   2
       angular_grids specified
        division   0.1817   50
        division   0.3417  110
        division   0.4949  194
        division   0.6251  302
        division   0.8014  434
  #      division   0.8507  590
  #      division   0.8762  770
  #      division   0.9023  974
  #      division   1.2339 1202
  #      outer_grid 974
        outer_grid  434
  ################################################################################
  #
  #  Definition of "minimal" basis
  #
  ################################################################################
  #     valence basis states
      valence      2  s   2.
      valence      2  p   4.
  #     ion occupancy
      ion_occ      2  s   1.
      ion_occ      2  p   3.
  ################################################################################
  #
  #  Suggested additional basis functions. For production calculations,
  #  uncomment them one after another (the most important basis functions are
  #  listed first).
  #
  #  Constructed for dimers: 1.0 A, 1.208 A, 1.5 A, 2.0 A, 3.0 A
  #
  ################################################################################
  #  "First tier" - improvements: -699.05 meV to -159.38 meV
       hydro 2 p 1.8
       hydro 3 d 7.6
       hydro 3 s 6.4
  #  "Second tier" - improvements: -49.91 meV to -5.39 meV
       hydro 4 f 11.6
       hydro 3 p 6.2
       hydro 3 d 5.6
       hydro 5 g 17.6
       hydro 1 s 0.75
  #  "Third tier" - improvements: -2.83 meV to -0.50 meV
  #     ionic 2 p auto
  #     hydro 4 f 10.8
  #     hydro 4 d 4.7
  #     hydro 2 s 6.8
  #  "Fourth tier" - improvements: -0.40 meV to -0.12 meV
  #     hydro 3 p 5
  #     hydro 3 s 3.3
  #     hydro 5 g 15.6
  #     hydro 4 f 17.6
  #     hydro 4 d 14
  # Further basis functions - -0.08 meV and below
  #     hydro 3 s 2.1
  #     hydro 4 d 11.6
  #     hydro 3 p 16
  #     hydro 2 s 17.2
  ################################################################################
  #
  # For methods that use the localized form of the "resolution of identity" for
  # the two-electron Coulomb operator (RI_method LVL), particularly Hartree-Fock and
  # hybrid density functional calculations, the highest accuracy can be obtained by
  # uncommenting the line beginning with "for_aux"  below, thus adding an extra g radial
  # function to the construction of the product basis set for the expansion.
  # See Ref. New J. Phys. 17, 093020 (2015) for more information, particularly Figs. 1 and 6.
  #
  ################################################################################
  #
  # for_aux hydro 5 g 6.0
  
  -----------------------------------------------------------------------
  Completed first pass over input file control.in .
  -----------------------------------------------------------------------
  
  
  -----------------------------------------------------------------------
  Parsing geometry.in (first pass over file, find array dimensions only).
  The contents of geometry.in will be repeated verbatim below
  unless switched off by setting 'verbatim_writeout .false.' .
  in the first line of geometry.in .
  -----------------------------------------------------------------------
  
  # HF with variable bonding distance
  atom 0.0 0.0 0.0 O
  atom 0.0 0.0 1.1 O
  
  -----------------------------------------------------------------------
  Completed first pass over input file geometry.in .
  -----------------------------------------------------------------------
  

  Basic array size parameters:
  | Number of species                 :        1
  | Number of atoms                   :        2
  | Max. basis fn. angular momentum   :        4
  | Max. atomic/ionic basis occupied n:        2
  | Max. number of basis fn. types    :        2
  | Max. radial fns per species/type  :        8
  | Max. logarithmic grid size        :     1301
  | Max. radial integration grid size :       73
  | Max. angular integration grid size:      434
  | Max. angular grid division number :        8
  | Radial grid for Hartree potential :     1301
  | Number of spin channels           :        2

------------------------------------------------------------
          Reading file control.in.
------------------------------------------------------------
  XC: Using hybrid-PBE0 functionals.
  Charge =   0.000000E+00: Neutral system requested explicitly.
  Spin treatment: Spin density functional theory - collinear spins.
  Initial spin moment per atom:   2.0000
  Maximum number of s.-c. iterations  :   100
  Dipole moment will be written out.

  Reading configuration options for species O                   .
  | Found nuclear charge :   8.0000
  | Found atomic mass :    15.999400000000000      amu
  | Found l_max for Hartree potential  :   6
  | Found cutoff potl. onset [A], width [A], scale factor :    4.00000    2.00000    1.00000
  | Threshold for basis-dependent cutoff potential is   0.100000E-03
  | Found data for basic radial integration grid :    36 points, outermost radius =    7.000 A
  | Found multiplier for basic radial grid :   2
  | Found angular grid specification: user-specified.
  | Specified grid contains     6 separate shells.
  | Check grid settings after all constraints further below.
  | Found free-atom valence shell :  2 s   2.000
  | Found free-atom valence shell :  2 p   4.000
  | No ionic wave fns used. Skipping ion_occ.
  | No ionic wave fns used. Skipping ion_occ.
  | Found hydrogenic basis function :  2 p   1.800
  | Found hydrogenic basis function :  3 d   7.600
  | Found hydrogenic basis function :  3 s   6.400
  | Found hydrogenic basis function :  4 f  11.600
  | Found hydrogenic basis function :  3 p   6.200
  | Found hydrogenic basis function :  3 d   5.600
  | Found hydrogenic basis function :  5 g  17.600
  | Found hydrogenic basis function :  1 s   0.750
  Species O                   : Missing cutoff potential type.
  Defaulting to exp(1/x)/(1-x)^2 type cutoff potential.
  Species O : No 'logarithmic' tag. Using default grid for free atom:
  | Default logarithmic grid data [bohr] : 0.1000E-03 0.1000E+03 0.1012E+01
  Species O : On-site basis accuracy parameter (for Gram-Schmidt orthonormalisation) not specified.
  Using default value basis_acc =  0.1000000E-03.
  Species O                   : Using default innermost maximum threshold i_radial=  2 for radial functions.
  Species O                   : Default cutoff onset for free atom density etc. : 0.40000000E+01 AA.
  Species O                   : Basic radial grid will be enhanced according to radial_multiplier =   2, to contain    73 grid points.

  Finished reading input file 'control.in'. Consistency checks are next.

  MPI_IN_PLACE appears to work with this MPI implementation.
  | Keeping use_mpi_in_place .true. (see manual).
  Explicit treatment of the Coulomb operator is needed, but the RI method is not specified.
  Coulomb operator: Defaulting to 'LVL fast' resolution of identity - RI_type = LVL_fast 
  Species O: Using default value for prodbas_acc =   1.000000E-04.
  Species O: Using default value max_l_prodbas =    20.
  Target number of points in a grid batch is not set. Defaulting to  100
  Method for grid partitioning is not set. Defaulting to 'maxmin' partitioning.
  Batch size limit is not set. Defaulting to    200
  By default, will store active basis functions for each batch.
  If in need of memory, prune_basis_once .false. can be used to disable this option.
  communication_type for Hartree potential was not specified.
  Defaulting to calc_hartree .
 * Attention: 
 * You may want to set distributed_spline_storage to .true. in order to save memory.
 * This doesn't harm performance and is perfectly ok unless:
 * - you get error messages in postprocessing (about missing atoms in get_rho_multipole_spl)
 * - you need full spline storage in hirshfeld_analysis
  Defaulting to Pulay charge density mixer.
  Pulay mixer: Number of relevant iterations not set.
  Defaulting to    8 iterations.
  Pulay mixer: Number of initial linear mixing iterations not set.
  Defaulting to    0 iterations.
  Work space size for distributed Hartree potential not set.
  Defaulting to   0.200000E+03 MB.
  Mixing parameter for charge density mixing has not been set.
  Using default: charge_mix_param =     0.0500.
  The mixing parameter will be adjusted in iteration number     2 of the first full s.c.f. cycle only.
  Mixing parameter for spin density mixing has not been set.
  Using charge_mix_param as default:     0.0500.
  Algorithm-dependent basis array size parameters:
  | n_max_pulay                         :        8
 * Notice: The s.c.f. convergence criterion sc_accuracy_rho was not provided.
 * We used to stop in this case, and ask the user to provide reasonable
 * scf convergence criteria. However, this led some users to employ criteria
 * that led to extremely long run times, e.g., for simple relaxation.
 * We now preset a default value for sc_accuracy_rho if it is not set.
 * You may still wish to check if this setting is too tight or too loose for your needs.
 * Based on n_atoms, FHI-aims chose sc_accuracy_rho =  0.100000E-05 .
  Presetting      1001 iterations before the initial mixing cycle
  is restarted anyway using the sc_init_iter criterion / keyword.
  Presetting a factor      1.000 between actual scf density residual
  and density convergence criterion sc_accuracy_rho below which sc_init_iter
  takes no effect.
 * No s.c.f. convergence criteria (sc_accuracy_*) were provided in control.in.
 * The run will proceed with a reasonable default guess, but please check whether.
 * the s.c.f. cycles seem to take too much or too little time.
  Calculation of forces was not defined in control.in. No forces will be calculated.
  Geometry relaxation not requested: no relaxation will be performed.
  No accuracy limit for integral partition fn. given. Defaulting to  0.1000E-14.
  No threshold value for u(r) in integrations given. Defaulting to  0.1000E-05.
  No occupation type (smearing scheme) given. Defaulting to Gaussian broadening, width =  0.1000E-01 eV.
  The width will be adjusted in iteration number     2 of the first full s.c.f. cycle only.
  S.C.F. convergence parameters will be adjusted in iteration number     2 of the first full s.c.f. cycle only.
  No accuracy for occupation numbers given. Defaulting to  0.1000E-12.
  No threshold value for occupation numbers given. Defaulting to  0.0000E+00.
  No accuracy for fermi level given. Defaulting to  0.1000E-19.
  Maximum # of iterations to find E_F not set. Defaulting to  200.
  Preferred method for the eigenvalue solver ('KS_method') not specified in 'control.in'.
  Defaulting to serial version, 'lapack_fast'.
  Will not use alltoall communication since running on < 1024 CPUs.
  Threshold for basis singularities not set.
  Default threshold for basis singularities:  0.1000E-04
  partition_type (choice of integration weights) for integrals was not specified.
  | Using a version of the partition function of Stratmann and coworkers ('stratmann_smoother').
  | At each grid point, the set of atoms used to build the partition table is smoothly restricted to
  | only those atoms whose free-atom density would be non-zero at that grid point.
  Partitioning for Hartree potential was not defined. Using partition_type for integrals.
  | Adjusted default value of keyword multip_moments_threshold to:       0.10000000E-11
  | This value may affect high angular momentum components of the Hartree potential in periodic systems.
  Threshold for auxiliary basis singularities not set.
  Default threshold for auxiliary basis singularities:  0.1000E-04
  No q(lm)/r^(l+1) cutoff set for long-range Hartree potential.
  | Using default value of  0.100000E-09 .
  | Verify using the multipole_threshold keyword.
  Defaulting to new monopole extrapolation.
  Density update method: automatic selection selected.
  Coulomb operator: Defaulting to screening threshold for four-center integrals:   0.100000E-06
  Coulomb operator: Defaulting to screening threshold for Coulomb matrix:   0.100000E-09
  Coulomb operator: Defaulting to 'LVL_fast' resolution of identity - RI_type = LVL_fast 
  No other resolution of identity version is supported for periodic boundary conditions at present.
  Coulomb operator: Defaulting to logarithmic spherical Bessel transform integrals (use_logsbt .true.).
  LVL not implemented with density matrix yet
  -> switching to transformed overlap
  LVL probably works better with logsbt
  Default to 1D ("use_logsbt") integrations for auxiliary 2-center integrals.
  Default onset of logarithmic r-grid for SBT is-38.000000000000
  Default onset of logarithmic k-grid for SBT is-25.000000000000
  Default range of logarithmic r- and k-grid for SBT is 45.000000000000
  Default number of logarithmic r- and k-grid for SBT is  4096
------------------------------------------------------------


------------------------------------------------------------
          Reading geometry description geometry.in.
------------------------------------------------------------
 * Warning! You did not set the 'relativistic' flag in input file 'control.in'.
 * Since you are not attempting to treat any elements beyond Ca(Z=20), FHI-aims
 * will default to 'relativistic none'.
 * You must ensure that this is really what you want!!
 * For example, DO NOT compute total-energy differences between results from
 * different settings of the 'relativistic' flag.
  Input structure read successfully.
  The structure contains        2 atoms,  and a total of         16.000 electrons.

  Input geometry:
  | No unit cell requested.
  | Atomic structure:
  |       Atom                x [A]            y [A]            z [A]
  |    1: Species O             0.00000000        0.00000000        0.00000000
  |    2: Species O             0.00000000        0.00000000        1.10000000
  |

  | The smallest distance between any two atoms is         1.10000000 AA.
  |
  | The first atom of this pair is atom number                      1 .
  | The second atom of this pair is atom number                     2 .

  Initial moments and charges:
  |  Atom   Moment         Charge        Species
  |     1   0.200000E+01   0.000000E+00   O
  |     2   0.200000E+01   0.000000E+00   O

  Number of empty states per atom not set in control.in - providing a guess from actual geometry.
  | Total number of empty states used during s.c.f. cycle:        6
  If you use a very high smearing, use empty_states (per atom!) in control.in to increase this value.

  Structure-dependent array size parameters: 
  | Number of distinct atom types in initial rho :        1
  | Maximum number of distinct radial functions  :       11
  | Maximum number of basis functions            :       78
  | Number of Kohn-Sham states (occupied + empty):       14
------------------------------------------------------------
  Setting Coulomb cut-width to  1.091868692359 * rcut.
  Setting Coulomb cutting radius rcut to  8.000000000000 A.

------------------------------------------------------------
          Preparing all fixed parts of the calculation.
------------------------------------------------------------
  Determining machine precision:
     2.2250738585072014E-308
  Setting up grids for atomic and cluster calculations.

  Creating wave function, potential, and density for free atoms.

  Species: O

  List of occupied orbitals and eigenvalues:
    n    l              occ      energy [Ha]    energy [eV]
    1    0           2.0000       -18.898576      -514.2564
    2    0           2.0000        -0.878795       -23.9132
    2    1           4.0000        -0.332075        -9.0362

  Spin-polarized or charged system:
  Charge density initialized according to selected moments and charges.

  Creating spin-polarized density from free atoms.

  Species: O
  Charge:   0.000000
  Moment:   2.000000

  List of occupied orbitals and eigenvalues:
    n    l      energy [Ha]    energy [eV]    occupation
  Spin-up
    1    0       -18.902870      -514.3733     1.00000000
    2    0        -0.924859       -25.1667     1.00000000
    2    1        -0.375913       -10.2291     3.00000000
  Spin-down
    1    0       -18.857549      -513.1400     1.00000000
    2    0        -0.805583       -21.9210     1.00000000
    2    1        -0.264264        -7.1910     1.00000000

  Creating fixed part of basis set: Ionic, confined, hydrogenic.

  O                    hydrogenic:

  List of hydrogenic basis orbitals: 
    n    l      effective z      eigenvalue [eV]  inner max. [A]     outer max. [A]     outer radius [A]   
    2    1         1.800000       -11.0118           1.178562           1.178562           5.432602
    3    2         7.600000       -87.3182           0.624125           0.624125           3.541477
    3    0         6.400000       -61.9209           0.061167           1.081902           4.306578
    4    3        11.600000      -114.4238           0.731631           0.731631           3.585037
    3    1         6.200000       -58.1113           0.255680           1.030270           4.306578
    3    2         5.600000       -47.4081           0.847233           0.847233           4.413171
    5    4        17.600000      -168.5799           0.749740           0.749740           3.372465
    1    0         0.750000        -7.6499           0.705284           0.705284           5.366593


  Adding cutoff potential to free-atom effective potential.
  Creating atomic-like basis functions for current effective potential.

  Species O                   :

  List of atomic basis orbitals and eigenvalues:
    n    l      energy [Ha]    energy [eV]    outer radius [A]
    1    0       -18.898576      -514.2564       1.415765
    2    0        -0.878795       -23.9132       5.048385
    2    1        -0.332075        -9.0362       5.301386

  Assembling full basis from fixed parts.
  | Species O :   atomic orbital   1 s accepted.
  | Species O :    hydro orbital   3 s accepted.
  | Species O :   atomic orbital   2 s accepted.
  | Species O :    hydro orbital   1 s accepted.
  | Species O :    hydro orbital   3 p accepted.
  | Species O :   atomic orbital   2 p accepted.
  | Species O :    hydro orbital   2 p accepted.
  | Species O :    hydro orbital   3 d accepted.
  | Species O :    hydro orbital   3 d accepted.
  | Species O :    hydro orbital   4 f accepted.
  | Species O :    hydro orbital   5 g accepted.

  Basis size parameters after reduction:
  | Total number of radial functions:       11
  | Total number of basis functions :       78

  Per-task memory consumption for arrays in subroutine allocate_ext:
  |           2.750028MB.
  Testing on-site integration grid accuracy.
  |  Species  Function  <phi|h_atom|phi> (log., in eV)  <phi|h_atom|phi> (rad., in eV)
           1        1               -514.2564144315               -514.2564099626
           1        2                 15.1726678541                 15.1726530877
           1        3                -21.5447785304                -21.5447874973
           1        4                 14.4944558459                 14.4944698284
           1        5                 20.8882174564                 20.8882178906
           1        6                 -2.4850315909                 -2.4850322289
           1        7                 13.8600193195                 13.8599826966
           1        8                 45.8243383616                 45.8243383675
           1        9                 52.1840606465                 52.1840622440
           1       10                 85.4074185510                 85.4074185819
           1       11                142.0983717302                142.0983717339

  Preparing densities etc. for the partition functions (integrals / Hartree potential).

  Preparations completed.
  max(cpu_time)          :      0.119 s.
  Wall clock time (cpu1) :      0.119 s.
------------------------------------------------------------

------------------------------------------------------------
          Begin self-consistency loop: Initialization.

          Date     :  20190508, Time     :  153130.193
------------------------------------------------------------

  Initializing index lists of integration centers etc. from given atomic structure:
  | Number of centers in hartree potential         :         2
  | Number of centers in hartree multipole         :         2
  | Number of centers in electron density summation:         2
  | Number of centers in basis integrals           :         2
  | Number of centers in integrals                 :         2
  | Number of centers in hamiltonian               :         2
  Partitioning the integration grid into batches with maxmin method.
  | Maximal weight for a single point:     1.000
  | Minimal weight for a single point:     0.000
  | Number of batches:      492
  | Maximal batch size:     161
  | Minimal batch size:      76
  | Average batch size:      81.862
  | Standard deviation of batch sizes:      15.691
  Initializing partition tables, free-atom densities, potentials, etc. across the integration grid (initialize_grid_storage).
  | initialize_grid_storage: Actual outermost partition radius vs. multipole_radius_free
  | (-- VB: in principle, multipole_radius_free should be larger, hence this output)
  | Species        1: Confinement radius =              6.000000000000000 AA, multipole_radius_free =              6.064445521808699 AA.
  | Species        1: outer_partition_radius set to              6.064445521808699 AA .
  | Original list of interatomic distances with           2 x          2 entries is created.
  | Net number of integration points:    40276
  | of which are non-zero points    :    37826
  Renormalizing the initial density to the exact electron count on the 3D integration grid.
  | Initial density: Formal number of electrons (from input files) :      16.0000000000
  | Integrated number of electrons on 3D grid     :      15.9999996347
  | Charge integration error                      :      -0.0000003653
  | Normalization factor for density and gradient :       1.0000000228
  Obtaining max. number of non-zero basis functions in each batch (get_n_compute_maxes).
  | Maximal number of non-zero basis functions:       78 in task     0
  Selecting the method for density update.
  Loop over occupied states selected for charge density update.
  Allocating        0.017 MB for KS_eigenvector
  Integrating Hamiltonian matrix: batch-based integration.
  Time summed over all CPUs for integration: real work        0.244 s, elapsed        0.244 s
  Integrating overlap matrix.
  Time summed over all CPUs for integration: real work        0.065 s, elapsed        0.065 s

  Updating Kohn-Sham eigenvalues, eigenvectors, occupation numbers, and Fermi level.
  Solving generalized eigenproblem
  Updating Kohn-Sham eigenvalues and eigenfunctions.
  Transforming overlap matrix and checking for singularities.
  Overlap matrix is nonsingular:
  | Lowest eigenvalue:  0.166944E-03
  Solving real generalised eigenvalue problem by standard LAPACK (fast)
  Updating Kohn-Sham eigenvalues and eigenfunctions.
  Solving real generalised eigenvalue problem by standard LAPACK (fast)

  Obtaining occupation numbers and chemical potential using ELSI.
  | Chemical potential (Fermi level):    -6.44813859eV
  Writing Kohn-Sham eigenvalues.

  Spin-up eigenvalues:

  State    Occupation    Eigenvalue [Ha]    Eigenvalue [eV]
      1       1.00000         -18.981438         -516.51121
      2       1.00000         -18.981158         -516.50359
      3       1.00000          -1.367907          -37.22266
      4       1.00000          -0.801580          -21.81211
      5       1.00000          -0.606842          -16.51300
      6       1.00000          -0.595163          -16.19520
      7       1.00000          -0.595163          -16.19520
      8       1.00000          -0.272527           -7.41583
      9       1.00000          -0.272527           -7.41583
     10       0.00000           0.079536            2.16429
     11       0.00000           0.087714            2.38681
     12       0.00000           0.117212            3.18951
     13       0.00000           0.117212            3.18951
     14       0.00000           0.193666            5.26991

  Spin-down eigenvalues:

  State    Occupation    Eigenvalue [Ha]    Eigenvalue [eV]
      1       1.00000         -18.935635         -515.26484
      2       1.00000         -18.935359         -515.25733
      3       1.00000          -1.230854          -33.49325
      4       1.00000          -0.679399          -18.48740
      5       1.00000          -0.482958          -13.14196
      6       1.00000          -0.475709          -12.94469
      7       1.00000          -0.475709          -12.94469
      8       0.00000          -0.151601           -4.12528
      9       0.00000          -0.151601           -4.12528
     10       0.00000           0.102872            2.79929
     11       0.00000           0.111128            3.02395
     12       0.00000           0.138622            3.77208
     13       0.00000           0.138622            3.77208
     14       0.00000           0.212903            5.79338

  Current spin moment of the entire structure :
  | N = N_up - N_down :    2.00
  | S                 :    1.00
  | J                 :    3.00

  Highest occupied state (VBM) at     -7.41582986 eV
  | Occupation number:      1.00000000
  | Spin channel:        1

  Lowest unoccupied state (CBM) at    -4.12527761 eV
  | Occupation number:      0.00000000
  | Spin channel:        2

  Overall HOMO-LUMO gap:      3.29055225 eV.
  Calculating total energy contributions from superposition of free atom densities.

  Total energy components:
  | Sum of eigenvalues            :         -83.68992659 Ha       -2277.31877132 eV
  | XC energy correction          :         -16.98160487 Ha        -462.09297958 eV
  | XC potential correction       :          21.84910143 Ha         594.54430008 eV
  | Free-atom electrostatic energy:         -71.38136793 Ha       -1942.38584886 eV
  | Hartree energy correction     :          -0.00000000 Ha          -0.00000000 eV
  | Entropy correction            :          -0.00000000 Ha          -0.00000000 eV
  | ---------------------------
  | Total energy                  :        -150.20379796 Ha       -4087.25329967 eV
  | Total energy, T -> 0          :        -150.20379796 Ha       -4087.25329967 eV  <-- do not rely on this value for anything but (periodic) metals
  | Electronic free energy        :        -150.20379796 Ha       -4087.25329967 eV

  Derived energy quantities:
  | Kinetic energy                :         150.12719691 Ha        4085.16887897 eV
  | Electrostatic energy          :        -283.34939000 Ha       -7710.32919906 eV
  | Energy correction for multipole
  | error in Hartree potential    :           0.00000000 Ha           0.00000000 eV
  | Sum of eigenvalues per atom                           :       -1138.65938566 eV
  | Total energy (T->0) per atom                          :       -2043.62664984 eV  <-- do not rely on this value for anything but (periodic) metals
  | Electronic free energy per atom                       :       -2043.62664984 eV
  
  --------------------------------------------
  Constructing auxiliary basis (full product) ...
  
  Product basis:
  | charge radius: extent of product basis function
  | field radius: extent of its Coulomb potential
  | Species   l  charge radius    field radius  multipol momen
  |    O      0     2.043000 A      2.043000 A       -1.781828E-16 a.u.
  |    O      7     3.498446 A      3.498446 A        2.650251E-14 a.u.
  |    O      6     3.585037 A      3.585037 A        8.000056E-15 a.u.
  |    O      6     3.718959 A      3.718959 A       -1.323618E-14 a.u.
  |    O      6     3.764702 A      3.764702 A       -1.434618E-15 a.u.
  |    O      4     3.811008 A      3.811008 A       -2.327337E-15 a.u.
  |    O      5     3.811008 A      3.811008 A        1.632748E-15 a.u.
  |    O      3     3.857883 A      3.857883 A       -5.588368E-17 a.u.
  |    O      5     3.857883 A      3.857883 A        1.839540E-15 a.u.
  |    O      5     3.905335 A      3.905335 A       -1.095650E-15 a.u.
  |    O      3     3.953371 A      3.953371 A       -3.378066E-16 a.u.
  |    O      3     3.953371 A      3.953371 A       -5.987319E-17 a.u.
  |    O      1     4.151495 A      4.151495 A        1.008067E-16 a.u.
  |    O      0     4.202559 A      4.202559 A       -6.282114E-17 a.u.
  |    O      0     4.202559 A      4.202559 A        2.675306E-18 a.u.
  |    O      4     4.359549 A      4.359549 A        2.387993E-15 a.u.
  |    O      3     4.413171 A      4.413171 A        7.001099E-16 a.u.
  |    O      4     4.413171 A      4.413171 A        6.266831E-15 a.u.
  |    O      0     4.467453 A      4.467453 A       -4.789785E-17 a.u.
  |    O      1     4.467453 A      4.467453 A        5.586211E-17 a.u.
  |    O      4     4.467453 A      4.467453 A        1.922420E-14 a.u.
  |    O      4     4.467453 A      4.467453 A       -2.376727E-14 a.u.
  |    O      1     4.578029 A      4.578029 A        3.716823E-17 a.u.
  |    O      2     4.578029 A      4.578029 A       -4.788482E-17 a.u.
  |    O      1     4.634338 A      4.634338 A        7.205207E-17 a.u.
  |    O      1     4.634338 A      4.634338 A        2.870493E-16 a.u.
  |    O      1     4.634338 A      4.634338 A        1.929464E-16 a.u.
  |    O      3     4.634338 A      4.634338 A        1.544388E-14 a.u.
  |    O      3     4.749044 A      4.749044 A        1.975407E-15 a.u.
  |    O      3     4.749044 A      4.749044 A       -1.158876E-15 a.u.
  |    O      0     4.987044 A      4.987044 A        1.387955E-16 a.u.
  |    O      0     4.987044 A      4.987044 A       -2.008649E-16 a.u.
  |    O      2     5.236971 A      5.236971 A       -6.502966E-17 a.u.
  |    O      2     5.236971 A      5.236971 A       -5.496496E-16 a.u.
  |    O      0     5.366593 A      5.432602 A       -1.134530E-17 a.u.
  |    O      1     5.432602 A      5.432602 A       -5.847501E-16 a.u.
  |    O      1     5.432602 A      5.432602 A       -8.194471E-16 a.u.
  |    O      2     5.432602 A      5.432602 A       -2.910367E-15 a.u.
  |    O      2     5.432602 A      5.432602 A        1.592924E-15 a.u.
  |    O      2     5.432602 A      5.432602 A        2.918999E-16 a.u.
  |    O      0     5.432602 A      5.499423 A        4.657869E-16 a.u.
  |    O      1     5.432602 A      5.499423 A        4.774404E-17 a.u.
  |    O      2     5.432602 A      5.499423 A        4.549613E-15 a.u.
  |    O      2     5.432602 A      5.499423 A       -3.146860E-16 a.u.
  |    O      8     3.372465 A  2.352329E+01 A           53.933996 a.u.
  |    O      7     3.541477 A  4.005749E+01 A           85.792738 a.u.
  |    O      6     3.811008 A  8.478793E+01 A          215.734909 a.u.
  |    O      5     3.905335 A  1.625761E+02 A           66.915101 a.u.
  |    O      4     4.522403 A  5.114585E+02 A           67.117585 a.u.
  |    O      3     4.807458 A  2.586410E+03 A           45.412481 a.u.
  |    O      2     5.499423 A  2.884717E+04 A           12.891294 a.u.
  |    O      1     5.432602 A  2.966726E+06 A            2.501167 a.u.
  |    O      0     5.432602 A  4.309228E+12 A            0.648020 a.u.

  | Shrink_full_auxil_basis : there are       53  radial auxiliary wave functions
                            accepted and      97 rejected.
  | Shrink_full_auxil_basis : there are totally                 674 partial auxiliary wave functions.
  prodbas_tasks_distribution_pbc not up to date - distributing tasks.

  | Number of product basis functions per thread :   674
  Parallel distribution of product basis not up to date - distributing tasks.

  | Number of product basis functions per thread :   674
  | Minimal requirement for computer memory :           0.019 Gbs
  -----------------------------------------
  --- Initializing Fock matrix calculations
  -----------------------------------------
  screening_threshold (crit_val) =  0.000000100000
  coul_mat_threshold =  0.000000000100
  Number of super-cells in X Y Z:       0       0       0
  Number of atoms pairs total:            4
  Atom pair distribution:
  Cell:        0       0       0 atom pairs:        4
  Number of atoms pairs in BvK cells:            4
  Initializing work distribution for fock matrix calculation
  -----------------------------------------------------
  Dividing atoms among tasks for exact exchange energy:
  Atom:     1 Weight:   337.00
  Atom:     2 Weight:   337.00

  Average weight per task:   674.00

  Number of "big" (above average) atoms  :     0
  Number of "small" (below average) atoms:     2

  All atoms have below average work per task
  No atom will be divided among tasks, atoms will be sorted to get best load distribution

  Atom division among tasks:
  Atom     1: (initial) task:     0, # of tasks:     1
  Atom     2: (initial) task:     0, # of tasks:     1

  -----------------------------------------------------
  Task     0 : Coulomb matrix distribution changed.
  Overall Coulomb matrix distribution changed.
  Coulomb matrix subdivision:
  Task     0 works on full atoms (no Coulomb matrix division)
  Task      0: my_n_atoms:      2 my_atom_list:      1     2
  Task      0: my_n_atom_pairs:      4
  Memory needs for ovlp3fn and Coulomb matrix:
  For Coulomb matrix, this is the upper limit if no compression occurs
  ovlp3fn:       16.402 MB, Coulomb:        3.634 MB
  --- Initializing LVL triples
  | Storage requirements for basis-basbas products (processor-local):
  |   Species O: n_prodsfn:  1094; storage:       34.19 MiB.

  --- Initializing Coulomb matrix calculations
  Preparing TB like auxiliary 2-center Coulomb matrix
  SBT integration errors (all should be 'small'):
  large logFT aliasing -> increase N/lnrange
  large SBT aliasing -> decrease lnk0 & increase lnk0+lnrange
  large SBT ringing -> decrease lnr0 & increase lnr0+lnrange
  |            El't  L: logFT-al.   small-k   large-k   small-r   large-r
  | Need to store  3595 splines of   214 points taking       6072 KiB.
  | Spline reduction from  4096 to   214 points by (cutting and)     1 x coarsening gives error:  0.00E+00
  Finished with initialize_tb_auxmat/lvl_triples, time:        0.849
  --- Calculating OVLP3FN
  Allocating        8.201 MB for coeff_3fn
  --- Done calculating OVLP3FN, time:        4.950
  Atomic logSBT for LVL-triples                :  max(cpu_time)    wall_clock(cpu1)
  | Multiplication with kernel                 :        0.004 s           0.005 s
  | Main matrix multiplication                 :        0.496 s           0.495 s
  | Analytic angular integration               :        0.005 s           0.004 s
  | Kernel construction                        :        0.002 s           0.004 s
  | Overall 2-center overlap time              :        0.533 s           0.536 s
  | 3-center preparation multiplications       :        0.097 s           0.096 s
  | 3-center preparation SBTs                  :        1.445 s           1.448 s
  | 3-center combinations                      :        0.642 s           0.642 s
  | Overal 3-center time                       :        2.195 s           2.196 s
  | LVL initialization                         :        0.081 s           0.080 s
  | Whole LVL-triples                          :        0.081 s           0.080 s

  --- Done getting norm of OVLP3FN, time:        0.002
  --- Calculating Coulomb matrices
  Allocating        0.909 MB for aux_mat
  Time to calculate Coulomb Matrices   :        0.004
  Number of Coulomb matrix elements:
  | Task     0 total:         454276, > threshold:          26400, stored:         454276
  --- Done init_fock_matrix_calculations
  Atomic logSBT for 2-center Coulomb matrix    :  max(cpu_time)    wall_clock(cpu1)
  | TB initialization                          :        0.768 s           0.768 s
  | TB usage                                   :        0.009 s           0.011 s

  Calculating non-local Hartree-Fock exchange by two-center RI (RI-LVL).
  screening_threshold (crit_val) =  0.000000100000
  Allocating        0.097 MB for dm_cols
  Allocating        0.421 MB for ovlp3fn_rcv
  Allocating        0.097 MB for fock_matrix
  Allocating        0.001 MB for fock_matrix_row
  Exact exchange progress report - outermost basis function loop i_basis_r1: 1 ..  78
  |        1         2         3         4         5         6         7         8         9        10
  |       11        12        13        14        15        16        17        18        19        20
  |       21        22        23        24        25        26        27        28        29        30
  |       31        32        33        34        35        36        37        38        39        40
  |       41        42        43        44        45        46        47        48        49        50
  |       51        52        53        54        55        56        57        58        59        60
  |       61        62        63        64        65        66        67        68        69        70
  |       71        72        73        74        75        76        77        78  
  Full exact exchange energy:     450.028901653207 eV.
  Times            DM_x_o3fn   CM_x_o3fn    Products        Sync   Imbalance    Pre/Post       Other  Total calc
  | Times    0:        0.145       2.776       0.869       0.002       0.001       0.001       0.044       3.838
  | Times  sum:        0.145       2.776       0.869       0.002       0.001       0.001       0.044       3.838

  Decomposition of Other based on code block (only on MPI task 0):
  Times             Block #1    Block #2    Block #3    Block #4    Block #5    Block #6    Block #7    Block #8
  | Times    0:        0.000       0.000       0.001       0.000       0.002       0.001       0.008       0.000

  Times             Block #9   Block #10   Block #11   Block #12   Block #13   Block #14   Block #15   Block #16
  | Times    0:        0.004       0.003       0.003       0.006       0.005       0.001       0.000       0.000

  Times            Block Sum    Expected
  | Times    0:        0.034       0.044
  Initialize hartree_potential_storage
  Max. number of atoms included in rho_multipole:            2

  End scf initialization - timings             :  max(cpu_time)    wall_clock(cpu1)
  | Time for scf. initialization               :       10.082 s          10.084 s
  | Boundary condition initialization          :        0.000 s           0.000 s
  | Integration                                :        0.309 s           0.309 s
  | Solution of K.-S. eqns.                    :        0.005 s           0.005 s
  | Grid partitioning                          :        0.032 s           0.032 s
  | Preloading free-atom quantities on grid    :        0.003 s           0.003 s
  | Free-atom superposition energy             :        0.041 s           0.040 s
  | Total energy evaluation                    :        0.000 s           0.000 s
  | Product basis setup: Total time            :        9.671 s           9.673 s

  Partial memory accounting:
  | Current value for overall tracked memory usage on task 0  :          20.237 MB
  | Peak value for overall tracked memory usage on task 0     :          24.793 MB after allocating d_coeff_3fn
  | Largest tracked array allocation on task 0 so far         :           8.201 MB  when allocating ovlp3fn for atom
  Note:  These values currently only include a subset of arrays which are explicitly tracked.
  The "true" memory usage will be greater.
------------------------------------------------------------

------------------------------------------------------------
          Begin self-consistency iteration #    1

  Date     :  20190508, Time     :  153140.277
------------------------------------------------------------
  Evaluating new KS density.
  Integration grid: deviation in total charge (<rho> - N_e) =  -8.881784E-14
  | <rho_up-rho_dn> = N_up-N_dn =      2.0000; <|rho_up-rho_dn|> =      2.0277
  Pulay mixing of updated and previous charge densities.

  Evaluating partitioned Hartree potential by multipole expansion.
  | Analytical far-field extrapolation by fixed multipoles:
  | Hartree multipole sum: apparent total charge =  -0.398793E-06
  Summing up the Hartree potential.
  Time summed over all CPUs for potential: real work        0.028 s, elapsed        0.028 s
  | RMS charge density error from multipole expansion :   0.177176E-03

  Integrating Hamiltonian matrix: batch-based integration.
  Time summed over all CPUs for integration: real work        0.238 s, elapsed        0.238 s
  Calculating non-local Hartree-Fock exchange by two-center RI (RI-LVL).
  screening_threshold (crit_val) =  0.000000100000
  Allocating        0.097 MB for dm_cols
  Allocating        0.421 MB for ovlp3fn_rcv
  Allocating        0.097 MB for fock_matrix
  Allocating        0.001 MB for fock_matrix_row
  Exact exchange progress report - outermost basis function loop i_basis_r1: 1 ..  78
  |        1         2         3         4         5         6         7         8         9        10
  |       11        12        13        14        15        16        17        18        19        20
  |       21        22        23        24        25        26        27        28        29        30
  |       31        32        33        34        35        36        37        38        39        40
  |       41        42        43        44        45        46        47        48        49        50
  |       51        52        53        54        55        56        57        58        59        60
  |       61        62        63        64        65        66        67        68        69        70
  |       71        72        73        74        75        76        77        78  
  Full exact exchange energy:     450.028901653207 eV.
  Times            DM_x_o3fn   CM_x_o3fn    Products        Sync   Imbalance    Pre/Post       Other  Total calc
  | Times    0:        0.156       2.776       0.855       0.003       0.001       0.000       0.050       3.841
  | Times  sum:        0.156       2.776       0.855       0.003       0.001       0.000       0.050       3.841

  Decomposition of Other based on code block (only on MPI task 0):
  Times             Block #1    Block #2    Block #3    Block #4    Block #5    Block #6    Block #7    Block #8
  | Times    0:        0.000       0.000       0.001       0.001       0.000       0.000       0.010       0.001

  Times             Block #9   Block #10   Block #11   Block #12   Block #13   Block #14   Block #15   Block #16
  | Times    0:        0.004       0.005       0.005       0.005       0.008       0.003       0.000       0.000

  Times            Block Sum    Expected
  | Times    0:        0.043       0.050

  Updating Kohn-Sham eigenvalues, eigenvectors, occupation numbers, and Fermi level.
  Solving generalized eigenproblem
  Updating Kohn-Sham eigenvalues and eigenfunctions.
  Solving real generalised eigenvalue problem by standard LAPACK (fast)
  Updating Kohn-Sham eigenvalues and eigenfunctions.
  Solving real generalised eigenvalue problem by standard LAPACK (fast)

  Obtaining occupation numbers and chemical potential using ELSI.
  | Chemical potential (Fermi level):    -6.02819164eV
  Writing Kohn-Sham eigenvalues.

  Spin-up eigenvalues:

  State    Occupation    Eigenvalue [Ha]    Eigenvalue [eV]
      1       1.00000         -19.413461         -528.26715
      2       1.00000         -19.412949         -528.25321
      3       1.00000          -1.479657          -40.26351
      4       1.00000          -0.905373          -24.63645
      5       1.00000          -0.673546          -18.32813
      6       1.00000          -0.673546          -18.32813
      7       1.00000          -0.670873          -18.25539
      8       1.00000          -0.338020           -9.19799
      9       1.00000          -0.338020           -9.19799
     10       0.00000           0.111143            3.02435
     11       0.00000           0.119533            3.25267
     12       0.00000           0.147866            4.02364
     13       0.00000           0.147866            4.02364
     14       0.00000           0.226060            6.15141

  Spin-down eigenvalues:

  State    Occupation    Eigenvalue [Ha]    Eigenvalue [eV]
      1       1.00000         -19.367888         -527.02706
      2       1.00000         -19.367175         -527.00765
      3       1.00000          -1.358750          -36.97348
      4       1.00000          -0.771634          -20.99722
      5       1.00000          -0.562747          -15.31312
      6       1.00000          -0.529853          -14.41804
      7       1.00000          -0.529853          -14.41804
      8       0.00000          -0.091147           -2.48022
      9       0.00000          -0.091147           -2.48022
     10       0.00000           0.129206            3.51586
     11       0.00000           0.137601            3.74431
     12       0.00000           0.166665            4.53517
     13       0.00000           0.166665            4.53517
     14       0.00000           0.239074            6.50554

  Current spin moment of the entire structure :
  | N = N_up - N_down :    2.00
  | S                 :    1.00
  | J                 :    3.00

  Highest occupied state (VBM) at     -9.19799128 eV
  | Occupation number:      1.00000000
  | Spin channel:        1

  Lowest unoccupied state (CBM) at    -2.48022285 eV
  | Occupation number:      0.00000000
  | Spin channel:        2

  Overall HOMO-LUMO gap:      6.71776843 eV.

  Total energy components:
  | Sum of eigenvalues            :         -86.39334538 Ha       -2350.88253949 eV
  | XC energy correction          :          -8.73698416 Ha        -237.74543542 eV
  | XC potential correction       :          16.56784376 Ha         450.83396684 eV
  | Free-atom electrostatic energy:         -71.38136793 Ha       -1942.38584886 eV
  | Hartree energy correction     :          -0.26535477 Ha          -7.22067056 eV
  | Entropy correction            :          -0.00000000 Ha          -0.00000000 eV
  | ---------------------------
  | Total energy                  :        -150.20920848 Ha       -4087.40052748 eV
  | Total energy, T -> 0          :        -150.20920848 Ha       -4087.40052748 eV  <-- do not rely on this value for anything but (periodic) metals
  | Electronic free energy        :        -150.20920848 Ha       -4087.40052748 eV

  Derived energy quantities:
  | Kinetic energy                :         175.08608504 Ha        4764.33478072 eV
  | Electrostatic energy          :        -283.49452380 Ha       -7714.27849073 eV
  | Energy correction for multipole
  | error in Hartree potential    :          -0.00015110 Ha          -0.00411169 eV
  | Sum of eigenvalues per atom                           :       -1175.44126974 eV
  | Total energy (T->0) per atom                          :       -2043.70026374 eV  <-- do not rely on this value for anything but (periodic) metals
  | Electronic free energy per atom                       :       -2043.70026374 eV

  Self-consistency convergence accuracy:
  | Change of charge/spin density :  0.1832E+00  0.4209E+00
  | Change of sum of eigenvalues  : -0.7356E+02 eV
  | Change of total energy        : -0.1472E+00 eV

  End self-consistency iteration #     1       :  max(cpu_time)    wall_clock(cpu1)
  | Time for this iteration                    :        4.276 s           4.276 s
  | Charge density update                      :        0.161 s           0.160 s
  | Density mixing                             :        0.002 s           0.002 s
  | Hartree multipole update                   :        0.002 s           0.003 s
  | Hartree multipole summation                :        0.028 s           0.028 s
  | Integration                                :        0.238 s           0.238 s
  | Fock matrix evaluation                     :        3.841 s           3.842 s
  | Solution of K.-S. eqns.                    :        0.003 s           0.003 s
  | Total energy evaluation                    :        0.000 s           0.000 s

  Partial memory accounting:
  | Current value for overall tracked memory usage on task 0  :          20.237 MB
  | Peak value for overall tracked memory usage on task 0     :          24.793 MB after allocating d_coeff_3fn
  | Largest tracked array allocation on task 0 so far         :           8.201 MB  when allocating ovlp3fn for atom
  Note:  These values currently only include a subset of arrays which are explicitly tracked.
  The "true" memory usage will be greater.
------------------------------------------------------------

------------------------------------------------------------
          Begin self-consistency iteration #    2

  Date     :  20190508, Time     :  153144.553
------------------------------------------------------------
  Evaluating new KS density.
  Integration grid: deviation in total charge (<rho> - N_e) =  -4.618528E-14
  | <rho_up-rho_dn> = N_up-N_dn =      2.0000; <|rho_up-rho_dn|> =      2.0461
  Pulay mixing of updated and previous charge densities.

  Evaluating partitioned Hartree potential by multipole expansion.
  | Analytical far-field extrapolation by fixed multipoles:
  | Hartree multipole sum: apparent total charge =  -0.517836E-06
  Summing up the Hartree potential.
  Time summed over all CPUs for potential: real work        0.030 s, elapsed        0.030 s
  | RMS charge density error from multipole expansion :   0.123232E-02

  Integrating Hamiltonian matrix: batch-based integration.
  Time summed over all CPUs for integration: real work        0.265 s, elapsed        0.265 s
  Calculating non-local Hartree-Fock exchange by two-center RI (RI-LVL).
  screening_threshold (crit_val) =  0.000000100000
  Allocating        0.097 MB for dm_cols
  Allocating        0.421 MB for ovlp3fn_rcv
  Allocating        0.097 MB for fock_matrix
  Allocating        0.001 MB for fock_matrix_row
  Exact exchange progress report - outermost basis function loop i_basis_r1: 1 ..  78
  |        1         2         3         4         5         6         7         8         9        10
  |       11        12        13        14        15        16        17        18        19        20
  |       21        22        23        24        25        26        27        28        29        30
  |       31        32        33        34        35        36        37        38        39        40
  |       41        42        43        44        45        46        47        48        49        50
  |       51        52        53        54        55        56        57        58        59        60
  |       61        62        63        64        65        66        67        68        69        70
  |       71        72        73        74        75        76        77        78  
  Full exact exchange energy:     449.700655456887 eV.
  Times            DM_x_o3fn   CM_x_o3fn    Products        Sync   Imbalance    Pre/Post       Other  Total calc
  | Times    0:        0.148       2.744       0.853       0.000       0.003       0.000       0.045       3.793
  | Times  sum:        0.148       2.744       0.853       0.000       0.003       0.000       0.045       3.793

  Decomposition of Other based on code block (only on MPI task 0):
  Times             Block #1    Block #2    Block #3    Block #4    Block #5    Block #6    Block #7    Block #8
  | Times    0:        0.000       0.000       0.002       0.001       0.001       0.000       0.009       0.001

  Times             Block #9   Block #10   Block #11   Block #12   Block #13   Block #14   Block #15   Block #16
  | Times    0:        0.001       0.001       0.005       0.005       0.002       0.003       0.001       0.000

  Times            Block Sum    Expected
  | Times    0:        0.032       0.045

  Updating Kohn-Sham eigenvalues, eigenvectors, occupation numbers, and Fermi level.
  Solving generalized eigenproblem
  Updating Kohn-Sham eigenvalues and eigenfunctions.
  Solving real generalised eigenvalue problem by standard LAPACK (fast)
  Updating Kohn-Sham eigenvalues and eigenfunctions.
  Solving real generalised eigenvalue problem by standard LAPACK (fast)

  Obtaining occupation numbers and chemical potential using ELSI.
  | Chemical potential (Fermi level):    -5.94287984eV
  Current spin moment of the entire structure :
  | N = N_up - N_down :    2.00
  | S                 :    1.00
  | J                 :    3.00

  Highest occupied state (VBM) at     -8.26875909 eV
  | Occupation number:      1.00000000
  | Spin channel:        1

  Lowest unoccupied state (CBM) at    -1.86227204 eV
  | Occupation number:      0.00000000
  | Spin channel:        2

  Overall HOMO-LUMO gap:      6.40648705 eV.

  Checking to see if s.c.f. parameters should be adjusted.
  The system likely has a gap. Increased the default Pulay mixing parameter (charge_mix_param). Value:   0.200000 .
  Kept the default occupation width. Value:   0.010000 eV.

  Total energy components:
  | Sum of eigenvalues            :         -85.84349003 Ha       -2335.92021412 eV
  | XC energy correction          :          -8.77543148 Ha        -238.79164025 eV
  | XC potential correction       :          16.60283046 Ha         451.78600332 eV
  | Free-atom electrostatic energy:         -71.38136793 Ha       -1942.38584886 eV
  | Hartree energy correction     :          -0.82885430 Ha         -22.55427304 eV
  | Entropy correction            :          -0.00000000 Ha          -0.00000000 eV
  | ---------------------------
  | Total energy                  :        -150.22631329 Ha       -4087.86597295 eV
  | Total energy, T -> 0          :        -150.22631329 Ha       -4087.86597295 eV  <-- do not rely on this value for anything but (periodic) metals
  | Electronic free energy        :        -150.22631329 Ha       -4087.86597295 eV

  Derived energy quantities:
  | Kinetic energy                :         175.35795834 Ha        4771.73282941 eV
  | Electrostatic energy          :        -283.81753428 Ha       -7723.06805310 eV
  | Energy correction for multipole
  | error in Hartree potential    :          -0.00083377 Ha          -0.02268805 eV
  | Sum of eigenvalues per atom                           :       -1167.96010706 eV
  | Total energy (T->0) per atom                          :       -2043.93298648 eV  <-- do not rely on this value for anything but (periodic) metals
  | Electronic free energy per atom                       :       -2043.93298648 eV

  Self-consistency convergence accuracy:
  | Change of charge/spin density :  0.1665E+00  0.4042E+00
  | Change of sum of eigenvalues  :  0.1496E+02 eV
  | Change of total energy        : -0.4654E+00 eV

  End self-consistency iteration #     2       :  max(cpu_time)    wall_clock(cpu1)
  | Time for this iteration                    :        4.266 s           4.267 s
  | Charge density update                      :        0.169 s           0.169 s
  | Density mixing                             :        0.003 s           0.003 s
  | Hartree multipole update                   :        0.003 s           0.003 s
  | Hartree multipole summation                :        0.031 s           0.031 s
  | Integration                                :        0.266 s           0.265 s
  | Fock matrix evaluation                     :        3.792 s           3.793 s
  | Solution of K.-S. eqns.                    :        0.003 s           0.002 s
  | Total energy evaluation                    :        0.000 s           0.000 s

  Partial memory accounting:
  | Current value for overall tracked memory usage on task 0  :          20.238 MB
  | Peak value for overall tracked memory usage on task 0     :          24.793 MB after allocating d_coeff_3fn
  | Largest tracked array allocation on task 0 so far         :           8.201 MB  when allocating ovlp3fn for atom
  Note:  These values currently only include a subset of arrays which are explicitly tracked.
  The "true" memory usage will be greater.
------------------------------------------------------------

------------------------------------------------------------
          Begin self-consistency iteration #    3

  Date     :  20190508, Time     :  153148.820
------------------------------------------------------------
  Evaluating new KS density.
  Integration grid: deviation in total charge (<rho> - N_e) =   8.171241E-14
  | <rho_up-rho_dn> = N_up-N_dn =      2.0000; <|rho_up-rho_dn|> =      2.0515
  Pulay mixing of updated and previous charge densities.

  Evaluating partitioned Hartree potential by multipole expansion.
  | Analytical far-field extrapolation by fixed multipoles:
  | Hartree multipole sum: apparent total charge =  -0.607563E-06
  Summing up the Hartree potential.
  Time summed over all CPUs for potential: real work        0.028 s, elapsed        0.029 s
  | RMS charge density error from multipole expansion :   0.242909E-02

  Integrating Hamiltonian matrix: batch-based integration.
  Time summed over all CPUs for integration: real work        0.239 s, elapsed        0.239 s
  Calculating non-local Hartree-Fock exchange by two-center RI (RI-LVL).
  screening_threshold (crit_val) =  0.000000100000
  Allocating        0.097 MB for dm_cols
  Allocating        0.421 MB for ovlp3fn_rcv
  Allocating        0.097 MB for fock_matrix
  Allocating        0.001 MB for fock_matrix_row
  Exact exchange progress report - outermost basis function loop i_basis_r1: 1 ..  78
  |        1         2         3         4         5         6         7         8         9        10
  |       11        12        13        14        15        16        17        18        19        20
  |       21        22        23        24        25        26        27        28        29        30
  |       31        32        33        34        35        36        37        38        39        40
  |       41        42        43        44        45        46        47        48        49        50
  |       51        52        53        54        55        56        57        58        59        60
  |       61        62        63        64        65        66        67        68        69        70
  |       71        72        73        74        75        76        77        78  
  Full exact exchange energy:     447.921356585372 eV.
  Times            DM_x_o3fn   CM_x_o3fn    Products        Sync   Imbalance    Pre/Post       Other  Total calc
  | Times    0:        0.133       2.590       0.823       0.002       0.000       0.000       0.038       3.586
  | Times  sum:        0.133       2.590       0.823       0.002       0.000       0.000       0.038       3.586

  Decomposition of Other based on code block (only on MPI task 0):
  Times             Block #1    Block #2    Block #3    Block #4    Block #5    Block #6    Block #7    Block #8
  | Times    0:        0.000       0.000       0.000       0.000       0.000       0.001       0.007       0.000

  Times             Block #9   Block #10   Block #11   Block #12   Block #13   Block #14   Block #15   Block #16
  | Times    0:        0.001       0.002       0.002       0.005       0.007       0.000       0.003       0.000

  Times            Block Sum    Expected
  | Times    0:        0.028       0.038

  Updating Kohn-Sham eigenvalues, eigenvectors, occupation numbers, and Fermi level.
  Solving generalized eigenproblem
  Updating Kohn-Sham eigenvalues and eigenfunctions.
  Solving real generalised eigenvalue problem by standard LAPACK (fast)
  Updating Kohn-Sham eigenvalues and eigenfunctions.
  Solving real generalised eigenvalue problem by standard LAPACK (fast)

  Obtaining occupation numbers and chemical potential using ELSI.
  | Chemical potential (Fermi level):    -1.70699901eV
  Current spin moment of the entire structure :
  | N = N_up - N_down :    2.00
  | S                 :    1.00
  | J                 :    3.00

  Highest occupied state (VBM) at     -7.43448598 eV
  | Occupation number:      1.00000000
  | Spin channel:        1

  Lowest unoccupied state (CBM) at    -1.38335300 eV
  | Occupation number:      0.00000000
  | Spin channel:        2

  Overall HOMO-LUMO gap:      6.05113298 eV.

  Total energy components:
  | Sum of eigenvalues            :         -85.38097621 Ha       -2323.33457277 eV
  | XC energy correction          :          -8.81839644 Ha        -239.96077630 eV
  | XC potential correction       :          16.63978148 Ha         452.79149179 eV
  | Free-atom electrostatic energy:         -71.38136793 Ha       -1942.38584886 eV
  | Hartree energy correction     :          -1.29959801 Ha         -35.36386111 eV
  | Entropy correction            :          -0.00000000 Ha          -0.00000000 eV
  | ---------------------------
  | Total energy                  :        -150.24055712 Ha       -4088.25356725 eV
  | Total energy, T -> 0          :        -150.24055712 Ha       -4088.25356725 eV  <-- do not rely on this value for anything but (periodic) metals
  | Electronic free energy        :        -150.24055712 Ha       -4088.25356725 eV

  Derived energy quantities:
  | Kinetic energy                :         175.48914444 Ha        4775.30258500 eV
  | Electrostatic energy          :        -284.01717413 Ha       -7728.50052982 eV
  | Energy correction for multipole
  | error in Hartree potential    :          -0.00164560 Ha          -0.04477906 eV
  | Sum of eigenvalues per atom                           :       -1161.66728638 eV
  | Total energy (T->0) per atom                          :       -2044.12678363 eV  <-- do not rely on this value for anything but (periodic) metals
  | Electronic free energy per atom                       :       -2044.12678363 eV

  Self-consistency convergence accuracy:
  | Change of charge/spin density :  0.6767E-01  0.2322E+00
  | Change of sum of eigenvalues  :  0.1259E+02 eV
  | Change of total energy        : -0.3876E+00 eV

  End self-consistency iteration #     3       :  max(cpu_time)    wall_clock(cpu1)
  | Time for this iteration                    :        4.024 s           4.024 s
  | Charge density update                      :        0.160 s           0.160 s
  | Density mixing                             :        0.005 s           0.004 s
  | Hartree multipole update                   :        0.002 s           0.003 s
  | Hartree multipole summation                :        0.029 s           0.029 s
  | Integration                                :        0.240 s           0.239 s
  | Fock matrix evaluation                     :        3.586 s           3.586 s
  | Solution of K.-S. eqns.                    :        0.003 s           0.003 s
  | Total energy evaluation                    :        0.000 s           0.000 s

  Partial memory accounting:
  | Current value for overall tracked memory usage on task 0  :          20.238 MB
  | Peak value for overall tracked memory usage on task 0     :          24.793 MB after allocating d_coeff_3fn
  | Largest tracked array allocation on task 0 so far         :           8.201 MB  when allocating ovlp3fn for atom
  Note:  These values currently only include a subset of arrays which are explicitly tracked.
  The "true" memory usage will be greater.
------------------------------------------------------------

------------------------------------------------------------
          Begin self-consistency iteration #    4

  Date     :  20190508, Time     :  153152.844
------------------------------------------------------------
  Evaluating new KS density.
  Integration grid: deviation in total charge (<rho> - N_e) =   8.881784E-14
  | <rho_up-rho_dn> = N_up-N_dn =      2.0000; <|rho_up-rho_dn|> =      2.0593
  Pulay mixing of updated and previous charge densities.

  Evaluating partitioned Hartree potential by multipole expansion.
  | Analytical far-field extrapolation by fixed multipoles:
  | Hartree multipole sum: apparent total charge =  -0.623624E-06
  Summing up the Hartree potential.
  Time summed over all CPUs for potential: real work        0.027 s, elapsed        0.027 s
  | RMS charge density error from multipole expansion :   0.253121E-02

  Integrating Hamiltonian matrix: batch-based integration.
  Time summed over all CPUs for integration: real work        0.236 s, elapsed        0.236 s
  Calculating non-local Hartree-Fock exchange by two-center RI (RI-LVL).
  screening_threshold (crit_val) =  0.000000100000
  Allocating        0.097 MB for dm_cols
  Allocating        0.421 MB for ovlp3fn_rcv
  Allocating        0.097 MB for fock_matrix
  Allocating        0.001 MB for fock_matrix_row
  Exact exchange progress report - outermost basis function loop i_basis_r1: 1 ..  78
  |        1         2         3         4         5         6         7         8         9        10
  |       11        12        13        14        15        16        17        18        19        20
  |       21        22        23        24        25        26        27        28        29        30
  |       31        32        33        34        35        36        37        38        39        40
  |       41        42        43        44        45        46        47        48        49        50
  |       51        52        53        54        55        56        57        58        59        60
  |       61        62        63        64        65        66        67        68        69        70
  |       71        72        73        74        75        76        77        78  
  Full exact exchange energy:     446.236460837107 eV.
  Times            DM_x_o3fn   CM_x_o3fn    Products        Sync   Imbalance    Pre/Post       Other  Total calc
  | Times    0:        0.144       2.820       0.863       0.002       0.001       0.000       0.038       3.868
  | Times  sum:        0.144       2.820       0.863       0.002       0.001       0.000       0.038       3.868

  Decomposition of Other based on code block (only on MPI task 0):
  Times             Block #1    Block #2    Block #3    Block #4    Block #5    Block #6    Block #7    Block #8
  | Times    0:        0.000       0.000       0.002       0.000       0.001       0.000       0.005       0.001

  Times             Block #9   Block #10   Block #11   Block #12   Block #13   Block #14   Block #15   Block #16
  | Times    0:        0.003       0.003       0.004       0.007       0.006       0.002       0.000       0.000

  Times            Block Sum    Expected
  | Times    0:        0.034       0.038

  Updating Kohn-Sham eigenvalues, eigenvectors, occupation numbers, and Fermi level.
  Solving generalized eigenproblem
  Updating Kohn-Sham eigenvalues and eigenfunctions.
  Solving real generalised eigenvalue problem by standard LAPACK (fast)
  Updating Kohn-Sham eigenvalues and eigenfunctions.
  Solving real generalised eigenvalue problem by standard LAPACK (fast)

  Obtaining occupation numbers and chemical potential using ELSI.
  | Chemical potential (Fermi level):    -5.97854897eV
  Current spin moment of the entire structure :
  | N = N_up - N_down :    2.00
  | S                 :    1.00
  | J                 :    3.00

  Highest occupied state (VBM) at     -7.92438384 eV
  | Occupation number:      1.00000000
  | Spin channel:        1

  Lowest unoccupied state (CBM) at    -1.92175230 eV
  | Occupation number:      0.00000000
  | Spin channel:        2

  Overall HOMO-LUMO gap:      6.00263154 eV.

  Total energy components:
  | Sum of eigenvalues            :         -85.78950852 Ha       -2334.45130252 eV
  | XC energy correction          :          -8.77550340 Ha        -238.79359712 eV
  | XC potential correction       :          16.57675781 Ha         451.07653043 eV
  | Free-atom electrostatic energy:         -71.38136793 Ha       -1942.38584886 eV
  | Hartree energy correction     :          -0.85519441 Ha         -23.27102393 eV
  | Entropy correction            :          -0.00000000 Ha          -0.00000000 eV
  | ---------------------------
  | Total energy                  :        -150.22481645 Ha       -4087.82524199 eV
  | Total energy, T -> 0          :        -150.22481645 Ha       -4087.82524199 eV  <-- do not rely on this value for anything but (periodic) metals
  | Electronic free energy        :        -150.22481645 Ha       -4087.82524199 eV

  Derived energy quantities:
  | Kinetic energy                :         175.01987559 Ha        4762.53312991 eV
  | Electrostatic energy          :        -283.61571612 Ha       -7717.57630160 eV
  | Energy correction for multipole
  | error in Hartree potential    :          -0.00187488 Ha          -0.05101814 eV
  | Sum of eigenvalues per atom                           :       -1167.22565126 eV
  | Total energy (T->0) per atom                          :       -2043.91262099 eV  <-- do not rely on this value for anything but (periodic) metals
  | Electronic free energy per atom                       :       -2043.91262099 eV

  Self-consistency convergence accuracy:
  | Change of charge/spin density :  0.5932E-01  0.3713E-01
  | Change of sum of eigenvalues  : -0.1112E+02 eV
  | Change of total energy        :  0.4283E+00 eV

  End self-consistency iteration #     4       :  max(cpu_time)    wall_clock(cpu1)
  | Time for this iteration                    :        4.308 s           4.309 s
  | Charge density update                      :        0.167 s           0.167 s
  | Density mixing                             :        0.005 s           0.005 s
  | Hartree multipole update                   :        0.002 s           0.002 s
  | Hartree multipole summation                :        0.027 s           0.027 s
  | Integration                                :        0.236 s           0.236 s
  | Fock matrix evaluation                     :        3.868 s           3.868 s
  | Solution of K.-S. eqns.                    :        0.003 s           0.003 s
  | Total energy evaluation                    :        0.000 s           0.000 s

  Partial memory accounting:
  | Current value for overall tracked memory usage on task 0  :          20.238 MB
  | Peak value for overall tracked memory usage on task 0     :          24.793 MB after allocating d_coeff_3fn
  | Largest tracked array allocation on task 0 so far         :           8.201 MB  when allocating ovlp3fn for atom
  Note:  These values currently only include a subset of arrays which are explicitly tracked.
  The "true" memory usage will be greater.
------------------------------------------------------------

------------------------------------------------------------
          Begin self-consistency iteration #    5

  Date     :  20190508, Time     :  153157.153
------------------------------------------------------------
  Evaluating new KS density.
  Integration grid: deviation in total charge (<rho> - N_e) =   7.105427E-15
  | <rho_up-rho_dn> = N_up-N_dn =      2.0000; <|rho_up-rho_dn|> =      2.0568
  Pulay mixing of updated and previous charge densities.

  Evaluating partitioned Hartree potential by multipole expansion.
  | Analytical far-field extrapolation by fixed multipoles:
  | Hartree multipole sum: apparent total charge =  -0.612537E-06
  Summing up the Hartree potential.
  Time summed over all CPUs for potential: real work        0.027 s, elapsed        0.027 s
  | RMS charge density error from multipole expansion :   0.253158E-02

  Integrating Hamiltonian matrix: batch-based integration.
  Time summed over all CPUs for integration: real work        0.250 s, elapsed        0.250 s
  Calculating non-local Hartree-Fock exchange by two-center RI (RI-LVL).
  screening_threshold (crit_val) =  0.000000100000
  Allocating        0.097 MB for dm_cols
  Allocating        0.421 MB for ovlp3fn_rcv
  Allocating        0.097 MB for fock_matrix
  Allocating        0.001 MB for fock_matrix_row
  Exact exchange progress report - outermost basis function loop i_basis_r1: 1 ..  78
  |        1         2         3         4         5         6         7         8         9        10
  |       11        12        13        14        15        16        17        18        19        20
  |       21        22        23        24        25        26        27        28        29        30
  |       31        32        33        34        35        36        37        38        39        40
  |       41        42        43        44        45        46        47        48        49        50
  |       51        52        53        54        55        56        57        58        59        60
  |       61        62        63        64        65        66        67        68        69        70
  |       71        72        73        74        75        76        77        78  
  Full exact exchange energy:     447.159521268760 eV.
  Times            DM_x_o3fn   CM_x_o3fn    Products        Sync   Imbalance    Pre/Post       Other  Total calc
  | Times    0:        0.145       2.642       0.799       0.000       0.002       0.000       0.035       3.623
  | Times  sum:        0.145       2.642       0.799       0.000       0.002       0.000       0.035       3.623

  Decomposition of Other based on code block (only on MPI task 0):
  Times             Block #1    Block #2    Block #3    Block #4    Block #5    Block #6    Block #7    Block #8
  | Times    0:        0.000       0.000       0.000       0.000       0.001       0.000       0.007       0.000

  Times             Block #9   Block #10   Block #11   Block #12   Block #13   Block #14   Block #15   Block #16
  | Times    0:        0.001       0.003       0.003       0.009       0.005       0.001       0.000       0.000

  Times            Block Sum    Expected
  | Times    0:        0.030       0.035

  Updating Kohn-Sham eigenvalues, eigenvectors, occupation numbers, and Fermi level.
  Solving generalized eigenproblem
  Updating Kohn-Sham eigenvalues and eigenfunctions.
  Solving real generalised eigenvalue problem by standard LAPACK (fast)
  Updating Kohn-Sham eigenvalues and eigenfunctions.
  Solving real generalised eigenvalue problem by standard LAPACK (fast)

  Obtaining occupation numbers and chemical potential using ELSI.
  | Chemical potential (Fermi level):    -5.97303902eV
  Current spin moment of the entire structure :
  | N = N_up - N_down :    2.00
  | S                 :    1.00
  | J                 :    3.00

  Highest occupied state (VBM) at     -7.90776072 eV
  | Occupation number:      1.00000000
  | Spin channel:        1

  Lowest unoccupied state (CBM) at    -1.90165526 eV
  | Occupation number:      0.00000000
  | Spin channel:        2

  Overall HOMO-LUMO gap:      6.00610546 eV.

  Total energy components:
  | Sum of eigenvalues            :         -85.77609094 Ha       -2334.08619159 eV
  | XC energy correction          :          -8.77686793 Ha        -238.83072787 eV
  | XC potential correction       :          16.57881348 Ha         451.13246814 eV
  | Free-atom electrostatic energy:         -71.38136793 Ha       -1942.38584886 eV
  | Hartree energy correction     :          -0.86978631 Ha         -23.66808968 eV
  | Entropy correction            :          -0.00000000 Ha          -0.00000000 eV
  | ---------------------------
  | Total energy                  :        -150.22529963 Ha       -4087.83838985 eV
  | Total energy, T -> 0          :        -150.22529963 Ha       -4087.83838985 eV  <-- do not rely on this value for anything but (periodic) metals
  | Electronic free energy        :        -150.22529963 Ha       -4087.83838985 eV

  Derived energy quantities:
  | Kinetic energy                :         175.03469218 Ha        4762.93630972 eV
  | Electrostatic energy          :        -283.62791287 Ha       -7717.90819212 eV
  | Energy correction for multipole
  | error in Hartree potential    :          -0.00187907 Ha          -0.05113219 eV
  | Sum of eigenvalues per atom                           :       -1167.04309579 eV
  | Total energy (T->0) per atom                          :       -2043.91919493 eV  <-- do not rely on this value for anything but (periodic) metals
  | Electronic free energy per atom                       :       -2043.91919493 eV

  Self-consistency convergence accuracy:
  | Change of charge/spin density :  0.1595E-01  0.1356E-01
  | Change of sum of eigenvalues  :  0.3651E+00 eV
  | Change of total energy        : -0.1315E-01 eV

  End self-consistency iteration #     5       :  max(cpu_time)    wall_clock(cpu1)
  | Time for this iteration                    :        4.079 s           4.080 s
  | Charge density update                      :        0.168 s           0.168 s
  | Density mixing                             :        0.006 s           0.007 s
  | Hartree multipole update                   :        0.002 s           0.002 s
[...]
  | Hartree energy correction     :          -0.85272942 Ha         -23.20394820 eV
  | Entropy correction            :          -0.00000000 Ha          -0.00000000 eV
  | ---------------------------
  | Total energy                  :        -150.22636584 Ha       -4087.86740287 eV
  | Total energy, T -> 0          :        -150.22636584 Ha       -4087.86740287 eV  <-- do not rely on this value for anything but (periodic) metals
  | Electronic free energy        :        -150.22636584 Ha       -4087.86740287 eV

  Derived energy quantities:
  | Kinetic energy                :         175.02037367 Ha        4762.54668329 eV
  | Electrostatic energy          :        -283.59173805 Ha       -7716.92382517 eV
  | Energy correction for multipole
  | error in Hartree potential    :          -0.00200500 Ha          -0.05455888 eV
  | Sum of eigenvalues per atom                           :       -1167.33622137 eV
  | Total energy (T->0) per atom                          :       -2043.93370144 eV  <-- do not rely on this value for anything but (periodic) metals
  | Electronic free energy per atom                       :       -2043.93370144 eV

  Self-consistency convergence accuracy:
  | Change of charge/spin density :  0.1534E-05  0.1901E-05
  | Change of sum of eigenvalues  :  0.2955E-03 eV
  | Change of total energy        : -0.8122E-05 eV

  End self-consistency iteration #    13       :  max(cpu_time)    wall_clock(cpu1)
  | Time for this iteration                    :        3.871 s           3.871 s
  | Charge density update                      :        0.144 s           0.144 s
  | Density mixing                             :        0.009 s           0.009 s
  | Hartree multipole update                   :        0.002 s           0.002 s
  | Hartree multipole summation                :        0.027 s           0.027 s
  | Integration                                :        0.229 s           0.228 s
  | Fock matrix evaluation                     :        3.458 s           3.458 s
  | Solution of K.-S. eqns.                    :        0.003 s           0.003 s
  | Total energy evaluation                    :        0.000 s           0.000 s

  Partial memory accounting:
  | Current value for overall tracked memory usage on task 0  :          20.240 MB
  | Peak value for overall tracked memory usage on task 0     :          24.793 MB after allocating d_coeff_3fn
  | Largest tracked array allocation on task 0 so far         :           8.201 MB  when allocating ovlp3fn for atom
  Note:  These values currently only include a subset of arrays which are explicitly tracked.
  The "true" memory usage will be greater.
------------------------------------------------------------

------------------------------------------------------------
          Begin self-consistency iteration #   14

  Date     :  20190508, Time     :  153232.982
------------------------------------------------------------
  Evaluating new KS density.
  Integration grid: deviation in total charge (<rho> - N_e) =  -7.638334E-14
  | <rho_up-rho_dn> = N_up-N_dn =      2.0000; <|rho_up-rho_dn|> =      2.0636
  Pulay mixing of updated and previous charge densities.

  Evaluating partitioned Hartree potential by multipole expansion.
  | Analytical far-field extrapolation by fixed multipoles:
  | Hartree multipole sum: apparent total charge =  -0.612415E-06
  Summing up the Hartree potential.
  Time summed over all CPUs for potential: real work        0.026 s, elapsed        0.026 s
  | RMS charge density error from multipole expansion :   0.253437E-02

  Integrating Hamiltonian matrix: batch-based integration.
  Time summed over all CPUs for integration: real work        0.228 s, elapsed        0.228 s
  Calculating non-local Hartree-Fock exchange by two-center RI (RI-LVL).
  screening_threshold (crit_val) =  0.000000100000
  Allocating        0.097 MB for dm_cols
  Allocating        0.421 MB for ovlp3fn_rcv
  Allocating        0.097 MB for fock_matrix
  Allocating        0.001 MB for fock_matrix_row
  Exact exchange progress report - outermost basis function loop i_basis_r1: 1 ..  78
  |        1         2         3         4         5         6         7         8         9        10
  |       11        12        13        14        15        16        17        18        19        20
  |       21        22        23        24        25        26        27        28        29        30
  |       31        32        33        34        35        36        37        38        39        40
  |       41        42        43        44        45        46        47        48        49        50
  |       51        52        53        54        55        56        57        58        59        60
  |       61        62        63        64        65        66        67        68        69        70
  |       71        72        73        74        75        76        77        78  
  Full exact exchange energy:     447.340873706377 eV.
  Times            DM_x_o3fn   CM_x_o3fn    Products        Sync   Imbalance    Pre/Post       Other  Total calc
  | Times    0:        0.128       2.525       0.773       0.002       0.000       0.001       0.040       3.469
  | Times  sum:        0.128       2.525       0.773       0.002       0.000       0.001       0.040       3.469

  Decomposition of Other based on code block (only on MPI task 0):
  Times             Block #1    Block #2    Block #3    Block #4    Block #5    Block #6    Block #7    Block #8
  | Times    0:        0.000       0.000       0.002       0.000       0.000       0.002       0.004       0.000

  Times             Block #9   Block #10   Block #11   Block #12   Block #13   Block #14   Block #15   Block #16
  | Times    0:        0.002       0.001       0.006       0.006       0.008       0.000       0.000       0.000

  Times            Block Sum    Expected
  | Times    0:        0.031       0.040

  Updating Kohn-Sham eigenvalues, eigenvectors, occupation numbers, and Fermi level.
  Solving generalized eigenproblem
  Updating Kohn-Sham eigenvalues and eigenfunctions.
  Solving real generalised eigenvalue problem by standard LAPACK (fast)
  Updating Kohn-Sham eigenvalues and eigenfunctions.
  Solving real generalised eigenvalue problem by standard LAPACK (fast)

  Obtaining occupation numbers and chemical potential using ELSI.
  | Chemical potential (Fermi level):    -5.93903799eV
  Current spin moment of the entire structure :
  | N = N_up - N_down :    2.00
  | S                 :    1.00
  | J                 :    3.00

  Highest occupied state (VBM) at     -7.94408100 eV
  | Occupation number:      1.00000000
  | Spin channel:        1

  Lowest unoccupied state (CBM) at    -1.83826463 eV
  | Occupation number:      0.00000000
  | Spin channel:        2

  Overall HOMO-LUMO gap:      6.10581637 eV.

  Total energy components:
  | Sum of eigenvalues            :         -85.79763500 Ha       -2334.67243514 eV
  | XC energy correction          :          -8.77605164 Ha        -238.80851569 eV
  | XC potential correction       :          16.58141844 Ha         451.20335282 eV
  | Free-atom electrostatic energy:         -71.38136793 Ha       -1942.38584886 eV
  | Hartree energy correction     :          -0.85272972 Ha         -23.20395620 eV
  | Entropy correction            :          -0.00000000 Ha          -0.00000000 eV
  | ---------------------------
  | Total energy                  :        -150.22636585 Ha       -4087.86740307 eV
  | Total energy, T -> 0          :        -150.22636585 Ha       -4087.86740307 eV  <-- do not rely on this value for anything but (periodic) metals
  | Electronic free energy        :        -150.22636585 Ha       -4087.86740307 eV

  Derived energy quantities:
  | Kinetic energy                :         175.02037391 Ha        4762.54668988 eV
  | Electrostatic energy          :        -283.59173828 Ha       -7716.92383134 eV
  | Energy correction for multipole
  | error in Hartree potential    :          -0.00200500 Ha          -0.05455888 eV
  | Sum of eigenvalues per atom                           :       -1167.33621757 eV
  | Total energy (T->0) per atom                          :       -2043.93370154 eV  <-- do not rely on this value for anything but (periodic) metals
  | Electronic free energy per atom                       :       -2043.93370154 eV

  Self-consistency convergence accuracy:
  | Change of charge/spin density :  0.1072E-06  0.9609E-07
  | Change of sum of eigenvalues  :  0.7604E-05 eV
  | Change of total energy        : -0.1995E-06 eV

  Writing Kohn-Sham eigenvalues.

  Spin-up eigenvalues:

  State    Occupation    Eigenvalue [Ha]    Eigenvalue [eV]
      1       1.00000         -19.354448         -526.66132
      2       1.00000         -19.353934         -526.64735
      3       1.00000          -1.438756          -39.15055
      4       1.00000          -0.838804          -22.82501
      5       1.00000          -0.633331          -17.23380
      6       1.00000          -0.633331          -17.23380
      7       1.00000          -0.591954          -16.10790
      8       1.00000          -0.291940           -7.94408
      9       1.00000          -0.291940           -7.94408
     10       0.00000           0.123408            3.35810
     11       0.00000           0.131004            3.56480
     12       0.00000           0.155752            4.23822
     13       0.00000           0.155752            4.23822
     14       0.00000           0.237807            6.47105

  Spin-down eigenvalues:

  State    Occupation    Eigenvalue [Ha]    Eigenvalue [eV]
      1       1.00000         -19.321830         -525.77375
      2       1.00000         -19.321117         -525.75434
      3       1.00000          -1.384685          -37.67920
      4       1.00000          -0.743469          -20.23081
      5       1.00000          -0.547576          -14.90031
      6       1.00000          -0.525260          -14.29306
      7       1.00000          -0.525260          -14.29306
      8       0.00000          -0.067555           -1.83826
      9       0.00000          -0.067555           -1.83826
     10       0.00000           0.134599            3.66261
     11       0.00000           0.145797            3.96734
     12       0.00000           0.169626            4.61575
     13       0.00000           0.169626            4.61575
     14       0.00000           0.241013            6.55830

  Current spin moment of the entire structure :
  | N = N_up - N_down :    2.00
  | S                 :    1.00
  | J                 :    3.00

  Highest occupied state (VBM) at     -7.94408100 eV
  | Occupation number:      1.00000000
  | Spin channel:        1

  Lowest unoccupied state (CBM) at    -1.83826463 eV
  | Occupation number:      0.00000000
  | Spin channel:        2

  Overall HOMO-LUMO gap:      6.10581637 eV.

  Self-consistency cycle converged.

  End self-consistency iteration #    14       :  max(cpu_time)    wall_clock(cpu1)
  | Time for this iteration                    :        3.884 s           3.884 s
  | Charge density update                      :        0.146 s           0.146 s
  | Density mixing                             :        0.009 s           0.009 s
  | Hartree multipole update                   :        0.002 s           0.002 s
  | Hartree multipole summation                :        0.027 s           0.027 s
  | Integration                                :        0.228 s           0.228 s
  | Fock matrix evaluation                     :        3.469 s           3.469 s
  | Solution of K.-S. eqns.                    :        0.003 s           0.003 s
  | Total energy evaluation                    :        0.000 s           0.000 s

  Partial memory accounting:
  | Current value for overall tracked memory usage on task 0  :          20.240 MB
  | Peak value for overall tracked memory usage on task 0     :          24.793 MB after allocating d_coeff_3fn
  | Largest tracked array allocation on task 0 so far         :           8.201 MB  when allocating ovlp3fn for atom
  Note:  These values currently only include a subset of arrays which are explicitly tracked.
  The "true" memory usage will be greater.
------------------------------------------------------------
  ------------------------------------------------------------
   Computing monopole / dipole moments for complete molecule:
  | Total electronic charge [e]         :          0.159999999999996E+02
  | Total ionic charge [e]              :          0.160000000000000E+02
  | Total charge [e]                    :          0.435207425653061E-12
  | Total dipole moment [eAng]          :          0.112046885068668E-12         0.473989473505249E-13        -0.148521193885642E-12
  | Absolute dipole moment              :          0.191988827010183E-12 eAng              /                   0.922017918835033E-12 Debye  .

  Energy and forces in a compact form:
  | Total energy uncorrected      :         -0.408786740307090E+04 eV
  | Total energy corrected        :         -0.408786740307090E+04 eV  <-- do not rely on this value for anything but (periodic) metals
  | Electronic free energy        :         -0.408786740307090E+04 eV

  ------------------------------------ 
  Start decomposition of the XC Energy 
  ------------------------------------ 
  X and C from original XC functional choice 
  Hartree-Fock Energy :         -4.109868736 Ha           -111.835218427 eV
  X Energy            :        -16.458664557 Ha           -447.863049615 eV
  C Energy            :         -0.537124553 Ha            -14.615902742 eV
  Total XC Energy     :        -16.995789110 Ha           -462.478952357 eV
  ------------------------------------ 
  LDA X and C from self-consistent density 
  X Energy LDA        :        -14.969037170 Ha           -407.328226017 eV
  C Energy LDA        :         -1.109044881 Ha            -30.178646689 eV
  ------------------------------------ 
  End decomposition of the XC Energy 
  ------------------------------------ 

------------------------------------------------------------

------------------------------------------------------------------------------
  Final output of selected total energy values:

  The following output summarizes some interesting total energy values
  at the end of a run (AFTER all relaxation, molecular dynamics, etc.).

  | Total energy of the DFT / Hartree-Fock s.c.f. calculation      :          -4087.867403071 eV
  | Final zero-broadening corrected energy (caution - metals only) :          -4087.867403071 eV
  | For reference only, the value of 1 Hartree used in FHI-aims is :             27.211384500 eV

  Before relying on these values, please be sure to understand exactly which
  total energy value is referred to by a given number. Different objects may
  all carry the same name 'total energy'. Definitions:

  Total energy of the DFT / Hartree-Fock s.c.f. calculation:
  | Note that this energy does not include ANY quantities calculated after the
  | s.c.f. cycle, in particular not ANY RPA, MP2, etc. many-body perturbation terms.

  Final zero-broadening corrected energy:
  | For metallic systems only, a broadening of the occupation numbers at the Fermi
  | level can be extrapolated back to zero broadening by an electron-gas inspired
  | formula. For all systems that are not real metals, this value can be
  | meaningless and should be avoided.

------------------------------------------------------------------------------
  Methods described in the following list of references were used in this FHI-aims run.
  If you publish the results, please make sure to cite these reference if they apply.
  FHI-aims is an academic code, and for our developers (often, Ph.D. students
  and postdocs), scientific credit in the community is essential.
  Thank you for helping us!

  For any use of FHI-aims, please cite:

    Volker Blum, Ralf Gehrke, Felix Hanke, Paula Havu, Ville Havu,
    Xinguo Ren, Karsten Reuter, and Matthias Scheffler
    'Ab initio molecular simulations with numeric atom-centered orbitals'
    Computer Physics Communications 180, 2175-2196 (2009)
    http://dx.doi.org/10.1016/j.cpc.2009.06.022


  For Hartree-Fock, hybrid functionals, or many-body perturbation theory used in your run, please cite:

    Xinguo Ren, Patrick Rinke, Volker Blum, Juergen Wieferink, Alex Tkatchenko,
    Andrea Sanfilippo, Karsten Reuter, and Matthias Scheffler,
    'Resolution-of-identity approach to Hartree-Fock, hybrid density functionals,
    RPA, MP2, and GW with numeric atom-centered orbital basis functions'
    New Journal of Physics 14, 053020 (2012).
    http://dx.doi.org/10.1088/1367-2630/14/5/053020


  For the real-space grid partitioning and parallelization used in this calculation, please cite:

    Ville Havu, Volker Blum, Paula Havu, and Matthias Scheffler,
    'Efficient O(N) integration for all-electron electronic structure calculation'
    'using numerically tabulated basis functions'
    Journal of Computational Physics 228, 8367-8379 (2009).
    http://dx.doi.org/10.1016/j.jcp.2009.08.008


  The high-level electronic structure method used in your calculation
  employed our efficient localized resolution of identity for the Coulomb operator.
  Some calculations, especially large-scale hybrid density functional theory,
  are only possible thanks to this development. For this feature, please cite:

    Arvid Ihrig, Juergen Wieferink, Igor Ying Zhang, Matti Ropo, Xinguo Ren,
    Patrick Rinke, Matthias Scheffler, and Volker Blum,
    'Accurate localized resolution of identity approach for linear-scaling
    hybrid density functionals and for many-body perturbation theory'
    New Journal of Physics 117, 093020 (2015).
    http://dx.doi.org/10.1088/1367-2630/17/9/093020

  Of course, there are many other important community references, e.g., those cited in the
  above references. Our list is limited to references that describe implementations in the
  FHI-aims code. The reason is purely practical (length of this list) - please credit others as well.

------------------------------------------------------------
          Leaving FHI-aims.
          Date     :  20190508, Time     :  153236.920

          Computational steps:
          | Number of self-consistency cycles          :           14
          | Number of SCF (re)initializations          :            1

          Detailed time accounting                     :  max(cpu_time)    wall_clock(cpu1)
          | Total time                                 :       66.840 s          66.847 s
          | Preparation time                           :        0.119 s           0.119 s
          | Boundary condition initalization           :        0.000 s           0.000 s
          | Grid partitioning                          :        0.032 s           0.032 s
          | Preloading free-atom quantities on grid    :        0.003 s           0.003 s
          | Free-atom superposition energy             :        0.041 s           0.040 s
          | Total time for integrations                :        3.709 s           3.707 s
          | Product basis setup: Total time            :        9.671 s           9.673 s
          | Total time evaluating exchange matrix      :       50.427 s          50.432 s
          | Total time for solution of K.-S. equations :        0.045 s           0.045 s
          | Total time for density update              :        2.174 s           2.173 s
          | Total time for mixing                      :        0.111 s           0.111 s
          | Total time for Hartree multipole update    :        0.033 s           0.034 s
          | Total time for Hartree multipole sum       :        0.395 s           0.396 s
          | Total time for total energy evaluation     :        0.001 s           0.000 s

 This is a stub MPI_ALLREDUCE call.
 You should not be here. Check your
 setting on the use_mpi variable, or
 link against true MPI-libraries.
