------------------------------------------------------------
          Invoking FHI-aims ...
          Version 171221_1
          Compiled on 2019/05/06 at 14:26:40 on host ffph0xx.

          When using FHI-aims, please cite the following reference:

          Volker Blum, Ralf Gehrke, Felix Hanke, Paula Havu,
          Ville Havu, Xinguo Ren, Karsten Reuter, and Matthias Scheffler,
          'Ab Initio Molecular Simulations with Numeric Atom-Centered Orbitals',
          Computer Physics Communications 180, 2175-2196 (2009)

          For any questions about FHI-aims, please visit the aimsclub website
          with its forums and wiki. Contributions to both the forums and the
          wiki are warmly encouraged - they are for you, and everyone is welcome there.

------------------------------------------------------------



  Date     :  20190513, Time     :  134047.396
  Time zero on CPU 1             :   0.186900000000000E-02  s.
  Internal wall clock time zero  :           326986847.396  s.

  FHI-aims created a unique identifier for this run for later identification
  aims_uuid : 4EFFAD2E-245B-4354-A5FA-E240FDDA5D70


  Performing system and environment tests:
  *** Environment variable OMP_NUM_THREADS is not set
  *** For performance reasons you might want to set it to 1
  | Stacksize not measured: no C compiler

  Obtaining array dimensions for all initial allocations:
  
  -----------------------------------------------------------------------
  Parsing control.in (first pass over file, find array dimensions only).
  The contents of control.in will be repeated verbatim below
  unless switched off by setting 'verbatim_writeout .false.' .
  in the first line of control.in .
  -----------------------------------------------------------------------
  
  #--- method ---
  xc pw-lda
  spin none
  relativistic atomic_zora scalar
  #---
  
  #--- k-grid settings ---
  k_grid 8 8 8
  #---
  
  
  
  
  
  
  
  
  
  
  
  #-------------------------------------------------------------------------------
  #--- Species defaults for Si
  #-------------------------------------------------------------------------------
  
  ################################################################################
  #
  #  FHI-aims code project
  #  VB, Fritz-Haber Institut, 2009
  #
  #  Suggested "light" defaults for Si atom (to be pasted into control.in file)
  #  Be sure to double-check any results obtained with these settings for post-processing,
  #  e.g., with the "tight" defaults and larger basis sets.
  #
  ################################################################################
    species        Si
  #     global species definitions
      nucleus             14
      mass                28.0855
  #
      l_hartree           4
  #
      cut_pot             3.5          1.5  1.0
      basis_dep_cutoff    1e-4
  #
      radial_base         42 5.0
      radial_multiplier   1
      angular_grids       specified
        division   0.5866   50
        division   0.9616  110
        division   1.2249  194
        division   1.3795  302
  #      division   1.4810  434
  #      division   1.5529  590
  #      division   1.6284  770
  #      division   1.7077  974
  #      division   2.4068 1202
  #      outer_grid   974
        outer_grid 302
  ################################################################################
  #
  #  Definition of "minimal" basis
  #
  ################################################################################
  #     valence basis states
      valence      3  s   2.
      valence      3  p   2.
  #     ion occupancy
      ion_occ      3  s   1.
      ion_occ      3  p   1.
  ################################################################################
  #
  #  Suggested additional basis functions. For production calculations,
  #  uncomment them one after another (the most important basis functions are
  #  listed first).
  #
  #  Constructed for dimers: 1.75 A, 2.0 A, 2.25 A, 2.75 A, 3.75 A
  #
  ################################################################################
  #  "First tier" - improvements: -571.96 meV to -37.03 meV
       hydro 3 d 4.2
       hydro 2 p 1.4
  #     hydro 4 f 6.2
       ionic 3 s auto
  #  "Second tier" - improvements: -16.76 meV to -3.03 meV
  #     hydro 3 d 9
  #     hydro 5 g 9.4
  #     hydro 4 p 4
  #     hydro 1 s 0.65
  #  "Third tier" - improvements: -3.89 meV to -0.60 meV
  #     ionic 3 d auto
  #     hydro 3 s 2.6
  #     hydro 4 f 8.4
  #     hydro 3 d 3.4
  #     hydro 3 p 7.8
  #  "Fourth tier" - improvements: -0.33 meV to -0.11 meV
  #     hydro 2 p 1.6
  #     hydro 5 g 10.8
  #     hydro 5 f 11.2
  #     hydro 3 d 1
  #     hydro 4 s 4.5
  #  Further basis functions that fell out of the optimization - noise
  #  level... < -0.08 meV
  #     hydro 4 d 6.6
  #     hydro 5 g 16.4
  #     hydro 4 d 9
  
  -----------------------------------------------------------------------
  Completed first pass over input file control.in .
  -----------------------------------------------------------------------
  
  
  -----------------------------------------------------------------------
  Parsing geometry.in (first pass over file, find array dimensions only).
  The contents of geometry.in will be repeated verbatim below
  unless switched off by setting 'verbatim_writeout .false.' .
  in the first line of geometry.in .
  -----------------------------------------------------------------------
  
  lattice_vector   0.000000   2.650000   2.650000
  lattice_vector   2.650000   0.000000   2.650000
  lattice_vector   2.650000   2.650000   0.000000
  atom_frac   0.000000   0.000000   0.000000 Si
  atom_frac   0.250000   0.250000   0.250000 Si
  
  -----------------------------------------------------------------------
  Completed first pass over input file geometry.in .
  -----------------------------------------------------------------------
  

  Basic array size parameters:
  | Number of species                 :        1
  | Number of atoms                   :        2
  | Number of lattice vectors         :        3
  | Max. basis fn. angular momentum   :        2
  | Max. atomic/ionic basis occupied n:        3
  | Max. number of basis fn. types    :        3
  | Max. radial fns per species/type  :        5
  | Max. logarithmic grid size        :     1346
  | Max. radial integration grid size :       42
  | Max. angular integration grid size:      302
  | Max. angular grid division number :        8
  | Radial grid for Hartree potential :     1346
  | Number of spin channels           :        1

------------------------------------------------------------
          Reading file control.in.
------------------------------------------------------------
  XC: Using Perdew-Wang parametrisation of Ceperley-Alder LDA.
  Spin treatment: No spin polarisation.
  Scalar relativistic treatment of kinetic energy: on-site free-atom approximation to ZORA.
  Found k-point grid:         8         8         8

  Reading configuration options for species Si                  .
  | Found nuclear charge :  14.0000
  | Found atomic mass :    28.085500000000000      amu
  | Found l_max for Hartree potential  :   4
  | Found cutoff potl. onset [A], width [A], scale factor :    3.50000    1.50000    1.00000
  | Threshold for basis-dependent cutoff potential is   0.100000E-03
  | Found data for basic radial integration grid :    42 points, outermost radius =    5.000 A
  | Found multiplier for basic radial grid :   1
  | Found angular grid specification: user-specified.
  | Specified grid contains     5 separate shells.
  | Check grid settings after all constraints further below.
  | Found free-atom valence shell :  3 s   2.000
  | Found free-atom valence shell :  3 p   2.000
  | Found free-ion valence shell :  3 s   1.000
  | Found free-ion valence shell :  3 p   1.000
  | Found hydrogenic basis function :  3 d   4.200
  | Found hydrogenic basis function :  2 p   1.400
  | Found ionic basis function :  3 s , default cutoff radius.
  Species Si                  : Missing cutoff potential type.
  Defaulting to exp(1/x)/(1-x)^2 type cutoff potential.
  Species Si: No 'logarithmic' tag. Using default grid for free atom:
  | Default logarithmic grid data [bohr] : 0.1000E-03 0.1000E+03 0.1012E+01
  | Will include ionic basis functions of  2.0-fold positive Si                   ion.
  Species Si: On-site basis accuracy parameter (for Gram-Schmidt orthonormalisation) not specified.
  Using default value basis_acc =  0.1000000E-03.
  Species Si                  : Using default innermost maximum threshold i_radial=  2 for radial functions.
  Species Si                  : Default cutoff onset for free atom density etc. : 0.35000000E+01 AA.
  Species Si                  : Basic radial grid will be enhanced according to radial_multiplier =   1, to contain    42 grid points.

  Finished reading input file 'control.in'. Consistency checks are next.

  MPI_IN_PLACE appears to work with this MPI implementation.
  | Keeping use_mpi_in_place .true. (see manual).
  Target number of points in a grid batch is not set. Defaulting to  100
  Method for grid partitioning is not set. Defaulting to 'maxmin' partitioning.
  Batch size limit is not set. Defaulting to    200
  By default, will store active basis functions for each batch.
  If in need of memory, prune_basis_once .false. can be used to disable this option.
  communication_type for Hartree potential was not specified.
  Defaulting to calc_hartree .
 * Attention: 
 * You may want to set distributed_spline_storage to .true. in order to save memory.
 * This doesn't harm performance and is perfectly ok unless:
 * - you get error messages in postprocessing (about missing atoms in get_rho_multipole_spl)
 * - you need full spline storage in hirshfeld_analysis
  Defaulting to Pulay charge density mixer.
  Pulay mixer: Number of relevant iterations not set.
  Defaulting to    8 iterations.
  Pulay mixer: Number of initial linear mixing iterations not set.
  Defaulting to    0 iterations.
  Work space size for distributed Hartree potential not set.
  Defaulting to   0.200000E+03 MB.
  Mixing parameter for charge density mixing has not been set.
  Using default: charge_mix_param =     0.0500.
  The mixing parameter will be adjusted in iteration number     2 of the first full s.c.f. cycle only.
  Algorithm-dependent basis array size parameters:
  | n_max_pulay                         :        8
 * Notice: The s.c.f. convergence criterion sc_accuracy_rho was not provided.
 * We used to stop in this case, and ask the user to provide reasonable
 * scf convergence criteria. However, this led some users to employ criteria
 * that led to extremely long run times, e.g., for simple relaxation.
 * We now preset a default value for sc_accuracy_rho if it is not set.
 * You may still wish to check if this setting is too tight or too loose for your needs.
 * Based on n_atoms, FHI-aims chose sc_accuracy_rho =  0.100000E-05 .
  Maximum number of self-consistency iterations not provided.
  Presetting  1000 iterations.
  Presetting      1001 iterations before the initial mixing cycle
  is restarted anyway using the sc_init_iter criterion / keyword.
  Presetting a factor      1.000 between actual scf density residual
  and density convergence criterion sc_accuracy_rho below which sc_init_iter
  takes no effect.
 * No s.c.f. convergence criteria (sc_accuracy_*) were provided in control.in.
 * The run will proceed with a reasonable default guess, but please check whether.
 * the s.c.f. cycles seem to take too much or too little time.
  Calculation of forces was not defined in control.in. No forces will be calculated.
  Geometry relaxation not requested: no relaxation will be performed.
  No accuracy limit for integral partition fn. given. Defaulting to  0.1000E-14.
  No threshold value for u(r) in integrations given. Defaulting to  0.1000E-05.
  No occupation type (smearing scheme) given. Defaulting to Gaussian broadening, width =  0.1000E-01 eV.
  The width will be adjusted in iteration number     2 of the first full s.c.f. cycle only.
  S.C.F. convergence parameters will be adjusted in iteration number     2 of the first full s.c.f. cycle only.
  No accuracy for occupation numbers given. Defaulting to  0.1000E-12.
  No threshold value for occupation numbers given. Defaulting to  0.0000E+00.
  No accuracy for fermi level given. Defaulting to  0.1000E-19.
  Maximum # of iterations to find E_F not set. Defaulting to  200.
  Preferred method for the eigenvalue solver ('KS_method') not specified in 'control.in'.
  Defaulting to serial version, 'lapack_fast'.
  Will not use alltoall communication since running on < 1024 CPUs.
  Threshold for basis singularities not set.
  Default threshold for basis singularities:  0.1000E-04
  partition_type (choice of integration weights) for integrals was not specified.
  | Using a version of the partition function of Stratmann and coworkers ('stratmann_smoother').
  | At each grid point, the set of atoms used to build the partition table is smoothly restricted to
  | only those atoms whose free-atom density would be non-zero at that grid point.
  Partitioning for Hartree potential was not defined. Using partition_type for integrals.
  | Adjusted default value of keyword multip_moments_threshold to:       0.10000000E-11
  | This value may affect high angular momentum components of the Hartree potential in periodic systems.
  Angular momentum expansion for Kerker preconditioner not set explicitly.
  | Using default value of   0
  No explicit requirement for turning off preconditioner.
  | By default, it will be turned off when the charge convergence reaches
  | sc_accuracy_rho  =   0.100000E-05
  No special mixing parameter while Kerker preconditioner is on.
  Using default: charge_mix_param =     0.0500.
  No q(lm)/r^(l+1) cutoff set for long-range Hartree potential.
  | Using default value of  0.100000E-09 .
  | Verify using the multipole_threshold keyword.
  Defaulting to new monopole extrapolation.
  Density update method: automatic selection selected.
  Using density matrix based charge density update.
  Using density matrix based charge density update.
  Using packed matrix style: index .
  Defaulting to use time-reversal symmetry for k-point grid.
------------------------------------------------------------


------------------------------------------------------------
          Reading geometry description geometry.in.
------------------------------------------------------------
  Input structure read successfully.
  The structure contains        2 atoms,  and a total of         28.000 electrons.

  Input geometry:
  | Unit cell:
  |        0.00000000        2.65000000        2.65000000
  |        2.65000000        0.00000000        2.65000000
  |        2.65000000        2.65000000        0.00000000
  | Atomic structure:
  |       Atom                x [A]            y [A]            z [A]
  |    1: Species Si            0.00000000        0.00000000        0.00000000
  |    2: Species Si            1.32500000        1.32500000        1.32500000

  Lattice parameters for 3D lattice (in Angstroms) :     3.747666    3.747666    3.747666
  Angle(s) between unit vectors (in degrees)      :    60.000000   60.000000   60.000000

  |

  | The smallest distance between any two atoms is         2.29496732 AA.
  |
  | The first atom of this pair is atom number                      1 .
  | The second atom of this pair is atom number                     2 .
  | Wigner-Seitz cell of the first atom image           0     0     0 .
  | (The Wigner-Seitz cell of the second atom is 0 0 0  by definition.)

  Quantities derived from the lattice vectors:
  | Reciprocal lattice vector 1: -1.185507  1.185507  1.185507
  | Reciprocal lattice vector 2:  1.185507 -1.185507  1.185507
  | Reciprocal lattice vector 3:  1.185507  1.185507 -1.185507
  | Unit cell volume                               :   0.372192E+02  A^3

  Range separation radius for Ewald summation (hartree_convergence_parameter):      3.78530813 bohr.

  Fractional coordinates:
                         L1                L2                L3
       atom_frac         0.00000000        0.00000000        0.00000000  Si
       atom_frac         0.25000000        0.25000000        0.25000000  Si

  Number of empty states per atom not set in control.in - providing a guess from actual geometry.
  | Total number of empty states used during s.c.f. cycle:        6
  If you use a very high smearing, use empty_states (per atom!) in control.in to increase this value.

  Structure-dependent array size parameters: 
  | Maximum number of distinct radial functions  :        8
  | Maximum number of basis functions            :       36
  | Number of Kohn-Sham states (occupied + empty):       20
------------------------------------------------------------

------------------------------------------------------------
          Preparing all fixed parts of the calculation.
------------------------------------------------------------
  Determining machine precision:
     2.2250738585072014E-308
  Setting up grids for atomic and cluster calculations.

  Creating wave function, potential, and density for free atoms.

  Species: Si

  List of occupied orbitals and eigenvalues:
    n    l              occ      energy [Ha]    energy [eV]
    1    0           2.0000       -65.491668     -1782.1190
    2    0           2.0000        -5.087967      -138.4506
    3    0           2.0000        -0.391471       -10.6525
    2    1           6.0000        -3.502246       -95.3010
    3    1           2.0000        -0.143943        -3.9169

  Creating fixed part of basis set: Ionic, confined, hydrogenic.

  Si                   ion:

  List of free ionic orbitals and eigenvalues:
    n    l      energy [Ha]    energy [eV]
    1    0       -66.364436     -1805.8682
    2    0        -5.935799      -161.5213
    3    0        -1.078166       -29.3384
    2    1        -4.351123      -118.4001
    3    1        -0.781733       -21.2720


  List of ionic basis orbitals and eigenvalues:
    n    l      energy [Ha]    energy [eV]    outer radius [A]
    3    0        -1.078146       -29.3378       4.214062


  Si                   hydrogenic:

  List of hydrogenic basis orbitals: 
    n    l      effective z      eigenvalue [eV]  inner max. [A]     outer max. [A]     outer radius [A]   
    3    2         4.200000       -26.6624           1.139231           1.139231           4.534782
    2    1         1.400000        -6.4613           1.472672           1.472672           4.590560


  Adding cutoff potential to free-atom effective potential.
  Creating atomic-like basis functions for current effective potential.

  Species Si                  :

  List of atomic basis orbitals and eigenvalues:
    n    l      energy [Ha]    energy [eV]    outer radius [A]
    1    0       -65.491668     -1782.1190       0.789468
    2    0        -5.087967      -138.4506       2.815114
    3    0        -0.391471       -10.6525       4.534782
    2    1        -3.502246       -95.3010       3.259919
    3    1        -0.143943        -3.9169       4.590560

  Assembling full basis from fixed parts.
  | Species Si :   atomic orbital   1 s accepted.
  | Species Si :   atomic orbital   2 s accepted.
  | Species Si :    ionic orbital   3 s accepted.
  | Species Si :   atomic orbital   3 s accepted.
  | Species Si :   atomic orbital   2 p accepted.
  | Species Si :   atomic orbital   3 p accepted.
  | Species Si :    hydro orbital   2 p accepted.
  | Species Si :    hydro orbital   3 d accepted.

  Basis size parameters after reduction:
  | Total number of radial functions:        8
  | Total number of basis functions :       36

  Per-task memory consumption for arrays in subroutine allocate_ext:
  |           2.757868MB.
  Testing on-site integration grid accuracy.
  |  Species  Function  <phi|h_atom|phi> (log., in eV)  <phi|h_atom|phi> (rad., in eV)
           1        1              -1782.1189727076              -1782.1182429251
           1        2               -138.4506350693               -138.4506310079
           1        3                -10.3030408815                -10.3029120678
           1        4                  5.0238999146                  4.9457540310 ***
           1        5                -95.3009689499                -95.3009689315
           1        6                 -3.9266496564                 -3.9420918374
           1        7                  6.3453628447                  6.1632372158 ***
           1        8                  6.2883050744                  6.2861881409
 * Note: Onsite integrals marked "***" above are less accurate than
 * onsite_accuracy_threshold =    0.03000 eV. Usually, this is harmless.
 * When in doubt, tighten the "radial" and/or "radial_multiplier" flags to check.

  Preparing densities etc. for the partition functions (integrals / Hartree potential).

  Preparations completed.
  max(cpu_time)          :      0.116 s.
  Wall clock time (cpu1) :      0.116 s.
------------------------------------------------------------

------------------------------------------------------------
          Begin self-consistency loop: Initialization.

          Date     :  20190513, Time     :  134047.513
------------------------------------------------------------

  Initializing index lists of integration centers etc. from given atomic structure:
  Mapping all atomic coordinates to central unit cell.

  Initializing the k-points
          Using symmetry for reducing the k-points
  | k-points reduced from:      512 to      260
  | Number of k-points                             :       260
  The eigenvectors in the calculations are COMPLEX.
  | K-points in task   0:       260
  | Number of basis functions in the Hamiltonian integrals :      1472
  | Number of basis functions in a single unit cell        :        36
  | Number of centers in hartree potential         :       732
  | Number of centers in hartree multipole         :       324
  | Number of centers in electron density summation:       228
  | Number of centers in basis integrals           :       228
  | Number of centers in integrals                 :       101
  | Number of centers in hamiltonian               :       228
  | Consuming        576 KiB for k_phase.
  | Number of super-cells (origin) [n_cells]                     :        2197
  | Number of super-cells (after PM_index) [n_cells]             :         142
  | Number of super-cells in hamiltonian [n_cells_in_hamiltonian]:         142
  | Size of matrix packed + index [n_hamiltonian_matrix_size] :       45735
  Partitioning the integration grid into batches with maxmin method.
  | Maximal weight for a single point:     1.000
  | Minimal weight for a single point:     0.683
  | Number of batches:      128
  | Maximal batch size:      90
  | Minimal batch size:      85
  | Average batch size:      87.562
  | Standard deviation of batch sizes:       1.504
  Initializing partition tables, free-atom densities, potentials, etc. across the integration grid (initialize_grid_storage).
  | initialize_grid_storage: Actual outermost partition radius vs. multipole_radius_free
  | (-- VB: in principle, multipole_radius_free should be larger, hence this output)
  | Species        1: Confinement radius =              4.999999999999999 AA, multipole_radius_free =              5.000694715736543 AA.
  | Species        1: outer_partition_radius set to              5.000694715736543 AA .
  | Original list of interatomic distances with         228 x        228 entries is created.
  | Net number of integration points:    11208
  | of which are non-zero points    :     9628
  | Numerical average free-atom electrostatic potential    :    -14.13935356 eV
  Renormalizing the initial density to the exact electron count on the 3D integration grid.
  | Initial density: Formal number of electrons (from input files) :      28.0000000000
  | Integrated number of electrons on 3D grid     :      28.0057615993
  | Charge integration error                      :       0.0057615993
  | Normalization factor for density and gradient :       0.9997942709
  Obtaining max. number of non-zero basis functions in each batch (get_n_compute_maxes).
  | Maximal number of non-zero basis functions:      515 in task     0
  Allocating        2.995 MB for KS_eigenvector_complex
  Integrating Hamiltonian matrix: batch-based integration.
  Time summed over all CPUs for integration: real work        0.687 s, elapsed        0.687 s
  Integrating overlap matrix.
  Time summed over all CPUs for integration: real work        0.459 s, elapsed        0.459 s
  Decreasing sparse matrix size:
   Tolerance:   9.9999998245167004E-014
   Hamiltonian matrix
  | Array has    39826 nonzero elements out of    45735 elements
  | Sparsity factor is 0.129
   Overlap matrix
  | Array has    36980 nonzero elements out of    45735 elements
  | Sparsity factor is 0.191
  New size of hamiltonian matrix:       40083

  Updating Kohn-Sham eigenvalues, eigenvectors, occupation numbers, and Fermi level.
  Solving generalized eigenproblem
  Transforming overlap matrix and checking for singularities.
  Overlap matrix is nonsingular at first k-point:
  | Lowest eigenvalue:  0.329719E-02

  Obtaining occupation numbers and chemical potential using ELSI.
  | Chemical potential (Fermi level):    -5.91426780eV
  Writing Kohn-Sham eigenvalues.
  K-point:       1 at    0.000000    0.000000    0.000000 (in units of recip. lattice)

  State    Occupation    Eigenvalue [Ha]    Eigenvalue [eV]
      1       2.00000         -65.518014        -1782.83586
      2       2.00000         -65.518014        -1782.83586
      3       2.00000          -5.120335         -139.33139
      4       2.00000          -5.119906         -139.31973
      5       2.00000          -3.534630          -96.18217
      6       2.00000          -3.534630          -96.18217
      7       2.00000          -3.534630          -96.18217
      8       2.00000          -3.533774          -96.15889
      9       2.00000          -3.533774          -96.15889
     10       2.00000          -3.533774          -96.15889
     11       2.00000          -0.691645          -18.82063
     12       2.00000          -0.239507           -6.51731
     13       2.00000          -0.239507           -6.51731
     14       2.00000          -0.239507           -6.51731
     15       0.00000          -0.133228           -3.62531
     16       0.00000          -0.133228           -3.62531
     17       0.00000          -0.133228           -3.62531
     18       0.00000          -0.083928           -2.28380
     19       0.00000           0.060797            1.65436
     20       0.00000           0.060797            1.65436

  What follows are estimated values for band gap, HOMO, LUMO, etc.
  | They are estimated on a discrete k-point grid and not necessarily exact.
  | For converged numbers, create a DOS and/or band structure plot on a denser k-grid.

  Highest occupied state (VBM) at     -6.51730867 eV (relative to internal zero)
  | Occupation number:      2.00000000
  | K-point:       1 at    0.000000    0.000000    0.000000 (in units of recip. lattice)

  Lowest unoccupied state (CBM) at    -5.68965185 eV (relative to internal zero)
  | Occupation number:      0.00000000
  | K-point:      30 at    0.000000    0.625000    0.625000 (in units of recip. lattice)

  ESTIMATED overall HOMO-LUMO gap:      0.82765682 eV between HOMO at k-point 1 and LUMO at k-point 30
  | This appears to be an indirect band gap.
  | Smallest direct gap :      2.89199802 eV for k_point 1 at    0.000000    0.625000    0.625000 (in units of recip. lattice)
  The gap value is above 0.2 eV. Unless you are using a very sparse k-point grid,
  this system is most likely an insulator or a semiconductor.
  Calculating total energy contributions from superposition of free atom densities.

  Total energy components:
  | Sum of eigenvalues            :        -328.39500803 Ha       -8936.08283126 eV
  | XC energy correction          :         -39.70109986 Ha       -1080.32189332 eV
  | XC potential correction       :          52.45126410 Ha        1427.27151502 eV
  | Free-atom electrostatic energy:        -263.09762940 Ha       -7159.25075475 eV
  | Hartree energy correction     :          -0.00000000 Ha          -0.00000000 eV
  | Entropy correction            :          -0.00000000 Ha          -0.00000000 eV
  | ---------------------------
  | Total energy                  :        -578.74247318 Ha      -15748.38396432 eV
  | Total energy, T -> 0          :        -578.74247318 Ha      -15748.38396432 eV  <-- do not rely on this value for anything but (periodic) metals
  | Electronic free energy        :        -578.74247318 Ha      -15748.38396432 eV

  Derived energy quantities:
  | Kinetic energy                :         579.81792551 Ha       15777.64851118 eV
  | Electrostatic energy          :       -1118.85929884 Ha      -30445.71058217 eV
  | Energy correction for multipole
  | error in Hartree potential    :           0.00000000 Ha           0.00000000 eV
  | Sum of eigenvalues per atom                           :       -4468.04141563 eV
  | Total energy (T->0) per atom                          :       -7874.19198216 eV  <-- do not rely on this value for anything but (periodic) metals
  | Electronic free energy per atom                       :       -7874.19198216 eV
  Initialize hartree_potential_storage
  Max. number of atoms included in rho_multipole:            2

  End scf initialization - timings             :  max(cpu_time)    wall_clock(cpu1)
  | Time for scf. initialization               :        1.761 s           1.761 s
  | Boundary condition initialization          :        0.040 s           0.040 s
  | Integration                                :        1.147 s           1.146 s
  | Solution of K.-S. eqns.                    :        0.303 s           0.302 s
  | Grid partitioning                          :        0.036 s           0.036 s
  | Preloading free-atom quantities on grid    :        0.001 s           0.000 s
  | Free-atom superposition energy             :        0.031 s           0.031 s
  | Total energy evaluation                    :        0.000 s           0.001 s

  Partial memory accounting:
  | Current value for overall tracked memory usage on task 0  :           3.797 MB
  | Peak value for overall tracked memory usage on task 0     :           7.144 MB after allocating wave
  | Largest tracked array allocation on task 0 so far         :           2.995 MB  when allocating +KS_eigenvector_complex
  Note:  These values currently only include a subset of arrays which are explicitly tracked.
  The "true" memory usage will be greater.
------------------------------------------------------------

------------------------------------------------------------
          Begin self-consistency iteration #    1

  Date     :  20190513, Time     :  134049.274
------------------------------------------------------------
  Evaluating new KS density using the density matrix
  Evaluating density matrix
  Time summed over all CPUs for getting density from density matrix: real work        1.125 s, elapsed        1.125 s
  Integration grid: deviation in total charge (<rho> - N_e) =   7.105427E-15
  Pulay mixing of updated and previous charge densities.

  Evaluating partitioned Hartree potential by multipole expansion.
  | Analytical far-field extrapolation by fixed multipoles:
  | Hartree multipole sum: apparent total charge =   0.596714E-02
  Summing up the Hartree potential.
  | Estimated reciprocal-space cutoff momentum G_max:         2.46938261 bohr^-1 .
  | Reciprocal lattice points for long-range Hartree potential:      58
  Time summed over all CPUs for potential: real work        0.381 s, elapsed        0.381 s
  | RMS charge density error from multipole expansion :   0.611091E-03
  | Average real-space part of the electrostatic potential :     -0.00453138 eV

  Integrating Hamiltonian matrix: batch-based integration.
  Time summed over all CPUs for integration: real work        0.676 s, elapsed        0.676 s

  Updating Kohn-Sham eigenvalues, eigenvectors, occupation numbers, and Fermi level.
  Solving generalized eigenproblem

  Obtaining occupation numbers and chemical potential using ELSI.
  | Chemical potential (Fermi level):    -5.89777627eV
  Writing Kohn-Sham eigenvalues.
  K-point:       1 at    0.000000    0.000000    0.000000 (in units of recip. lattice)

  State    Occupation    Eigenvalue [Ha]    Eigenvalue [eV]
      1       2.00000         -65.521493        -1782.93053
      2       2.00000         -65.521493        -1782.93053
      3       2.00000          -5.120875         -139.34609
      4       2.00000          -5.120447         -139.33445
      5       2.00000          -3.535268          -96.19954
      6       2.00000          -3.535268          -96.19954
      7       2.00000          -3.535268          -96.19954
      8       2.00000          -3.534415          -96.17632
      9       2.00000          -3.534415          -96.17632
     10       2.00000          -3.534415          -96.17632
     11       2.00000          -0.691066          -18.80486
     12       2.00000          -0.238661           -6.49430
     13       2.00000          -0.238661           -6.49430
     14       2.00000          -0.238661           -6.49430
     15       0.00000          -0.132814           -3.61404
     16       0.00000          -0.132814           -3.61404
     17       0.00000          -0.132814           -3.61404
     18       0.00000          -0.083205           -2.26413
     19       0.00000           0.061299            1.66803
     20       0.00000           0.061299            1.66803

  What follows are estimated values for band gap, HOMO, LUMO, etc.
  | They are estimated on a discrete k-point grid and not necessarily exact.
  | For converged numbers, create a DOS and/or band structure plot on a denser k-grid.

  Highest occupied state (VBM) at     -6.49429992 eV (relative to internal zero)
  | Occupation number:      2.00000000
  | K-point:       1 at    0.000000    0.000000    0.000000 (in units of recip. lattice)

  Lowest unoccupied state (CBM) at    -5.68249681 eV (relative to internal zero)
  | Occupation number:      0.00000000
  | K-point:     149 at    0.375000    0.375000    0.000000 (in units of recip. lattice)

  ESTIMATED overall HOMO-LUMO gap:      0.81180311 eV between HOMO at k-point 1 and LUMO at k-point 149
  | This appears to be an indirect band gap.
  | Smallest direct gap :      2.88026070 eV for k_point 1 at    0.375000    0.375000    0.000000 (in units of recip. lattice)
  The gap value is above 0.2 eV. Unless you are using a very sparse k-point grid,
  this system is most likely an insulator or a semiconductor.

  Total energy components:
  | Sum of eigenvalues            :        -328.41365561 Ha       -8936.59025797 eV
  | XC energy correction          :         -39.70450799 Ha       -1080.41463318 eV
  | XC potential correction       :          52.45576241 Ha        1427.39392016 eV
  | Free-atom electrostatic energy:        -263.09762940 Ha       -7159.25075475 eV
  | Hartree energy correction     :           0.01823611 Ha           0.49622973 eV
  | Entropy correction            :          -0.00000000 Ha          -0.00000000 eV
  | ---------------------------
  | Total energy                  :        -578.74179449 Ha      -15748.36549602 eV
  | Total energy, T -> 0          :        -578.74179449 Ha      -15748.36549602 eV  <-- do not rely on this value for anything but (periodic) metals
  | Electronic free energy        :        -578.74179449 Ha      -15748.36549602 eV

  Derived energy quantities:
  | Kinetic energy                :         579.66400253 Ha       15773.46005375 eV
  | Electrostatic energy          :       -1118.70128904 Ha      -30441.41091658 eV
  | Energy correction for multipole
  | error in Hartree potential    :           0.00081990 Ha           0.02231066 eV
  | Sum of eigenvalues per atom                           :       -4468.29512899 eV
  | Total energy (T->0) per atom                          :       -7874.18274801 eV  <-- do not rely on this value for anything but (periodic) metals
  | Electronic free energy per atom                       :       -7874.18274801 eV

  Self-consistency convergence accuracy:
  | Change of charge density      :  0.1126E+00
  | Change of sum of eigenvalues  : -0.5074E+00 eV
  | Change of total energy        :  0.1847E-01 eV

  End self-consistency iteration #     1       :  max(cpu_time)    wall_clock(cpu1)
  | Time for this iteration                    :        2.413 s           2.412 s
  | Charge density update                      :        1.146 s           1.146 s
  | Density mixing & preconditioning           :        0.051 s           0.051 s
  | Hartree multipole update                   :        0.001 s           0.002 s
  | Hartree multipole summation                :        0.385 s           0.384 s
  | Integration                                :        0.675 s           0.676 s
  | Solution of K.-S. eqns.                    :        0.153 s           0.153 s
  | Total energy evaluation                    :        0.000 s           0.000 s

  Partial memory accounting:
  | Current value for overall tracked memory usage on task 0  :           3.797 MB
  | Peak value for overall tracked memory usage on task 0     :           7.144 MB after allocating wave
  | Largest tracked array allocation on task 0 so far         :           2.995 MB  when allocating +KS_eigenvector_complex
  Note:  These values currently only include a subset of arrays which are explicitly tracked.
  The "true" memory usage will be greater.
------------------------------------------------------------

------------------------------------------------------------
          Begin self-consistency iteration #    2

  Date     :  20190513, Time     :  134051.686
------------------------------------------------------------
  Evaluating new KS density using the density matrix
  Evaluating density matrix
  Time summed over all CPUs for getting density from density matrix: real work        1.227 s, elapsed        1.227 s
  Integration grid: deviation in total charge (<rho> - N_e) =  -1.421085E-14
  Pulay mixing of updated and previous charge densities.

  Evaluating partitioned Hartree potential by multipole expansion.
  | Analytical far-field extrapolation by fixed multipoles:
  | Hartree multipole sum: apparent total charge =   0.971085E-02
  Summing up the Hartree potential.
  Time summed over all CPUs for potential: real work        0.441 s, elapsed        0.441 s
  | RMS charge density error from multipole expansion :   0.119606E-01
  | Average real-space part of the electrostatic potential :      0.39272452 eV

  Integrating Hamiltonian matrix: batch-based integration.
  Time summed over all CPUs for integration: real work        0.666 s, elapsed        0.666 s

  Updating Kohn-Sham eigenvalues, eigenvectors, occupation numbers, and Fermi level.
  Solving generalized eigenproblem

  Obtaining occupation numbers and chemical potential using ELSI.
  | Chemical potential (Fermi level):    -5.80750487eV
  What follows are estimated values for band gap, HOMO, LUMO, etc.
  | They are estimated on a discrete k-point grid and not necessarily exact.
  | For converged numbers, create a DOS and/or band structure plot on a denser k-grid.

  Highest occupied state (VBM) at     -5.87678255 eV (relative to internal zero)
  | Occupation number:      2.00000000
  | K-point:       1 at    0.000000    0.000000    0.000000 (in units of recip. lattice)

  Lowest unoccupied state (CBM) at    -5.50186069 eV (relative to internal zero)
  | Occupation number:      0.00000000
  | K-point:      30 at    0.000000    0.625000    0.625000 (in units of recip. lattice)

  ESTIMATED overall HOMO-LUMO gap:      0.37492186 eV between HOMO at k-point 1 and LUMO at k-point 30
  | This appears to be an indirect band gap.
  | Smallest direct gap :      2.57137107 eV for k_point 1 at    0.000000    0.625000    0.625000 (in units of recip. lattice)
  The gap value is above 0.2 eV. Unless you are using a very sparse k-point grid,
  this system is most likely an insulator or a semiconductor.

  Checking to see if s.c.f. parameters should be adjusted.
  The system likely has a gap. Increased the default Pulay mixing parameter (charge_mix_param). Value:   0.200000 .
  Kept the default occupation width. Value:   0.010000 eV.

  Total energy components:
  | Sum of eigenvalues            :        -327.43218238 Ha       -8909.88301249 eV
  | XC energy correction          :         -39.78029458 Ha       -1082.47689121 eV
  | XC potential correction       :          52.55575400 Ha        1430.11482991 eV
  | Free-atom electrostatic energy:        -263.09762940 Ha       -7159.25075475 eV
  | Hartree energy correction     :          -0.98079694 Ha         -26.68884263 eV
  | Entropy correction            :          -0.00000000 Ha          -0.00000000 eV
  | ---------------------------
  | Total energy                  :        -578.73514930 Ha      -15748.18467116 eV
  | Total energy, T -> 0          :        -578.73514930 Ha      -15748.18467116 eV  <-- do not rely on this value for anything but (periodic) metals
  | Electronic free energy        :        -578.73514930 Ha      -15748.18467116 eV

  Derived energy quantities:
  | Kinetic energy                :         580.07094834 Ha       15784.53361246 eV
  | Electrostatic energy          :       -1119.02580306 Ha      -30450.24139241 eV
  | Energy correction for multipole
  | error in Hartree potential    :           0.01601773 Ha           0.43586464 eV
  | Sum of eigenvalues per atom                           :       -4454.94150624 eV
  | Total energy (T->0) per atom                          :       -7874.09233558 eV  <-- do not rely on this value for anything but (periodic) metals
  | Electronic free energy per atom                       :       -7874.09233558 eV

  Self-consistency convergence accuracy:
  | Change of charge density      :  0.1070E+00
  | Change of sum of eigenvalues  :  0.2671E+02 eV
  | Change of total energy        :  0.1808E+00 eV

  End self-consistency iteration #     2       :  max(cpu_time)    wall_clock(cpu1)
  | Time for this iteration                    :        2.562 s           2.563 s
  | Charge density update                      :        1.248 s           1.249 s
  | Density mixing & preconditioning           :        0.045 s           0.045 s
  | Hartree multipole update                   :        0.001 s           0.001 s
  | Hartree multipole summation                :        0.444 s           0.444 s
  | Integration                                :        0.665 s           0.666 s
  | Solution of K.-S. eqns.                    :        0.158 s           0.158 s
  | Total energy evaluation                    :        0.000 s           0.000 s

  Partial memory accounting:
  | Current value for overall tracked memory usage on task 0  :           3.798 MB
  | Peak value for overall tracked memory usage on task 0     :           7.144 MB after allocating wave
  | Largest tracked array allocation on task 0 so far         :           2.995 MB  when allocating +KS_eigenvector_complex
  Note:  These values currently only include a subset of arrays which are explicitly tracked.
  The "true" memory usage will be greater.
------------------------------------------------------------

------------------------------------------------------------
          Begin self-consistency iteration #    3

  Date     :  20190513, Time     :  134054.249
------------------------------------------------------------
  Evaluating new KS density using the density matrix
  Evaluating density matrix
  Time summed over all CPUs for getting density from density matrix: real work        1.107 s, elapsed        1.107 s
  Integration grid: deviation in total charge (<rho> - N_e) =   5.329071E-14
  Pulay mixing of updated and previous charge densities.

  Evaluating partitioned Hartree potential by multipole expansion.
  | Analytical far-field extrapolation by fixed multipoles:
  | Hartree multipole sum: apparent total charge =   0.920593E-02
  Summing up the Hartree potential.
  Time summed over all CPUs for potential: real work        0.468 s, elapsed        0.468 s
  | RMS charge density error from multipole expansion :   0.117692E-01
  | Average real-space part of the electrostatic potential :      0.37888640 eV

  Integrating Hamiltonian matrix: batch-based integration.
  Time summed over all CPUs for integration: real work        0.733 s, elapsed        0.733 s

  Updating Kohn-Sham eigenvalues, eigenvectors, occupation numbers, and Fermi level.
  Solving generalized eigenproblem

  Obtaining occupation numbers and chemical potential using ELSI.
  | Chemical potential (Fermi level):    -5.83396081eV
  What follows are estimated values for band gap, HOMO, LUMO, etc.
  | They are estimated on a discrete k-point grid and not necessarily exact.
  | For converged numbers, create a DOS and/or band structure plot on a denser k-grid.

  Highest occupied state (VBM) at     -5.90076410 eV (relative to internal zero)
  | Occupation number:      2.00000000
  | K-point:       1 at    0.000000    0.000000    0.000000 (in units of recip. lattice)

  Lowest unoccupied state (CBM) at    -5.50874812 eV (relative to internal zero)
  | Occupation number:      0.00000000
  | K-point:      30 at    0.000000    0.625000    0.625000 (in units of recip. lattice)

  ESTIMATED overall HOMO-LUMO gap:      0.39201598 eV between HOMO at k-point 1 and LUMO at k-point 30
  | This appears to be an indirect band gap.
  | Smallest direct gap :      2.58249349 eV for k_point 1 at    0.000000    0.625000    0.625000 (in units of recip. lattice)
  The gap value is above 0.2 eV. Unless you are using a very sparse k-point grid,
  this system is most likely an insulator or a semiconductor.

  Total energy components:
  | Sum of eigenvalues            :        -327.47917143 Ha       -8911.16164946 eV
  | XC energy correction          :         -39.77713408 Ha       -1082.39088983 eV
  | XC potential correction       :          52.55158343 Ha        1430.00134288 eV
  | Free-atom electrostatic energy:        -263.09762940 Ha       -7159.25075475 eV
  | Hartree energy correction     :          -0.93265287 Ha         -25.37877588 eV
  | Entropy correction            :          -0.00000000 Ha          -0.00000000 eV
  | ---------------------------
  | Total energy                  :        -578.73500435 Ha      -15748.18072704 eV
  | Total energy, T -> 0          :        -578.73500435 Ha      -15748.18072704 eV  <-- do not rely on this value for anything but (periodic) metals
  | Electronic free energy        :        -578.73500435 Ha      -15748.18072704 eV

  Derived energy quantities:
  | Kinetic energy                :         580.05000095 Ha       15783.96360498 eV
  | Electrostatic energy          :       -1119.00787122 Ha      -30449.75344220 eV
  | Energy correction for multipole
  | error in Hartree potential    :           0.01578954 Ha           0.42965513 eV
  | Sum of eigenvalues per atom                           :       -4455.58082473 eV
  | Total energy (T->0) per atom                          :       -7874.09036352 eV  <-- do not rely on this value for anything but (periodic) metals
  | Electronic free energy per atom                       :       -7874.09036352 eV

  Self-consistency convergence accuracy:
  | Change of charge density      :  0.1817E-01
  | Change of sum of eigenvalues  : -0.1279E+01 eV
  | Change of total energy        :  0.3944E-02 eV

  End self-consistency iteration #     3       :  max(cpu_time)    wall_clock(cpu1)
  | Time for this iteration                    :        2.539 s           2.539 s
  | Charge density update                      :        1.130 s           1.130 s
  | Density mixing & preconditioning           :        0.046 s           0.046 s
  | Hartree multipole update                   :        0.001 s           0.000 s
  | Hartree multipole summation                :        0.472 s           0.472 s
  | Integration                                :        0.733 s           0.733 s
  | Solution of K.-S. eqns.                    :        0.158 s           0.158 s
  | Total energy evaluation                    :        0.000 s           0.000 s

  Partial memory accounting:
  | Current value for overall tracked memory usage on task 0  :           3.798 MB
  | Peak value for overall tracked memory usage on task 0     :           7.144 MB after allocating wave
  | Largest tracked array allocation on task 0 so far         :           2.995 MB  when allocating +KS_eigenvector_complex
  Note:  These values currently only include a subset of arrays which are explicitly tracked.
  The "true" memory usage will be greater.
------------------------------------------------------------

------------------------------------------------------------
          Begin self-consistency iteration #    4

  Date     :  20190513, Time     :  134056.788
------------------------------------------------------------
  Evaluating new KS density using the density matrix
  Evaluating density matrix
  Time summed over all CPUs for getting density from density matrix: real work        1.379 s, elapsed        1.379 s
  Integration grid: deviation in total charge (<rho> - N_e) =  -3.552714E-14
  Pulay mixing of updated and previous charge densities.

  Evaluating partitioned Hartree potential by multipole expansion.
  | Analytical far-field extrapolation by fixed multipoles:
  | Hartree multipole sum: apparent total charge =   0.677037E-02
  Summing up the Hartree potential.
  Time summed over all CPUs for potential: real work        0.580 s, elapsed        0.580 s
  | RMS charge density error from multipole expansion :   0.124667E-01
  | Average real-space part of the electrostatic potential :      0.36295498 eV

  Integrating Hamiltonian matrix: batch-based integration.
  Time summed over all CPUs for integration: real work        0.777 s, elapsed        0.777 s

  Updating Kohn-Sham eigenvalues, eigenvectors, occupation numbers, and Fermi level.
  Solving generalized eigenproblem

  Obtaining occupation numbers and chemical potential using ELSI.
  | Chemical potential (Fermi level):    -5.87807269eV
  What follows are estimated values for band gap, HOMO, LUMO, etc.
  | They are estimated on a discrete k-point grid and not necessarily exact.
  | For converged numbers, create a DOS and/or band structure plot on a denser k-grid.

  Highest occupied state (VBM) at     -5.93597689 eV (relative to internal zero)
  | Occupation number:      2.00000000
  | K-point:       1 at    0.000000    0.000000    0.000000 (in units of recip. lattice)

  Lowest unoccupied state (CBM) at    -5.51488749 eV (relative to internal zero)
  | Occupation number:      0.00000000
  | K-point:      30 at    0.000000    0.625000    0.625000 (in units of recip. lattice)

  ESTIMATED overall HOMO-LUMO gap:      0.42108940 eV between HOMO at k-point 1 and LUMO at k-point 30
  | This appears to be an indirect band gap.
  | Smallest direct gap :      2.59555206 eV for k_point 1 at    0.000000    0.625000    0.625000 (in units of recip. lattice)
  The gap value is above 0.2 eV. Unless you are using a very sparse k-point grid,
  this system is most likely an insulator or a semiconductor.

  Total energy components:
  | Sum of eigenvalues            :        -327.59415564 Ha       -8914.29052900 eV
  | XC energy correction          :         -39.77253747 Ha       -1082.26580976 eV
  | XC potential correction       :          52.54550569 Ha        1429.83595908 eV
  | Free-atom electrostatic energy:        -263.09762940 Ha       -7159.25075475 eV
  | Hartree energy correction     :          -0.81588774 Ha         -22.20143494 eV
  | Entropy correction            :          -0.00000000 Ha          -0.00000000 eV
  | ---------------------------
  | Total energy                  :        -578.73470456 Ha      -15748.17256938 eV
  | Total energy, T -> 0          :        -578.73470456 Ha      -15748.17256938 eV  <-- do not rely on this value for anything but (periodic) metals
  | Electronic free energy        :        -578.73470456 Ha      -15748.17256938 eV

  Derived energy quantities:
  | Kinetic energy                :         579.98891950 Ha       15782.30149423 eV
  | Electrostatic energy          :       -1118.95108659 Ha      -30448.20825385 eV
  | Energy correction for multipole
  | error in Hartree potential    :           0.01686744 Ha           0.45898627 eV
  | Sum of eigenvalues per atom                           :       -4457.14526450 eV
  | Total energy (T->0) per atom                          :       -7874.08628469 eV  <-- do not rely on this value for anything but (periodic) metals
  | Electronic free energy per atom                       :       -7874.08628469 eV

  Self-consistency convergence accuracy:
  | Change of charge density      :  0.1541E-01
  | Change of sum of eigenvalues  : -0.3129E+01 eV
  | Change of total energy        :  0.8158E-02 eV

  End self-consistency iteration #     4       :  max(cpu_time)    wall_clock(cpu1)
  | Time for this iteration                    :        2.978 s           2.979 s
  | Charge density update                      :        1.400 s           1.401 s
  | Density mixing & preconditioning           :        0.060 s           0.060 s
  | Hartree multipole update                   :        0.001 s           0.001 s
  | Hartree multipole summation                :        0.584 s           0.584 s
  | Integration                                :        0.777 s           0.778 s
  | Solution of K.-S. eqns.                    :        0.156 s           0.155 s
  | Total energy evaluation                    :        0.000 s           0.000 s

  Partial memory accounting:
  | Current value for overall tracked memory usage on task 0  :           3.799 MB
  | Peak value for overall tracked memory usage on task 0     :           7.144 MB after allocating wave
  | Largest tracked array allocation on task 0 so far         :           2.995 MB  when allocating +KS_eigenvector_complex
  Note:  These values currently only include a subset of arrays which are explicitly tracked.
  The "true" memory usage will be greater.
------------------------------------------------------------

------------------------------------------------------------
          Begin self-consistency iteration #    5

  Date     :  20190513, Time     :  134059.767
------------------------------------------------------------
  Evaluating new KS density using the density matrix
  Evaluating density matrix
  Time summed over all CPUs for getting density from density matrix: real work        1.114 s, elapsed        1.114 s
  Integration grid: deviation in total charge (<rho> - N_e) =   2.842171E-14
  Pulay mixing of updated and previous charge densities.

  Evaluating partitioned Hartree potential by multipole expansion.
  | Analytical far-field extrapolation by fixed multipoles:
  | Hartree multipole sum: apparent total charge =   0.568225E-02
  Summing up the Hartree potential.
  Time summed over all CPUs for potential: real work        0.476 s, elapsed        0.476 s
  | RMS charge density error from multipole expansion :   0.124090E-01
  | Average real-space part of the electrostatic potential :      0.35799226 eV

  Integrating Hamiltonian matrix: batch-based integration.
  Time summed over all CPUs for integration: real work        0.702 s, elapsed        0.702 s

  Updating Kohn-Sham eigenvalues, eigenvectors, occupation numbers, and Fermi level.
  Solving generalized eigenproblem

  Obtaining occupation numbers and chemical potential using ELSI.
  | Chemical potential (Fermi level):    -5.89189935eV
  What follows are estimated values for band gap, HOMO, LUMO, etc.
  | They are estimated on a discrete k-point grid and not necessarily exact.
  | For converged numbers, create a DOS and/or band structure plot on a denser k-grid.

  Highest occupied state (VBM) at     -5.94598803 eV (relative to internal zero)
  | Occupation number:      2.00000000
  | K-point:       1 at    0.000000    0.000000    0.000000 (in units of recip. lattice)

  Lowest unoccupied state (CBM) at    -5.51850532 eV (relative to internal zero)
  | Occupation number:      0.00000000
  | K-point:      30 at    0.000000    0.625000    0.625000 (in units of recip. lattice)

  ESTIMATED overall HOMO-LUMO gap:      0.42748271 eV between HOMO at k-point 1 and LUMO at k-point 30
  | This appears to be an indirect band gap.
  | Smallest direct gap :      2.59953927 eV for k_point 1 at    0.000000    0.625000    0.625000 (in units of recip. lattice)
  The gap value is above 0.2 eV. Unless you are using a very sparse k-point grid,
  this system is most likely an insulator or a semiconductor.

  Total energy components:
  | Sum of eigenvalues            :        -327.63528189 Ha       -8915.40963130 eV
  | XC energy correction          :         -39.76928159 Ha       -1082.17721271 eV
  | XC potential correction       :          52.54119019 Ha        1429.71852832 eV
  | Free-atom electrostatic energy:        -263.09762940 Ha       -7159.25075475 eV
  | Hartree energy correction     :          -0.77365811 Ha         -21.05230828 eV
  | Entropy correction            :          -0.00000000 Ha          -0.00000000 eV
  | ---------------------------
  | Total energy                  :        -578.73466081 Ha      -15748.17137873 eV
  | Total energy, T -> 0          :        -578.73466081 Ha      -15748.17137873 eV  <-- do not rely on this value for anything but (periodic) metals
  | Electronic free energy        :        -578.73466081 Ha      -15748.17137873 eV

  Derived energy quantities:
  | Kinetic energy                :         579.95801262 Ha       15781.46047531 eV
  | Electrostatic energy          :       -1118.92339184 Ha      -30447.45464132 eV
  | Energy correction for multipole
  | error in Hartree potential    :           0.01674374 Ha           0.45562027 eV
  | Sum of eigenvalues per atom                           :       -4457.70481565 eV
  | Total energy (T->0) per atom                          :       -7874.08568936 eV  <-- do not rely on this value for anything but (periodic) metals
  | Electronic free energy per atom                       :       -7874.08568936 eV

  Self-consistency convergence accuracy:
  | Change of charge density      :  0.9532E-02
  | Change of sum of eigenvalues  : -0.1119E+01 eV
  | Change of total energy        :  0.1191E-02 eV

  End self-consistency iteration #     5       :  max(cpu_time)    wall_clock(cpu1)
  | Time for this iteration                    :        2.525 s           2.525 s
  | Charge density update                      :        1.135 s           1.136 s
  | Density mixing & preconditioning           :        0.046 s           0.046 s
  | Hartree multipole update                   :        0.001 s           0.001 s
  | Hartree multipole summation                :        0.480 s           0.479 s
  | Integration                                :        0.702 s           0.702 s
  | Solution of K.-S. eqns.                    :        0.161 s           0.161 s
  | Total energy evaluation                    :        0.000 s           0.000 s

  Partial memory accounting:
  | Current value for overall tracked memory usage on task 0  :           3.799 MB
  | Peak value for overall tracked memory usage on task 0     :           7.144 MB after allocating wave
  | Largest tracked array allocation on task 0 so far         :           2.995 MB  when allocating +KS_eigenvector_complex
  Note:  These values currently only include a subset of arrays which are explicitly tracked.
  The "true" memory usage will be greater.
------------------------------------------------------------

------------------------------------------------------------
          Begin self-consistency iteration #    6

  Date     :  20190513, Time     :  134102.292
------------------------------------------------------------
  Evaluating new KS density using the density matrix
  Evaluating density matrix
  Time summed over all CPUs for getting density from density matrix: real work        1.170 s, elapsed        1.170 s
  Integration grid: deviation in total charge (<rho> - N_e) =   4.973799E-14
  Pulay mixing of updated and previous charge densities.

  Evaluating partitioned Hartree potential by multipole expansion.
  | Analytical far-field extrapolation by fixed multipoles:
  | Hartree multipole sum: apparent total charge =   0.561939E-02
  Summing up the Hartree potential.
  Time summed over all CPUs for potential: real work        0.450 s, elapsed        0.450 s
  | RMS charge density error from multipole expansion :   0.124404E-01
  | Average real-space part of the electrostatic potential :      0.35783845 eV

  Integrating Hamiltonian matrix: batch-based integration.
  Time summed over all CPUs for integration: real work        0.698 s, elapsed        0.698 s

  Updating Kohn-Sham eigenvalues, eigenvectors, occupation numbers, and Fermi level.
  Solving generalized eigenproblem

  Obtaining occupation numbers and chemical potential using ELSI.
  | Chemical potential (Fermi level):    -5.89248486eV
  What follows are estimated values for band gap, HOMO, LUMO, etc.
  | They are estimated on a discrete k-point grid and not necessarily exact.
  | For converged numbers, create a DOS and/or band structure plot on a denser k-grid.

  Highest occupied state (VBM) at     -5.94590908 eV (relative to internal zero)
  | Occupation number:      2.00000000
  | K-point:       1 at    0.000000    0.000000    0.000000 (in units of recip. lattice)

  Lowest unoccupied state (CBM) at    -5.51846070 eV (relative to internal zero)
  | Occupation number:      0.00000000
  | K-point:      30 at    0.000000    0.625000    0.625000 (in units of recip. lattice)

  ESTIMATED overall HOMO-LUMO gap:      0.42744838 eV between HOMO at k-point 1 and LUMO at k-point 30
  | This appears to be an indirect band gap.
  | Smallest direct gap :      2.59933577 eV for k_point 1 at    0.000000    0.625000    0.625000 (in units of recip. lattice)
  The gap value is above 0.2 eV. Unless you are using a very sparse k-point grid,
  this system is most likely an insulator or a semiconductor.

  Total energy components:
  | Sum of eigenvalues            :        -327.64102780 Ha       -8915.56598556 eV
  | XC energy correction          :         -39.76873509 Ha       -1082.16234154 eV
  | XC potential correction       :          52.54046448 Ha        1429.69878085 eV
  | Free-atom electrostatic energy:        -263.09762940 Ha       -7159.25075475 eV
  | Hartree energy correction     :          -0.76772774 Ha         -20.89093462 eV
  | Entropy correction            :          -0.00000000 Ha          -0.00000000 eV
  | ---------------------------
  | Total energy                  :        -578.73465555 Ha      -15748.17123562 eV
  | Total energy, T -> 0          :        -578.73465555 Ha      -15748.17123562 eV  <-- do not rely on this value for anything but (periodic) metals
  | Electronic free energy        :        -578.73465555 Ha      -15748.17123562 eV

  Derived energy quantities:
  | Kinetic energy                :         579.94947957 Ha       15781.22827925 eV
  | Electrostatic energy          :       -1118.91540004 Ha      -30447.23717333 eV
  | Energy correction for multipole
  | error in Hartree potential    :           0.01677505 Ha           0.45647242 eV
  | Sum of eigenvalues per atom                           :       -4457.78299278 eV
  | Total energy (T->0) per atom                          :       -7874.08561781 eV  <-- do not rely on this value for anything but (periodic) metals
  | Electronic free energy per atom                       :       -7874.08561781 eV

  Self-consistency convergence accuracy:
  | Change of charge density      :  0.7633E-02
  | Change of sum of eigenvalues  : -0.1564E+00 eV
  | Change of total energy        :  0.1431E-03 eV

  End self-consistency iteration #     6       :  max(cpu_time)    wall_clock(cpu1)
  | Time for this iteration                    :        2.555 s           2.556 s
  | Charge density update                      :        1.194 s           1.193 s
  | Density mixing & preconditioning           :        0.047 s           0.047 s
  | Hartree multipole update                   :        0.001 s           0.001 s
  | Hartree multipole summation                :        0.453 s           0.453 s
  | Integration                                :        0.698 s           0.698 s
  | Solution of K.-S. eqns.                    :        0.162 s           0.162 s
  | Total energy evaluation                    :        0.000 s           0.000 s

  Partial memory accounting:
  | Current value for overall tracked memory usage on task 0  :           3.799 MB
  | Peak value for overall tracked memory usage on task 0     :           7.144 MB after allocating wave
  | Largest tracked array allocation on task 0 so far         :           2.995 MB  when allocating +KS_eigenvector_complex
  Note:  These values currently only include a subset of arrays which are explicitly tracked.
  The "true" memory usage will be greater.
------------------------------------------------------------

------------------------------------------------------------
          Begin self-consistency iteration #    7

  Date     :  20190513, Time     :  134104.848
------------------------------------------------------------
  Evaluating new KS density using the density matrix
  Evaluating density matrix
  Time summed over all CPUs for getting density from density matrix: real work        1.110 s, elapsed        1.110 s
  Integration grid: deviation in total charge (<rho> - N_e) =  -3.907985E-14
  Pulay mixing of updated and previous charge densities.

  Evaluating partitioned Hartree potential by multipole expansion.
  | Analytical far-field extrapolation by fixed multipoles:
  | Hartree multipole sum: apparent total charge =   0.561683E-02
  Summing up the Hartree potential.
  Time summed over all CPUs for potential: real work        0.516 s, elapsed        0.516 s
  | RMS charge density error from multipole expansion :   0.123944E-01
  | Average real-space part of the electrostatic potential :      0.35250530 eV

  Integrating Hamiltonian matrix: batch-based integration.
  Time summed over all CPUs for integration: real work        0.678 s, elapsed        0.678 s

  Updating Kohn-Sham eigenvalues, eigenvectors, occupation numbers, and Fermi level.
  Solving generalized eigenproblem

  Obtaining occupation numbers and chemical potential using ELSI.
  | Chemical potential (Fermi level):    -5.90117020eV
  What follows are estimated values for band gap, HOMO, LUMO, etc.
  | They are estimated on a discrete k-point grid and not necessarily exact.
  | For converged numbers, create a DOS and/or band structure plot on a denser k-grid.

  Highest occupied state (VBM) at     -5.95242104 eV (relative to internal zero)
  | Occupation number:      2.00000000
  | K-point:       1 at    0.000000    0.000000    0.000000 (in units of recip. lattice)

  Lowest unoccupied state (CBM) at    -5.52055458 eV (relative to internal zero)
  | Occupation number:      0.00000000
  | K-point:      30 at    0.000000    0.625000    0.625000 (in units of recip. lattice)

  ESTIMATED overall HOMO-LUMO gap:      0.43186646 eV between HOMO at k-point 1 and LUMO at k-point 30
  | This appears to be an indirect band gap.
  | Smallest direct gap :      2.60221713 eV for k_point 1 at    0.000000    0.625000    0.625000 (in units of recip. lattice)
  The gap value is above 0.2 eV. Unless you are using a very sparse k-point grid,
  this system is most likely an insulator or a semiconductor.

  Total energy components:
  | Sum of eigenvalues            :        -327.66791309 Ha       -8916.29757142 eV
  | XC energy correction          :         -39.76601783 Ha       -1082.08840120 eV
  | XC potential correction       :          52.53686581 Ha        1429.60085596 eV
  | Free-atom electrostatic energy:        -263.09762940 Ha       -7159.25075475 eV
  | Hartree energy correction     :          -0.73994009 Ha         -20.13479442 eV
  | Entropy correction            :          -0.00000000 Ha          -0.00000000 eV
  | ---------------------------
  | Total energy                  :        -578.73463461 Ha      -15748.17066583 eV
  | Total energy, T -> 0          :        -578.73463461 Ha      -15748.17066583 eV  <-- do not rely on this value for anything but (periodic) metals
  | Electronic free energy        :        -578.73463461 Ha      -15748.17066583 eV

  Derived energy quantities:
  | Kinetic energy                :         579.91708153 Ha       15780.34668375 eV
  | Electrostatic energy          :       -1118.88569831 Ha      -30446.42894838 eV
  | Energy correction for multipole
  | error in Hartree potential    :           0.01667535 Ha           0.45375930 eV
  | Sum of eigenvalues per atom                           :       -4458.14878571 eV
  | Total energy (T->0) per atom                          :       -7874.08533292 eV  <-- do not rely on this value for anything but (periodic) metals
  | Electronic free energy per atom                       :       -7874.08533292 eV

  Self-consistency convergence accuracy:
  | Change of charge density      :  0.7315E-02
  | Change of sum of eigenvalues  : -0.7316E+00 eV
  | Change of total energy        :  0.5698E-03 eV

  End self-consistency iteration #     7       :  max(cpu_time)    wall_clock(cpu1)
  | Time for this iteration                    :        2.560 s           2.560 s
  | Charge density update                      :        1.132 s           1.132 s
  | Density mixing & preconditioning           :        0.047 s           0.046 s
  | Hartree multipole update                   :        0.001 s           0.001 s
  | Hartree multipole summation                :        0.520 s           0.520 s
  | Integration                                :        0.678 s           0.678 s
  | Solution of K.-S. eqns.                    :        0.182 s           0.183 s
  | Total energy evaluation                    :        0.000 s           0.000 s

  Partial memory accounting:
  | Current value for overall tracked memory usage on task 0  :           3.800 MB
  | Peak value for overall tracked memory usage on task 0     :           7.144 MB after allocating wave
  | Largest tracked array allocation on task 0 so far         :           2.995 MB  when allocating +KS_eigenvector_complex
  Note:  These values currently only include a subset of arrays which are explicitly tracked.
  The "true" memory usage will be greater.
------------------------------------------------------------

------------------------------------------------------------
          Begin self-consistency iteration #    8

  Date     :  20190513, Time     :  134107.408
------------------------------------------------------------
  Evaluating new KS density using the density matrix
  Evaluating density matrix
  Time summed over all CPUs for getting density from density matrix: real work        1.417 s, elapsed        1.417 s
  Integration grid: deviation in total charge (<rho> - N_e) =   3.552714E-14
  Pulay mixing of updated and previous charge densities.

  Evaluating partitioned Hartree potential by multipole expansion.
  | Analytical far-field extrapolation by fixed multipoles:
  | Hartree multipole sum: apparent total charge =   0.582615E-02
  Summing up the Hartree potential.
  Time summed over all CPUs for potential: real work        0.441 s, elapsed        0.441 s
  | RMS charge density error from multipole expansion :   0.123446E-01
  | Average real-space part of the electrostatic potential :      0.34408518 eV

  Integrating Hamiltonian matrix: batch-based integration.
  Time summed over all CPUs for integration: real work        0.674 s, elapsed        0.674 s

  Updating Kohn-Sham eigenvalues, eigenvectors, occupation numbers, and Fermi level.
  Solving generalized eigenproblem

  Obtaining occupation numbers and chemical potential using ELSI.
  | Chemical potential (Fermi level):    -5.91340300eV
  What follows are estimated values for band gap, HOMO, LUMO, etc.
  | They are estimated on a discrete k-point grid and not necessarily exact.
  | For converged numbers, create a DOS and/or band structure plot on a denser k-grid.

  Highest occupied state (VBM) at     -5.96143075 eV (relative to internal zero)
  | Occupation number:      2.00000000
  | K-point:       1 at    0.000000    0.000000    0.000000 (in units of recip. lattice)

  Lowest unoccupied state (CBM) at    -5.52333209 eV (relative to internal zero)
  | Occupation number:      0.00000000
  | K-point:      30 at    0.000000    0.625000    0.625000 (in units of recip. lattice)

  ESTIMATED overall HOMO-LUMO gap:      0.43809866 eV between HOMO at k-point 1 and LUMO at k-point 30
  | This appears to be an indirect band gap.
  | Smallest direct gap :      2.60618646 eV for k_point 1 at    0.000000    0.625000    0.625000 (in units of recip. lattice)
  The gap value is above 0.2 eV. Unless you are using a very sparse k-point grid,
  this system is most likely an insulator or a semiconductor.

  Total energy components:
  | Sum of eigenvalues            :        -327.70777969 Ha       -8917.38239677 eV
  | XC energy correction          :         -39.76192266 Ha       -1081.97696595 eV
  | XC potential correction       :          52.53144278 Ha        1429.45328777 eV
  | Free-atom electrostatic energy:        -263.09762940 Ha       -7159.25075475 eV
  | Hartree energy correction     :          -0.69872035 Ha         -19.01314815 eV
  | Entropy correction            :          -0.00000000 Ha          -0.00000000 eV
  | ---------------------------
  | Total energy                  :        -578.73460933 Ha      -15748.16997785 eV
  | Total energy, T -> 0          :        -578.73460933 Ha      -15748.16997785 eV  <-- do not rely on this value for anything but (periodic) metals
  | Electronic free energy        :        -578.73460933 Ha      -15748.16997785 eV

  Derived energy quantities:
  | Kinetic energy                :         579.86749624 Ha       15778.99739932 eV
  | Electrostatic energy          :       -1118.84018291 Ha      -30445.19041122 eV
  | Energy correction for multipole
  | error in Hartree potential    :           0.01655315 Ha           0.45043408 eV
  | Sum of eigenvalues per atom                           :       -4458.69119839 eV
  | Total energy (T->0) per atom                          :       -7874.08498893 eV  <-- do not rely on this value for anything but (periodic) metals
  | Electronic free energy per atom                       :       -7874.08498893 eV

  Self-consistency convergence accuracy:
  | Change of charge density      :  0.5644E-02
  | Change of sum of eigenvalues  : -0.1085E+01 eV
  | Change of total energy        :  0.6880E-03 eV

  End self-consistency iteration #     8       :  max(cpu_time)    wall_clock(cpu1)
  | Time for this iteration                    :        2.757 s           2.759 s
  | Charge density update                      :        1.439 s           1.440 s
  | Density mixing & preconditioning           :        0.045 s           0.045 s
  | Hartree multipole update                   :        0.001 s           0.001 s
  | Hartree multipole summation                :        0.444 s           0.444 s
  | Integration                                :        0.674 s           0.674 s
  | Solution of K.-S. eqns.                    :        0.154 s           0.154 s
  | Total energy evaluation                    :        0.000 s           0.000 s

  Partial memory accounting:
  | Current value for overall tracked memory usage on task 0  :           3.800 MB
  | Peak value for overall tracked memory usage on task 0     :           7.144 MB after allocating wave
  | Largest tracked array allocation on task 0 so far         :           2.995 MB  when allocating +KS_eigenvector_complex
  Note:  These values currently only include a subset of arrays which are explicitly tracked.
  The "true" memory usage will be greater.
------------------------------------------------------------

------------------------------------------------------------
          Begin self-consistency iteration #    9

  Date     :  20190513, Time     :  134110.167
------------------------------------------------------------
  Evaluating new KS density using the density matrix
  Evaluating density matrix
  Time summed over all CPUs for getting density from density matrix: real work        1.105 s, elapsed        1.105 s
  Integration grid: deviation in total charge (<rho> - N_e) =  -1.350031E-13
  Pulay mixing of updated and previous charge densities.

  Evaluating partitioned Hartree potential by multipole expansion.
  | Analytical far-field extrapolation by fixed multipoles:
  | Hartree multipole sum: apparent total charge =   0.584979E-02
  Summing up the Hartree potential.
  Time summed over all CPUs for potential: real work        0.437 s, elapsed        0.437 s
  | RMS charge density error from multipole expansion :   0.123272E-01
  | Average real-space part of the electrostatic potential :      0.34186400 eV

  Integrating Hamiltonian matrix: batch-based integration.
  Time summed over all CPUs for integration: real work        0.666 s, elapsed        0.666 s

  Updating Kohn-Sham eigenvalues, eigenvectors, occupation numbers, and Fermi level.
  Solving generalized eigenproblem

  Obtaining occupation numbers and chemical potential using ELSI.
  | Chemical potential (Fermi level):    -5.69859445eV
  What follows are estimated values for band gap, HOMO, LUMO, etc.
  | They are estimated on a discrete k-point grid and not necessarily exact.
  | For converged numbers, create a DOS and/or band structure plot on a denser k-grid.

  Highest occupied state (VBM) at     -5.96399839 eV (relative to internal zero)
  | Occupation number:      2.00000000
  | K-point:       1 at    0.000000    0.000000    0.000000 (in units of recip. lattice)

  Lowest unoccupied state (CBM) at    -5.52414332 eV (relative to internal zero)
  | Occupation number:      0.00000000
  | K-point:      30 at    0.000000    0.625000    0.625000 (in units of recip. lattice)

  ESTIMATED overall HOMO-LUMO gap:      0.43985507 eV between HOMO at k-point 1 and LUMO at k-point 30
  | This appears to be an indirect band gap.
  | Smallest direct gap :      2.60732512 eV for k_point 1 at    0.000000    0.625000    0.625000 (in units of recip. lattice)
  The gap value is above 0.2 eV. Unless you are using a very sparse k-point grid,
  this system is most likely an insulator or a semiconductor.

  Total energy components:
  | Sum of eigenvalues            :        -327.71855541 Ha       -8917.67561915 eV
  | XC energy correction          :         -39.76082459 Ha       -1081.94708601 eV
  | XC potential correction       :          52.52998857 Ha        1429.41371674 eV
  | Free-atom electrostatic energy:        -263.09762940 Ha       -7159.25075475 eV
  | Hartree energy correction     :          -0.68758307 Ha         -18.71008728 eV
  | Entropy correction            :          -0.00000000 Ha          -0.00000000 eV
  | ---------------------------
  | Total energy                  :        -578.73460391 Ha      -15748.16983045 eV
  | Total energy, T -> 0          :        -578.73460391 Ha      -15748.16983045 eV  <-- do not rely on this value for anything but (periodic) metals
  | Electronic free energy        :        -578.73460391 Ha      -15748.16983045 eV

  Derived energy quantities:
[...]
  | Total energy evaluation                    :        0.000 s           0.000 s

  Partial memory accounting:
  | Current value for overall tracked memory usage on task 0  :           3.800 MB
  | Peak value for overall tracked memory usage on task 0     :           7.144 MB after allocating wave
  | Largest tracked array allocation on task 0 so far         :           2.995 MB  when allocating +KS_eigenvector_complex
  Note:  These values currently only include a subset of arrays which are explicitly tracked.
  The "true" memory usage will be greater.
------------------------------------------------------------

------------------------------------------------------------
          Begin self-consistency iteration #   11

  Date     :  20190513, Time     :  134115.023
------------------------------------------------------------
  Evaluating new KS density using the density matrix
  Evaluating density matrix
  Time summed over all CPUs for getting density from density matrix: real work        1.269 s, elapsed        1.269 s
  Integration grid: deviation in total charge (<rho> - N_e) =  -1.421085E-14
  Pulay mixing of updated and previous charge densities.

  Evaluating partitioned Hartree potential by multipole expansion.
  | Analytical far-field extrapolation by fixed multipoles:
  | Hartree multipole sum: apparent total charge =   0.582943E-02
  Summing up the Hartree potential.
  Time summed over all CPUs for potential: real work        0.474 s, elapsed        0.474 s
  | RMS charge density error from multipole expansion :   0.122774E-01
  | Average real-space part of the electrostatic potential :      0.33444976 eV

  Integrating Hamiltonian matrix: batch-based integration.
  Time summed over all CPUs for integration: real work        0.683 s, elapsed        0.683 s

  Updating Kohn-Sham eigenvalues, eigenvectors, occupation numbers, and Fermi level.
  Solving generalized eigenproblem

  Obtaining occupation numbers and chemical potential using ELSI.
  | Chemical potential (Fermi level):    -5.71050731eV
  What follows are estimated values for band gap, HOMO, LUMO, etc.
  | They are estimated on a discrete k-point grid and not necessarily exact.
  | For converged numbers, create a DOS and/or band structure plot on a denser k-grid.

  Highest occupied state (VBM) at     -5.97281161 eV (relative to internal zero)
  | Occupation number:      2.00000000
  | K-point:       1 at    0.000000    0.000000    0.000000 (in units of recip. lattice)

  Lowest unoccupied state (CBM) at    -5.52694446 eV (relative to internal zero)
  | Occupation number:      0.00000000
  | K-point:      30 at    0.000000    0.625000    0.625000 (in units of recip. lattice)

  ESTIMATED overall HOMO-LUMO gap:      0.44586715 eV between HOMO at k-point 1 and LUMO at k-point 30
  | This appears to be an indirect band gap.
  | Smallest direct gap :      2.61116515 eV for k_point 1 at    0.000000    0.625000    0.625000 (in units of recip. lattice)
  The gap value is above 0.2 eV. Unless you are using a very sparse k-point grid,
  this system is most likely an insulator or a semiconductor.

  Total energy components:
  | Sum of eigenvalues            :        -327.75719489 Ha       -8918.72705285 eV
  | XC energy correction          :         -39.75694124 Ha       -1081.84141453 eV
  | XC potential correction       :          52.52484456 Ha        1429.27374103 eV
  | Free-atom electrostatic energy:        -263.09762940 Ha       -7159.25075475 eV
  | Hartree energy correction     :          -0.64766751 Ha         -17.62392974 eV
  | Entropy correction            :          -0.00000000 Ha          -0.00000000 eV
  | ---------------------------
  | Total energy                  :        -578.73458849 Ha      -15748.16941084 eV
  | Total energy, T -> 0          :        -578.73458849 Ha      -15748.16941084 eV  <-- do not rely on this value for anything but (periodic) metals
  | Electronic free energy        :        -578.73458849 Ha      -15748.16941084 eV

  Derived energy quantities:
  | Kinetic energy                :         579.80635914 Ha       15777.33377407 eV
  | Electrostatic energy          :       -1118.78400639 Ha      -30443.66177038 eV
  | Energy correction for multipole
  | error in Hartree potential    :           0.01639268 Ha           0.44606747 eV
  | Sum of eigenvalues per atom                           :       -4459.36352643 eV
  | Total energy (T->0) per atom                          :       -7874.08470542 eV  <-- do not rely on this value for anything but (periodic) metals
  | Electronic free energy per atom                       :       -7874.08470542 eV

  Self-consistency convergence accuracy:
  | Change of charge density      :  0.1655E-05
  | Change of sum of eigenvalues  : -0.5648E-03 eV
  | Change of total energy        :  0.3794E-06 eV

  End self-consistency iteration #    11       :  max(cpu_time)    wall_clock(cpu1)
  | Time for this iteration                    :        2.663 s           2.664 s
  | Charge density update                      :        1.290 s           1.290 s
  | Density mixing & preconditioning           :        0.055 s           0.055 s
  | Hartree multipole update                   :        0.001 s           0.001 s
  | Hartree multipole summation                :        0.479 s           0.479 s
  | Integration                                :        0.683 s           0.683 s
  | Solution of K.-S. eqns.                    :        0.155 s           0.155 s
  | Total energy evaluation                    :        0.000 s           0.000 s

  Partial memory accounting:
  | Current value for overall tracked memory usage on task 0  :           3.800 MB
  | Peak value for overall tracked memory usage on task 0     :           7.144 MB after allocating wave
  | Largest tracked array allocation on task 0 so far         :           2.995 MB  when allocating +KS_eigenvector_complex
  Note:  These values currently only include a subset of arrays which are explicitly tracked.
  The "true" memory usage will be greater.
------------------------------------------------------------

------------------------------------------------------------
          Begin self-consistency iteration #   12

  Date     :  20190513, Time     :  134117.687
------------------------------------------------------------
  Evaluating new KS density using the density matrix
  Evaluating density matrix
  Time summed over all CPUs for getting density from density matrix: real work        1.112 s, elapsed        1.112 s
  Integration grid: deviation in total charge (<rho> - N_e) =   0.000000E+00
  Pulay mixing of updated and previous charge densities.

  Evaluating partitioned Hartree potential by multipole expansion.
  | Analytical far-field extrapolation by fixed multipoles:
  | Hartree multipole sum: apparent total charge =   0.582963E-02
  Summing up the Hartree potential.
  Time summed over all CPUs for potential: real work        0.431 s, elapsed        0.431 s
  | RMS charge density error from multipole expansion :   0.122773E-01
  | Average real-space part of the electrostatic potential :      0.33444819 eV

  Integrating Hamiltonian matrix: batch-based integration.
  Time summed over all CPUs for integration: real work        0.667 s, elapsed        0.667 s

  Updating Kohn-Sham eigenvalues, eigenvectors, occupation numbers, and Fermi level.
  Solving generalized eigenproblem

  Obtaining occupation numbers and chemical potential using ELSI.
  | Chemical potential (Fermi level):    -5.71050912eV
  What follows are estimated values for band gap, HOMO, LUMO, etc.
  | They are estimated on a discrete k-point grid and not necessarily exact.
  | For converged numbers, create a DOS and/or band structure plot on a denser k-grid.

  Highest occupied state (VBM) at     -5.97281256 eV (relative to internal zero)
  | Occupation number:      2.00000000
  | K-point:       1 at    0.000000    0.000000    0.000000 (in units of recip. lattice)

  Lowest unoccupied state (CBM) at    -5.52694496 eV (relative to internal zero)
  | Occupation number:      0.00000000
  | K-point:      30 at    0.000000    0.625000    0.625000 (in units of recip. lattice)

  ESTIMATED overall HOMO-LUMO gap:      0.44586760 eV between HOMO at k-point 1 and LUMO at k-point 30
  | This appears to be an indirect band gap.
  | Smallest direct gap :      2.61116562 eV for k_point 1 at    0.000000    0.625000    0.625000 (in units of recip. lattice)
  The gap value is above 0.2 eV. Unless you are using a very sparse k-point grid,
  this system is most likely an insulator or a semiconductor.

  Total energy components:
  | Sum of eigenvalues            :        -327.75720417 Ha       -8918.72730537 eV
  | XC energy correction          :         -39.75693987 Ha       -1081.84137734 eV
  | XC potential correction       :          52.52484275 Ha        1429.27369175 eV
  | Free-atom electrostatic energy:        -263.09762940 Ha       -7159.25075475 eV
  | Hartree energy correction     :          -0.64765779 Ha         -17.62366521 eV
  | Entropy correction            :          -0.00000000 Ha          -0.00000000 eV
  | ---------------------------
  | Total energy                  :        -578.73458849 Ha      -15748.16941092 eV
  | Total energy, T -> 0          :        -578.73458849 Ha      -15748.16941092 eV  <-- do not rely on this value for anything but (periodic) metals
  | Electronic free energy        :        -578.73458849 Ha      -15748.16941092 eV

  Derived energy quantities:
  | Kinetic energy                :         579.80634320 Ha       15777.33334048 eV
  | Electrostatic energy          :       -1118.78399183 Ha      -30443.66137406 eV
  | Energy correction for multipole
  | error in Hartree potential    :           0.01639261 Ha           0.44606549 eV
  | Sum of eigenvalues per atom                           :       -4459.36365268 eV
  | Total energy (T->0) per atom                          :       -7874.08470546 eV  <-- do not rely on this value for anything but (periodic) metals
  | Electronic free energy per atom                       :       -7874.08470546 eV

  Self-consistency convergence accuracy:
  | Change of charge density      :  0.9479E-06
  | Change of sum of eigenvalues  : -0.2525E-03 eV
  | Change of total energy        : -0.8482E-07 eV

  Preliminary charge convergence reached. Turning off preconditioner.

  Writing Kohn-Sham eigenvalues.
  K-point:       1 at    0.000000    0.000000    0.000000 (in units of recip. lattice)

  State    Occupation    Eigenvalue [Ha]    Eigenvalue [eV]
      1       2.00000         -65.485950        -1781.96336
      2       2.00000         -65.485950        -1781.96336
      3       2.00000          -5.096771         -138.69019
      4       2.00000          -5.096345         -138.67859
      5       2.00000          -3.510024          -95.51262
      6       2.00000          -3.510024          -95.51262
      7       2.00000          -3.510024          -95.51262
      8       2.00000          -3.509175          -95.48952
      9       2.00000          -3.509175          -95.48952
     10       2.00000          -3.509175          -95.48952
     11       2.00000          -0.678102          -18.45209
     12       2.00000          -0.219497           -5.97281
     13       2.00000          -0.219497           -5.97281
     14       2.00000          -0.219497           -5.97281
     15       0.00000          -0.123538           -3.36165
     16       0.00000          -0.123538           -3.36165
     17       0.00000          -0.123538           -3.36165
     18       0.00000          -0.064110           -1.74452
     19       0.00000           0.070776            1.92590
     20       0.00000           0.070776            1.92590

  What follows are estimated values for band gap, HOMO, LUMO, etc.
  | They are estimated on a discrete k-point grid and not necessarily exact.
  | For converged numbers, create a DOS and/or band structure plot on a denser k-grid.

  Highest occupied state (VBM) at     -5.97281256 eV (relative to internal zero)
  | Occupation number:      2.00000000
  | K-point:       1 at    0.000000    0.000000    0.000000 (in units of recip. lattice)

  Lowest unoccupied state (CBM) at    -5.52694496 eV (relative to internal zero)
  | Occupation number:      0.00000000
  | K-point:      30 at    0.000000    0.625000    0.625000 (in units of recip. lattice)

  ESTIMATED overall HOMO-LUMO gap:      0.44586760 eV between HOMO at k-point 1 and LUMO at k-point 30
  | This appears to be an indirect band gap.
  | Smallest direct gap :      2.61116562 eV for k_point 1 at    0.000000    0.625000    0.625000 (in units of recip. lattice)
  The gap value is above 0.2 eV. Unless you are using a very sparse k-point grid,
  this system is most likely an insulator or a semiconductor.

  Self-consistency cycle converged.

  End self-consistency iteration #    12       :  max(cpu_time)    wall_clock(cpu1)
  | Time for this iteration                    :        2.465 s           2.465 s
  | Charge density update                      :        1.140 s           1.139 s
  | Density mixing                             :        0.044 s           0.045 s
  | Hartree multipole update                   :        0.001 s           0.000 s
  | Hartree multipole summation                :        0.434 s           0.435 s
  | Integration                                :        0.667 s           0.667 s
  | Solution of K.-S. eqns.                    :        0.179 s           0.179 s
  | Total energy evaluation                    :        0.000 s           0.000 s

  Partial memory accounting:
  | Current value for overall tracked memory usage on task 0  :           3.800 MB
  | Peak value for overall tracked memory usage on task 0     :           7.144 MB after allocating wave
  | Largest tracked array allocation on task 0 so far         :           2.995 MB  when allocating +KS_eigenvector_complex
  Note:  These values currently only include a subset of arrays which are explicitly tracked.
  The "true" memory usage will be greater.
------------------------------------------------------------

  Energy and forces in a compact form:
  | Total energy uncorrected      :         -0.157481694109216E+05 eV
  | Total energy corrected        :         -0.157481694109216E+05 eV  <-- do not rely on this value for anything but (periodic) metals
  | Electronic free energy        :         -0.157481694109216E+05 eV

  ------------------------------------ 
  Start decomposition of the XC Energy 
  ------------------------------------ 
  X and C from original XC functional choice 
  Hartree-Fock Energy :          0.000000000 Ha              0.000000000 eV
  X Energy            :        -37.608154769 Ha          -1023.369959753 eV
  C Energy            :         -2.148785101 Ha            -58.471417587 eV
  Total XC Energy     :        -39.756939870 Ha          -1081.841377340 eV
  ------------------------------------ 
  LDA X and C from self-consistent density 
  X Energy LDA        :        -37.608154769 Ha          -1023.369959753 eV
  C Energy LDA        :         -2.148785101 Ha            -58.471417587 eV
  ------------------------------------ 
  End decomposition of the XC Energy 
  ------------------------------------ 

------------------------------------------------------------

------------------------------------------------------------------------------
  Final output of selected total energy values:

  The following output summarizes some interesting total energy values
  at the end of a run (AFTER all relaxation, molecular dynamics, etc.).

  | Total energy of the DFT / Hartree-Fock s.c.f. calculation      :         -15748.169410922 eV
  | Final zero-broadening corrected energy (caution - metals only) :         -15748.169410922 eV
  | For reference only, the value of 1 Hartree used in FHI-aims is :             27.211384500 eV

  Before relying on these values, please be sure to understand exactly which
  total energy value is referred to by a given number. Different objects may
  all carry the same name 'total energy'. Definitions:

  Total energy of the DFT / Hartree-Fock s.c.f. calculation:
  | Note that this energy does not include ANY quantities calculated after the
  | s.c.f. cycle, in particular not ANY RPA, MP2, etc. many-body perturbation terms.

  Final zero-broadening corrected energy:
  | For metallic systems only, a broadening of the occupation numbers at the Fermi
  | level can be extrapolated back to zero broadening by an electron-gas inspired
  | formula. For all systems that are not real metals, this value can be
  | meaningless and should be avoided.

------------------------------------------------------------------------------
  Methods described in the following list of references were used in this FHI-aims run.
  If you publish the results, please make sure to cite these reference if they apply.
  FHI-aims is an academic code, and for our developers (often, Ph.D. students
  and postdocs), scientific credit in the community is essential.
  Thank you for helping us!

  For any use of FHI-aims, please cite:

    Volker Blum, Ralf Gehrke, Felix Hanke, Paula Havu, Ville Havu,
    Xinguo Ren, Karsten Reuter, and Matthias Scheffler
    'Ab initio molecular simulations with numeric atom-centered orbitals'
    Computer Physics Communications 180, 2175-2196 (2009)
    http://dx.doi.org/10.1016/j.cpc.2009.06.022


  For the real-space grid partitioning and parallelization used in this calculation, please cite:

    Ville Havu, Volker Blum, Paula Havu, and Matthias Scheffler,
    'Efficient O(N) integration for all-electron electronic structure calculation'
    'using numerically tabulated basis functions'
    Journal of Computational Physics 228, 8367-8379 (2009).
    http://dx.doi.org/10.1016/j.jcp.2009.08.008

  Of course, there are many other important community references, e.g., those cited in the
  above references. Our list is limited to references that describe implementations in the
  FHI-aims code. The reason is purely practical (length of this list) - please credit others as well.

------------------------------------------------------------
          Leaving FHI-aims.
          Date     :  20190513, Time     :  134120.160

          Computational steps:
          | Number of self-consistency cycles          :           12
          | Number of SCF (re)initializations          :            1

          Detailed time accounting                     :  max(cpu_time)    wall_clock(cpu1)
          | Total time                                 :       32.759 s          32.764 s
          | Preparation time                           :        0.116 s           0.116 s
          | Boundary condition initalization           :        0.040 s           0.040 s
          | Grid partitioning                          :        0.036 s           0.036 s
          | Preloading free-atom quantities on grid    :        0.001 s           0.000 s
          | Free-atom superposition energy             :        0.031 s           0.031 s
          | Total time for integrations                :        9.437 s           9.440 s
          | Total time for solution of K.-S. equations :        2.235 s           2.234 s
          | Total time for density update              :       14.483 s          14.486 s
          | Total time for mixing & preconditioning    :        0.577 s           0.578 s
          | Total time for Hartree multipole update    :        0.010 s           0.011 s
          | Total time for Hartree multipole sum       :        5.575 s           5.573 s
          | Total time for total energy evaluation     :        0.002 s           0.001 s
          | Total time for scaled ZORA corrections     :        0.000 s           0.000 s

 This is a stub MPI_ALLREDUCE call.
 You should not be here. Check your
 setting on the use_mpi variable, or
 link against true MPI-libraries.
