------------------------------------------------------------
          Invoking FHI-aims ...
          Version 171221_1
          Compiled on 2019/05/06 at 14:26:40 on host ffph0xx.

          When using FHI-aims, please cite the following reference:

          Volker Blum, Ralf Gehrke, Felix Hanke, Paula Havu,
          Ville Havu, Xinguo Ren, Karsten Reuter, and Matthias Scheffler,
          'Ab Initio Molecular Simulations with Numeric Atom-Centered Orbitals',
          Computer Physics Communications 180, 2175-2196 (2009)

          For any questions about FHI-aims, please visit the aimsclub website
          with its forums and wiki. Contributions to both the forums and the
          wiki are warmly encouraged - they are for you, and everyone is welcome there.

------------------------------------------------------------



  Date     :  20190514, Time     :  110834.095
  Time zero on CPU 1             :   0.378600000000000E-02  s.
  Internal wall clock time zero  :           327064114.095  s.

  FHI-aims created a unique identifier for this run for later identification
  aims_uuid : 272115EB-05D0-4BAF-A69A-E3F6F3A636DE


  Performing system and environment tests:
  *** Environment variable OMP_NUM_THREADS is not set
  *** For performance reasons you might want to set it to 1
  | Stacksize not measured: no C compiler

  Obtaining array dimensions for all initial allocations:
  
  -----------------------------------------------------------------------
  Parsing control.in (first pass over file, find array dimensions only).
  The contents of control.in will be repeated verbatim below
  unless switched off by setting 'verbatim_writeout .false.' .
  in the first line of control.in .
  -----------------------------------------------------------------------
  
  #--- method ---
  xc pw-lda
  spin collinear
  relativistic atomic_zora scalar
  
  default_initial_moment hund # init magnetic moment
  #---
  
  
  
  
  
  
  #-------------------------------------------------------------------------------
  #--- Species defaults for Si, but edited regarding number of functions and cutoff
  #-------------------------------------------------------------------------------
  
  ################################################################################
  #
  #  FHI-aims code project
  #  VB, Fritz-Haber Institut, 2009
  #
  #  Suggested "light" defaults for Si atom (to be pasted into control.in file)
  #  Be sure to double-check any results obtained with these settings for post-processing,
  #  e.g., with the "tight" defaults and larger basis sets.
  #
  ################################################################################
    species        Si
  #     global species definitions
      nucleus             14
      mass                28.0855
  #
      l_hartree           4
  #
      cut_pot             8.0  3.0  1.0
      basis_dep_cutoff    0.0
  #
      radial_base         42 5.0
      radial_multiplier   1
      angular_grids       specified
        division   0.5866   50
        division   0.9616  110
        division   1.2249  194
        division   1.3795  302
  #      division   1.4810  434
  #      division   1.5529  590
  #      division   1.6284  770
  #      division   1.7077  974
  #      division   2.4068 1202
  #      outer_grid   974
        outer_grid 302
  ################################################################################
  #
  #  Definition of "minimal" basis
  #
  ################################################################################
  #     valence basis states
      valence      3  s   2.
      valence      3  p   2.
  #     ion occupancy
      ion_occ      3  s   1.
      ion_occ      3  p   1.
  ################################################################################
  #
  #  Suggested additional basis functions. For production calculations,
  #  uncomment them one after another (the most important basis functions are
  #  listed first).
  #
  #  Constructed for dimers: 1.75 A, 2.0 A, 2.25 A, 2.75 A, 3.75 A
  #
  ################################################################################
  #  "First tier" - improvements: -571.96 meV to -37.03 meV
       hydro 3 d 4.2
       hydro 2 p 1.4
       hydro 4 f 6.2
       ionic 3 s auto
  #  "Second tier" - improvements: -16.76 meV to -3.03 meV
       hydro 3 d 9
       hydro 5 g 9.4
       hydro 4 p 4
       hydro 1 s 0.65
  #  "Third tier" - improvements: -3.89 meV to -0.60 meV
       ionic 3 d auto
       hydro 3 s 2.6
       hydro 4 f 8.4
       hydro 3 d 3.4
       hydro 3 p 7.8
  #  "Fourth tier" - improvements: -0.33 meV to -0.11 meV
  #     hydro 2 p 1.6
  #     hydro 5 g 10.8
  #     hydro 5 f 11.2
  #     hydro 3 d 1
  #     hydro 4 s 4.5
  #  Further basis functions that fell out of the optimization - noise
  #  level... < -0.08 meV
  #     hydro 4 d 6.6
  #     hydro 5 g 16.4
  #     hydro 4 d 9
  
  -----------------------------------------------------------------------
  Completed first pass over input file control.in .
  -----------------------------------------------------------------------
  
  
  -----------------------------------------------------------------------
  Parsing geometry.in (first pass over file, find array dimensions only).
  The contents of geometry.in will be repeated verbatim below
  unless switched off by setting 'verbatim_writeout .false.' .
  in the first line of geometry.in .
  -----------------------------------------------------------------------
  
  # Si free atom
  
  atom 0.0 0.0 0.0 Si
  
  -----------------------------------------------------------------------
  Completed first pass over input file geometry.in .
  -----------------------------------------------------------------------
  

  Basic array size parameters:
  | Number of species                 :        1
  | Number of atoms                   :        1
  | Max. basis fn. angular momentum   :        4
  | Max. atomic/ionic basis occupied n:        3
  | Max. number of basis fn. types    :        3
  | Max. radial fns per species/type  :       11
  | Max. logarithmic grid size        :     1346
  | Max. radial integration grid size :       42
  | Max. angular integration grid size:      302
  | Max. angular grid division number :        8
  | Radial grid for Hartree potential :     1346
  | Number of spin channels           :        2

------------------------------------------------------------
          Reading file control.in.
------------------------------------------------------------
  XC: Using Perdew-Wang parametrisation of Ceperley-Alder LDA.
  Spin treatment: Spin density functional theory - collinear spins.
  Scalar relativistic treatment of kinetic energy: on-site free-atom approximation to ZORA.
  Initial spin moment per atom set according to Hund's rules.

  Reading configuration options for species Si                  .
  | Found nuclear charge :  14.0000
  | Found atomic mass :    28.085500000000000      amu
  | Found l_max for Hartree potential  :   4
  | Found cutoff potl. onset [A], width [A], scale factor :    8.00000    3.00000    1.00000
  | Threshold for basis-dependent cutoff potential is   0.000000E+00
  | Found data for basic radial integration grid :    42 points, outermost radius =    5.000 A
  | Found multiplier for basic radial grid :   1
  | Found angular grid specification: user-specified.
  | Specified grid contains     5 separate shells.
  | Check grid settings after all constraints further below.
  | Found free-atom valence shell :  3 s   2.000
  | Found free-atom valence shell :  3 p   2.000
  | Found free-ion valence shell :  3 s   1.000
  | Found free-ion valence shell :  3 p   1.000
  | Found hydrogenic basis function :  3 d   4.200
  | Found hydrogenic basis function :  2 p   1.400
  | Found hydrogenic basis function :  4 f   6.200
  | Found ionic basis function :  3 s , default cutoff radius.
  | Found hydrogenic basis function :  3 d   9.000
  | Found hydrogenic basis function :  5 g   9.400
  | Found hydrogenic basis function :  4 p   4.000
  | Found hydrogenic basis function :  1 s   0.650
  | Found ionic basis function :  3 d , default cutoff radius.
  | Found hydrogenic basis function :  3 s   2.600
  | Found hydrogenic basis function :  4 f   8.400
  | Found hydrogenic basis function :  3 d   3.400
  | Found hydrogenic basis function :  3 p   7.800
  Species Si                  : Missing cutoff potential type.
  Defaulting to exp(1/x)/(1-x)^2 type cutoff potential.
  Species Si: No 'logarithmic' tag. Using default grid for free atom:
  | Default logarithmic grid data [bohr] : 0.1000E-03 0.1000E+03 0.1012E+01
  | Will include ionic basis functions of  2.0-fold positive Si                   ion.
  Species Si: On-site basis accuracy parameter (for Gram-Schmidt orthonormalisation) not specified.
  Using default value basis_acc =  0.1000000E-03.
  Species Si                  : Using default innermost maximum threshold i_radial=  2 for radial functions.
  Species Si                  : Default cutoff onset for free atom density etc. : 0.80000000E+01 AA.
  Species Si                  : Basic radial grid will be enhanced according to radial_multiplier =   1, to contain    42 grid points.

  Finished reading input file 'control.in'. Consistency checks are next.

  MPI_IN_PLACE appears to work with this MPI implementation.
  | Keeping use_mpi_in_place .true. (see manual).
  Target number of points in a grid batch is not set. Defaulting to  100
  Method for grid partitioning is not set. Defaulting to 'maxmin' partitioning.
  Batch size limit is not set. Defaulting to    200
  By default, will store active basis functions for each batch.
  If in need of memory, prune_basis_once .false. can be used to disable this option.
  communication_type for Hartree potential was not specified.
  Defaulting to calc_hartree .
 * Attention: 
 * You may want to set distributed_spline_storage to .true. in order to save memory.
 * This doesn't harm performance and is perfectly ok unless:
 * - you get error messages in postprocessing (about missing atoms in get_rho_multipole_spl)
 * - you need full spline storage in hirshfeld_analysis
  Defaulting to Pulay charge density mixer.
  Pulay mixer: Number of relevant iterations not set.
  Defaulting to    8 iterations.
  Pulay mixer: Number of initial linear mixing iterations not set.
  Defaulting to    0 iterations.
  Work space size for distributed Hartree potential not set.
  Defaulting to   0.200000E+03 MB.
  Mixing parameter for charge density mixing has not been set.
  Using default: charge_mix_param =     0.0500.
  The mixing parameter will be adjusted in iteration number     2 of the first full s.c.f. cycle only.
  Mixing parameter for spin density mixing has not been set.
  Using charge_mix_param as default:     0.0500.
  Algorithm-dependent basis array size parameters:
  | n_max_pulay                         :        8
 * Notice: The s.c.f. convergence criterion sc_accuracy_rho was not provided.
 * We used to stop in this case, and ask the user to provide reasonable
 * scf convergence criteria. However, this led some users to employ criteria
 * that led to extremely long run times, e.g., for simple relaxation.
 * We now preset a default value for sc_accuracy_rho if it is not set.
 * You may still wish to check if this setting is too tight or too loose for your needs.
 * Based on n_atoms, FHI-aims chose sc_accuracy_rho =  0.100000E-05 .
  Maximum number of self-consistency iterations not provided.
  Presetting  1000 iterations.
  Presetting      1001 iterations before the initial mixing cycle
  is restarted anyway using the sc_init_iter criterion / keyword.
  Presetting a factor      1.000 between actual scf density residual
  and density convergence criterion sc_accuracy_rho below which sc_init_iter
  takes no effect.
 * No s.c.f. convergence criteria (sc_accuracy_*) were provided in control.in.
 * The run will proceed with a reasonable default guess, but please check whether.
 * the s.c.f. cycles seem to take too much or too little time.
  Calculation of forces was not defined in control.in. No forces will be calculated.
  Geometry relaxation not requested: no relaxation will be performed.
  No accuracy limit for integral partition fn. given. Defaulting to  0.1000E-14.
  No threshold value for u(r) in integrations given. Defaulting to  0.1000E-05.
  No occupation type (smearing scheme) given. Defaulting to Gaussian broadening, width =  0.1000E-01 eV.
  The width will be adjusted in iteration number     2 of the first full s.c.f. cycle only.
  S.C.F. convergence parameters will be adjusted in iteration number     2 of the first full s.c.f. cycle only.
  No accuracy for occupation numbers given. Defaulting to  0.1000E-12.
  No threshold value for occupation numbers given. Defaulting to  0.0000E+00.
  No accuracy for fermi level given. Defaulting to  0.1000E-19.
  Maximum # of iterations to find E_F not set. Defaulting to  200.
  Preferred method for the eigenvalue solver ('KS_method') not specified in 'control.in'.
  Defaulting to serial version, 'lapack_fast'.
  Will not use alltoall communication since running on < 1024 CPUs.
  Threshold for basis singularities not set.
  Default threshold for basis singularities:  0.1000E-04
  partition_type (choice of integration weights) for integrals was not specified.
  | Using a version of the partition function of Stratmann and coworkers ('stratmann_smoother').
  | At each grid point, the set of atoms used to build the partition table is smoothly restricted to
  | only those atoms whose free-atom density would be non-zero at that grid point.
  Partitioning for Hartree potential was not defined. Using partition_type for integrals.
  | Adjusted default value of keyword multip_moments_threshold to:       0.10000000E-11
  | This value may affect high angular momentum components of the Hartree potential in periodic systems.
  No q(lm)/r^(l+1) cutoff set for long-range Hartree potential.
  | Using default value of  0.100000E-09 .
  | Verify using the multipole_threshold keyword.
  Defaulting to new monopole extrapolation.
  Density update method: automatic selection selected.
------------------------------------------------------------


------------------------------------------------------------
          Reading geometry description geometry.in.
------------------------------------------------------------
  Input structure read successfully.
  The structure contains        1 atoms,  and a total of         14.000 electrons.

  Input geometry:
  | No unit cell requested.
  | Atomic structure:
  |       Atom                x [A]            y [A]            z [A]
  |    1: Species Si            0.00000000        0.00000000        0.00000000
  |

  | Isolated single atom, no quantum-mechanical atoms close by.

  Initial moments and charges:
  |  Atom   Moment         Charge        Species
  |     1  (Hund's rule)   0.000000E+00   Si

  Number of empty states per atom not set in control.in - providing a guess from actual geometry.
  | Total number of empty states used during s.c.f. cycle:        3
  If you use a very high smearing, use empty_states (per atom!) in control.in to increase this value.

  Structure-dependent array size parameters: 
  | Number of distinct atom types in initial rho :        1
  | Maximum number of distinct radial functions  :       18
  | Maximum number of basis functions            :       64
  | Number of Kohn-Sham states (occupied + empty):       10
------------------------------------------------------------

------------------------------------------------------------
          Preparing all fixed parts of the calculation.
------------------------------------------------------------
  Determining machine precision:
     2.2250738585072014E-308
  Setting up grids for atomic and cluster calculations.

  Creating wave function, potential, and density for free atoms.

  Species: Si

  List of occupied orbitals and eigenvalues:
    n    l              occ      energy [Ha]    energy [eV]
    1    0           2.0000       -65.503885     -1782.4514
    2    0           2.0000        -5.099582      -138.7667
    3    0           2.0000        -0.399780       -10.8786
    2    1           6.0000        -3.513906       -95.6182
    3    1           2.0000        -0.152974        -4.1626

  Spin-polarized or charged system:
  Charge density initialized according to selected moments and charges.

  Creating spin-polarized density from free atoms.

  Species: Si
  Charge:   0.000000
  applying Hund's rules ...

  List of occupied orbitals and eigenvalues:
    n    l      energy [Ha]    energy [eV]    occupation
  Spin-up
    1    0       -65.497095     -1782.2666     1.00000000
    2    0        -5.094241      -138.6214     1.00000000
    3    0        -0.418100       -11.3771     1.00000000
    2    1        -3.509435       -95.4966     3.00000000
    3    1        -0.169579        -4.6145     2.00000000
  Spin-down
    1    0       -65.490905     -1782.0982     1.00000000
    2    0        -5.086862      -138.4206     1.00000000
    3    0        -0.363650        -9.8954     1.00000000
    2    1        -3.500136       -95.2435     3.00000000
    3    1        -0.120955        -3.2914     0.00000000

  Creating fixed part of basis set: Ionic, confined, hydrogenic.

  Si                   ion:

  List of free ionic orbitals and eigenvalues:
    n    l      energy [Ha]    energy [eV]
    1    0       -66.364436     -1805.8682
    2    0        -5.935799      -161.5213
    3    0        -1.078166       -29.3384
    2    1        -4.351123      -118.4001
    3    1        -0.781733       -21.2720


  List of ionic basis orbitals and eigenvalues:
    n    l      energy [Ha]    energy [eV]    outer radius [A]
    3    0        -1.078166       -29.3384       7.041889
    3    2        -0.414868       -11.2891       9.559171


  Si                   hydrogenic:

  List of hydrogenic basis orbitals: 
    n    l      effective z      eigenvalue [eV]  inner max. [A]     outer max. [A]     outer radius [A]   
    3    2         4.200000       -26.6672           1.139231           1.139231           8.459171
    2    1         1.400000        -6.6668           1.509123           1.509123           9.916261
    4    3         6.200000       -32.6877           1.368518           1.368518           8.356387
    3    2         9.000000      -122.4512           0.527387           0.527387           4.012952
    5    4         9.400000       -48.0880           1.402391           1.402391           7.485751
    4    1         4.000000       -13.6057           0.374516           3.104344           9.916261
    1    0         0.650000        -5.7484           0.818959           0.818959           9.795773
    3    0         2.600000       -10.2194           0.149719           2.648193           9.916261
    4    3         8.400000       -60.0011           1.008137           1.008137           6.231559
    3    2         3.400000       -17.4758           1.402391           1.402391           9.328284
    3    1         7.800000       -91.9745           0.203240           0.818959           4.762044


  Adding cutoff potential to free-atom effective potential.
  Creating atomic-like basis functions for current effective potential.

  Species Si                  :

  List of atomic basis orbitals and eigenvalues:
    n    l      energy [Ha]    energy [eV]    outer radius [A]
    1    0       -65.503885     -1782.4514       0.789468
    2    0        -5.099582      -138.7667       2.815114
    3    0        -0.399780       -10.8786       8.992367
    2    1        -3.513906       -95.6182       3.259919
    3    1        -0.152974        -4.1626       9.795773

  Assembling full basis from fixed parts.
  | Species Si :   atomic orbital   1 s accepted.
  | Species Si :   atomic orbital   2 s accepted.
  | Species Si :   atomic orbital   3 s accepted.
  | Species Si :    ionic orbital   3 s accepted.
  | Species Si :    hydro orbital   1 s accepted.
  | Species Si :    hydro orbital   3 s accepted.
  | Species Si :   atomic orbital   2 p accepted.
  | Species Si :   atomic orbital   3 p accepted.
  | Species Si :    hydro orbital   2 p accepted.
  | Species Si :    hydro orbital   4 p accepted.
  | Species Si :    hydro orbital   3 p accepted.
  | Species Si :    ionic orbital   3 d accepted.
  | Species Si :    hydro orbital   3 d accepted.
  | Species Si :    hydro orbital   3 d accepted.
  | Species Si :    hydro orbital   3 d accepted.
  | Species Si :    hydro orbital   4 f accepted.
  | Species Si :    hydro orbital   4 f accepted.
  | Species Si :    hydro orbital   5 g accepted.

  Basis size parameters after reduction:
  | Total number of radial functions:       18
  | Total number of basis functions :       64

  Per-task memory consumption for arrays in subroutine allocate_ext:
  |           6.204740MB.
  Testing on-site integration grid accuracy.
  |  Species  Function  <phi|h_atom|phi> (log., in eV)  <phi|h_atom|phi> (rad., in eV)
           1        1              -1782.4514005608              -1782.4506706412
           1        2               -138.7666838455               -138.7666797746
           1        3                -10.8785625546                -10.8785618528
           1        4                  4.9505124129                  4.9505353141
           1        5                 30.3566327439                 30.3542210727
           1        6                138.0369527892                138.0290683483
           1        7                -95.6182400378                -95.6182400195
           1        8                 -4.1626457824                 -4.1627101672
           1        9                  3.6331929598                  3.6328875006
           1       10                 20.7866292796                 20.7762877332
           1       11                319.1131958688                319.1125293454
           1       12                  4.2744824109                  4.2744371425
           1       13                 13.0362611746                 13.0349925015
           1       14                 61.5848765744                 61.5846782013
           1       15                 34.3799603887                 34.3700181509
           1       16                 19.0572905976                 19.0572924648
           1       17                 49.7057902799                 49.7058000950
           1       18                 35.5931301548                 35.5931287277

  Preparing densities etc. for the partition functions (integrals / Hartree potential).

  Preparations completed.
  max(cpu_time)          :      0.217 s.
  Wall clock time (cpu1) :      0.216 s.
------------------------------------------------------------

------------------------------------------------------------
          Begin self-consistency loop: Initialization.

          Date     :  20190514, Time     :  110834.320
------------------------------------------------------------

  Initializing index lists of integration centers etc. from given atomic structure:
  | Number of centers in hartree potential         :         1
  | Number of centers in hartree multipole         :         1
  | Number of centers in electron density summation:         1
  | Number of centers in basis integrals           :         1
  | Number of centers in integrals                 :         1
  | Number of centers in hamiltonian               :         1
  Partitioning the integration grid into batches with maxmin method.
  | Maximal weight for a single point:     1.000
  | Minimal weight for a single point:     0.922
  | Number of batches:       64
  | Maximal batch size:      99
  | Minimal batch size:      76
  | Average batch size:      87.562
  | Standard deviation of batch sizes:       8.238
  Initializing partition tables, free-atom densities, potentials, etc. across the integration grid (initialize_grid_storage).
  | initialize_grid_storage: Actual outermost partition radius vs. multipole_radius_free
  | (-- VB: in principle, multipole_radius_free should be larger, hence this output)
  | Species        1: Confinement radius =             11.000000000000000 AA, multipole_radius_free =             11.069579961886376 AA.
  | Species        1: outer_partition_radius set to             11.069579961886376 AA .
  | Original list of interatomic distances with           1 x          1 entries is created.
  | Net number of integration points:     5604
  | of which are non-zero points    :     5604
  Renormalizing the initial density to the exact electron count on the 3D integration grid.
  | Initial density: Formal number of electrons (from input files) :      14.0000000000
  | Integrated number of electrons on 3D grid     :      14.0000226592
  | Charge integration error                      :       0.0000226592
  | Normalization factor for density and gradient :       0.9999983815
  Obtaining max. number of non-zero basis functions in each batch (get_n_compute_maxes).
  | Maximal number of non-zero basis functions:       64 in task     0
  Selecting the method for density update.
  Loop over occupied states selected for charge density update.
  Allocating        0.010 MB for KS_eigenvector
  Integrating Hamiltonian matrix: batch-based integration.
  Time summed over all CPUs for integration: real work        0.025 s, elapsed        0.025 s
  Integrating overlap matrix.
  Time summed over all CPUs for integration: real work        0.007 s, elapsed        0.007 s

  Updating Kohn-Sham eigenvalues, eigenvectors, occupation numbers, and Fermi level.
  Solving generalized eigenproblem
  Updating Kohn-Sham eigenvalues and eigenfunctions.
  Transforming overlap matrix and checking for singularities.
  Overlap matrix is nonsingular:
  | Lowest eigenvalue:  0.988702E+00
  Solving real generalised eigenvalue problem by standard LAPACK (fast)
  Updating Kohn-Sham eigenvalues and eigenfunctions.
  Solving real generalised eigenvalue problem by standard LAPACK (fast)

  Obtaining occupation numbers and chemical potential using ELSI.
  | Chemical potential (Fermi level):    -4.74303975eV
  Writing Kohn-Sham eigenvalues.

  Spin-up eigenvalues:

  State    Occupation    Eigenvalue [Ha]    Eigenvalue [eV]
      1       1.00000         -65.506992        -1782.53594
      2       1.00000          -5.103276         -138.86721
      3       1.00000          -3.518557          -95.74480
      4       1.00000          -3.518557          -95.74480
      5       1.00000          -3.518557          -95.74480
      6       1.00000          -0.424203          -11.54316
      7       0.66667          -0.174415           -4.74609
      8       0.66667          -0.174415           -4.74609
      9       0.66667          -0.174415           -4.74609
     10       0.00000           0.010850            0.29525

  Spin-down eigenvalues:

  State    Occupation    Eigenvalue [Ha]    Eigenvalue [eV]
      1       1.00000         -65.500817        -1782.36792
      2       1.00000          -5.095900         -138.66648
      3       1.00000          -3.509261          -95.49186
      4       1.00000          -3.509261          -95.49186
      5       1.00000          -3.509261          -95.49186
      6       1.00000          -0.369708          -10.06027
      7       0.00000          -0.125528           -3.41580
      8       0.00000          -0.125528           -3.41580
      9       0.00000          -0.125528           -3.41580
     10       0.00000           0.027476            0.74766

  Current spin moment of the entire structure :
  | N = N_up - N_down :    2.00
  | S                 :    1.00
  | J                 :    3.00

  Highest occupied state (VBM) at     -4.74608545 eV
  | Occupation number:      0.66666667
  | Spin channel:        1

  Lowest unoccupied state (CBM) at    -3.41579710 eV
  | Occupation number:      0.00000000
  | Spin channel:        2

  Overall HOMO-LUMO gap:      1.33028835 eV.
  This system has fractional occupation numbers. Thus, it is a degenerate system
  within the approximate finite broadening function (occupation_type)
  applied to determine the occupation numbers.
  This may not be harmful. However, for some systems (free atoms), a different, non-degenerate
  ground state might exist by using a smaller broadening (see keyword occupation_type).
  Calculating total energy contributions from superposition of free atom densities.

  Total energy components:
  | Sum of eigenvalues            :        -163.43318060 Ha       -4447.24311727 eV
  | XC energy correction          :         -19.64068302 Ha        -534.45017750 eV
  | XC potential correction       :          25.95363190 Ha         706.23425674 eV
  | Free-atom electrostatic energy:        -132.05597225 Ha       -3593.42583649 eV
  | Hartree energy correction     :          -0.00000000 Ha          -0.00000000 eV
  | Entropy correction            :          -0.00014173 Ha          -0.00385656 eV
  | ---------------------------
  | Total energy                  :        -289.17620397 Ha       -7868.88487452 eV
  | Total energy, T -> 0          :        -289.17634570 Ha       -7868.88873108 eV  <-- do not rely on this value for anything but (periodic) metals
  | Electronic free energy        :        -289.17648742 Ha       -7868.89258764 eV

  Derived energy quantities:
  | Kinetic energy                :         289.58982722 Ha        7880.14013570 eV
  | Electrostatic energy          :        -559.12534817 Ha      -15214.57483272 eV
  | Energy correction for multipole
  | error in Hartree potential    :           0.00000000 Ha           0.00000000 eV
  | Sum of eigenvalues per atom                           :       -4447.24311727 eV
  | Total energy (T->0) per atom                          :       -7868.88873108 eV  <-- do not rely on this value for anything but (periodic) metals
  | Electronic free energy per atom                       :       -7868.89258764 eV
  Initialize hartree_potential_storage
  Max. number of atoms included in rho_multipole:            1

  End scf initialization - timings             :  max(cpu_time)    wall_clock(cpu1)
  | Time for scf. initialization               :        0.047 s           0.047 s
  | Boundary condition initialization          :        0.000 s           0.000 s
  | Integration                                :        0.033 s           0.032 s
  | Solution of K.-S. eqns.                    :        0.004 s           0.005 s
  | Grid partitioning                          :        0.003 s           0.003 s
  | Preloading free-atom quantities on grid    :        0.001 s           0.001 s
  | Free-atom superposition energy             :        0.004 s           0.004 s
  | Total energy evaluation                    :        0.000 s           0.000 s

  Partial memory accounting:
  | Current value for overall tracked memory usage on task 0  :           0.093 MB
  | Peak value for overall tracked memory usage on task 0     :           0.347 MB after allocating wave
  | Largest tracked array allocation on task 0 so far         :           0.101 MB  when allocating H_times_psi
  Note:  These values currently only include a subset of arrays which are explicitly tracked.
  The "true" memory usage will be greater.
------------------------------------------------------------

------------------------------------------------------------
          Begin self-consistency iteration #    1

  Date     :  20190514, Time     :  110834.369
------------------------------------------------------------
  Evaluating new KS density.
  Integration grid: deviation in total charge (<rho> - N_e) =   2.504663E-13
  | <rho_up-rho_dn> = N_up-N_dn =      2.0000; <|rho_up-rho_dn|> =      2.0000
  Pulay mixing of updated and previous charge densities.

  Evaluating partitioned Hartree potential by multipole expansion.
  | Analytical far-field extrapolation by fixed multipoles:
  | Hartree multipole sum: apparent total charge =  -0.728501E-04
  Summing up the Hartree potential.
  Time summed over all CPUs for potential: real work        0.001 s, elapsed        0.001 s
  | RMS charge density error from multipole expansion :   0.105964E-13

  Integrating Hamiltonian matrix: batch-based integration.
  Time summed over all CPUs for integration: real work        0.026 s, elapsed        0.026 s

  Updating Kohn-Sham eigenvalues, eigenvectors, occupation numbers, and Fermi level.
  Solving generalized eigenproblem
  Updating Kohn-Sham eigenvalues and eigenfunctions.
  Solving real generalised eigenvalue problem by standard LAPACK (fast)
  Updating Kohn-Sham eigenvalues and eigenfunctions.
  Solving real generalised eigenvalue problem by standard LAPACK (fast)

  Obtaining occupation numbers and chemical potential using ELSI.
  | Chemical potential (Fermi level):    -4.60754141eV
  Writing Kohn-Sham eigenvalues.

  Spin-up eigenvalues:

  State    Occupation    Eigenvalue [Ha]    Eigenvalue [eV]
      1       1.00000         -65.496626        -1782.25387
      2       1.00000          -5.093853         -138.61078
      3       1.00000          -3.509039          -95.48581
      4       1.00000          -3.509039          -95.48581
      5       1.00000          -3.509039          -95.48581
      6       1.00000          -0.417915          -11.37204
      7       0.66667          -0.169436           -4.61059
      8       0.66667          -0.169436           -4.61059
      9       0.66667          -0.169436           -4.61059
     10       0.00000           0.012047            0.32783

  Spin-down eigenvalues:

  State    Occupation    Eigenvalue [Ha]    Eigenvalue [eV]
      1       1.00000         -65.490440        -1782.08553
      2       1.00000          -5.086469         -138.40986
      3       1.00000          -3.499735          -95.23264
      4       1.00000          -3.499735          -95.23264
      5       1.00000          -3.499735          -95.23264
      6       1.00000          -0.363448           -9.88993
      7       0.00000          -0.120805           -3.28726
      8       0.00000          -0.120805           -3.28726
      9       0.00000          -0.120805           -3.28726
     10       0.00000           0.028626            0.77896

  Current spin moment of the entire structure :
  | N = N_up - N_down :    2.00
  | S                 :    1.00
  | J                 :    3.00

  Highest occupied state (VBM) at     -4.61058711 eV
  | Occupation number:      0.66666667
  | Spin channel:        1

  Lowest unoccupied state (CBM) at    -3.28726436 eV
  | Occupation number:      0.00000000
  | Spin channel:        2

  Overall HOMO-LUMO gap:      1.32332275 eV.
  This system has fractional occupation numbers. Thus, it is a degenerate system
  within the approximate finite broadening function (occupation_type)
  applied to determine the occupation numbers.
  This may not be harmful. However, for some systems (free atoms), a different, non-degenerate
  ground state might exist by using a smaller broadening (see keyword occupation_type).

  Total energy components:
  | Sum of eigenvalues            :        -163.31394496 Ha       -4443.99855055 eV
  | XC energy correction          :         -19.64109490 Ha        -534.46138541 eV
  | XC potential correction       :          25.95417480 Ha         706.24902983 eV
  | Free-atom electrostatic energy:        -132.05597225 Ha       -3593.42583649 eV
  | Hartree energy correction     :          -0.11924057 Ha          -3.24470111 eV
  | Entropy correction            :          -0.00014173 Ha          -0.00385656 eV
  | ---------------------------
  | Total energy                  :        -289.17607789 Ha       -7868.88144374 eV
  | Total energy, T -> 0          :        -289.17621962 Ha       -7868.88530029 eV  <-- do not rely on this value for anything but (periodic) metals
  | Electronic free energy        :        -289.17636134 Ha       -7868.88915685 eV

  Derived energy quantities:
  | Kinetic energy                :         289.61423081 Ha        7880.80419134 eV
  | Electrostatic energy          :        -559.14921380 Ha      -15215.22424967 eV
  | Energy correction for multipole
  | error in Hartree potential    :           0.00000000 Ha           0.00000000 eV
  | Sum of eigenvalues per atom                           :       -4443.99855055 eV
  | Total energy (T->0) per atom                          :       -7868.88530029 eV  <-- do not rely on this value for anything but (periodic) metals
  | Electronic free energy per atom                       :       -7868.88915685 eV

  Self-consistency convergence accuracy:
  | Change of charge/spin density :  0.3361E-02  0.2170E-02
  | Change of sum of eigenvalues  :  0.3245E+01 eV
  | Change of total energy        :  0.3431E-02 eV

  End self-consistency iteration #     1       :  max(cpu_time)    wall_clock(cpu1)
  | Time for this iteration                    :        0.036 s           0.035 s
  | Charge density update                      :        0.006 s           0.005 s
  | Density mixing                             :        0.000 s           0.000 s
  | Hartree multipole update                   :        0.000 s           0.000 s
  | Hartree multipole summation                :        0.001 s           0.001 s
  | Integration                                :        0.026 s           0.026 s
  | Solution of K.-S. eqns.                    :        0.002 s           0.002 s
  | Total energy evaluation                    :        0.000 s           0.000 s

  Partial memory accounting:
  | Current value for overall tracked memory usage on task 0  :           0.093 MB
  | Peak value for overall tracked memory usage on task 0     :           0.380 MB after allocating wave
  | Largest tracked array allocation on task 0 so far         :           0.101 MB  when allocating H_times_psi
  Note:  These values currently only include a subset of arrays which are explicitly tracked.
  The "true" memory usage will be greater.
------------------------------------------------------------

------------------------------------------------------------
          Begin self-consistency iteration #    2

  Date     :  20190514, Time     :  110834.404
------------------------------------------------------------
  Evaluating new KS density.
  Integration grid: deviation in total charge (<rho> - N_e) =   1.527667E-13
  | <rho_up-rho_dn> = N_up-N_dn =      2.0000; <|rho_up-rho_dn|> =      2.0000
  Pulay mixing of updated and previous charge densities.

  Evaluating partitioned Hartree potential by multipole expansion.
  | Analytical far-field extrapolation by fixed multipoles:
  | Hartree multipole sum: apparent total charge =  -0.739710E-04
  Summing up the Hartree potential.
  Time summed over all CPUs for potential: real work        0.001 s, elapsed        0.001 s
  | RMS charge density error from multipole expansion :   0.122077E-13

  Integrating Hamiltonian matrix: batch-based integration.
  Time summed over all CPUs for integration: real work        0.025 s, elapsed        0.025 s

  Updating Kohn-Sham eigenvalues, eigenvectors, occupation numbers, and Fermi level.
  Solving generalized eigenproblem
  Updating Kohn-Sham eigenvalues and eigenfunctions.
  Solving real generalised eigenvalue problem by standard LAPACK (fast)
  Updating Kohn-Sham eigenvalues and eigenfunctions.
  Solving real generalised eigenvalue problem by standard LAPACK (fast)

  Obtaining occupation numbers and chemical potential using ELSI.
  | Chemical potential (Fermi level):    -4.60779557eV
  Current spin moment of the entire structure :
  | N = N_up - N_down :    2.00
  | S                 :    1.00
  | J                 :    3.00

  Highest occupied state (VBM) at     -4.61084127 eV
  | Occupation number:      0.66666667
  | Spin channel:        1

  Lowest unoccupied state (CBM) at    -3.28757897 eV
  | Occupation number:      0.00000000
  | Spin channel:        2

  Overall HOMO-LUMO gap:      1.32326231 eV.
  This system has fractional occupation numbers. Thus, it is a degenerate system
  within the approximate finite broadening function (occupation_type)
  applied to determine the occupation numbers.
  This may not be harmful. However, for some systems (free atoms), a different, non-degenerate
  ground state might exist by using a smaller broadening (see keyword occupation_type).

  Checking to see if s.c.f. parameters should be adjusted.
  Adjusted the Pulay mixing parameter (charge_mix_param) for an expected low-gap system. New value:   0.020000 .
  Adjusted the occupation broadening width for an expected low-gap system. New value:      0.05000000 eV.

  Total energy components:
  | Sum of eigenvalues            :        -163.31428536 Ha       -4444.00781330 eV
  | XC energy correction          :         -19.64106897 Ha        -534.46067964 eV
  | XC potential correction       :          25.95414048 Ha         706.24809592 eV
  | Free-atom electrostatic energy:        -132.05597225 Ha       -3593.42583649 eV
  | Hartree energy correction     :          -0.11889180 Ha          -3.23521061 eV
  | Entropy correction            :          -0.00077463 Ha          -0.02107875 eV
  | ---------------------------
  | Total energy                  :        -289.17607791 Ha       -7868.88144412 eV
  | Total energy, T -> 0          :        -289.17685254 Ha       -7868.90252287 eV  <-- do not rely on this value for anything but (periodic) metals
  | Electronic free energy        :        -289.17762717 Ha       -7868.92360162 eV

  Derived energy quantities:
  | Kinetic energy                :         289.61409534 Ha        7880.80050495 eV
  | Electrostatic energy          :        -559.14910428 Ha      -15215.22126944 eV
  | Energy correction for multipole
  | error in Hartree potential    :          -0.00000000 Ha          -0.00000000 eV
  | Sum of eigenvalues per atom                           :       -4444.00781330 eV
  | Total energy (T->0) per atom                          :       -7868.90252287 eV  <-- do not rely on this value for anything but (periodic) metals
  | Electronic free energy per atom                       :       -7868.92360162 eV

  Self-consistency convergence accuracy:
  | Change of charge/spin density :  0.2266E-03  0.1495E-02
  | Change of sum of eigenvalues  : -0.9263E-02 eV
  | Change of total energy        : -0.3851E-06 eV

  End self-consistency iteration #     2       :  max(cpu_time)    wall_clock(cpu1)
  | Time for this iteration                    :        0.035 s           0.036 s
  | Charge density update                      :        0.006 s           0.006 s
  | Density mixing                             :        0.001 s           0.001 s
  | Hartree multipole update                   :        0.001 s           0.001 s
  | Hartree multipole summation                :        0.001 s           0.001 s
  | Integration                                :        0.024 s           0.025 s
  | Solution of K.-S. eqns.                    :        0.002 s           0.002 s
  | Total energy evaluation                    :        0.000 s           0.000 s

  Partial memory accounting:
  | Current value for overall tracked memory usage on task 0  :           0.095 MB
  | Peak value for overall tracked memory usage on task 0     :           0.381 MB after allocating wave
  | Largest tracked array allocation on task 0 so far         :           0.101 MB  when allocating H_times_psi
  Note:  These values currently only include a subset of arrays which are explicitly tracked.
  The "true" memory usage will be greater.
------------------------------------------------------------

------------------------------------------------------------
          Begin self-consistency iteration #    3

  Date     :  20190514, Time     :  110834.440
------------------------------------------------------------
  Evaluating new KS density.
  Integration grid: deviation in total charge (<rho> - N_e) =  -1.172396E-13
  | <rho_up-rho_dn> = N_up-N_dn =      2.0000; <|rho_up-rho_dn|> =      2.0000
  Pulay mixing of updated and previous charge densities.

  Evaluating partitioned Hartree potential by multipole expansion.
  | Analytical far-field extrapolation by fixed multipoles:
  | Hartree multipole sum: apparent total charge =  -0.973469E-04
  Summing up the Hartree potential.
  Time summed over all CPUs for potential: real work        0.001 s, elapsed        0.001 s
  | RMS charge density error from multipole expansion :   0.230549E-12

  Integrating Hamiltonian matrix: batch-based integration.
  Time summed over all CPUs for integration: real work        0.025 s, elapsed        0.025 s

  Updating Kohn-Sham eigenvalues, eigenvectors, occupation numbers, and Fermi level.
  Solving generalized eigenproblem
  Updating Kohn-Sham eigenvalues and eigenfunctions.
  Solving real generalised eigenvalue problem by standard LAPACK (fast)
  Updating Kohn-Sham eigenvalues and eigenfunctions.
  Solving real generalised eigenvalue problem by standard LAPACK (fast)

  Obtaining occupation numbers and chemical potential using ELSI.
  | Chemical potential (Fermi level):    -4.60073049eV
  Current spin moment of the entire structure :
  | N = N_up - N_down :    2.00
  | S                 :    1.00
  | J                 :    3.00

  Highest occupied state (VBM) at     -4.61595900 eV
  | Occupation number:      0.66666667
  | Spin channel:        1

  Lowest unoccupied state (CBM) at    -3.29395309 eV
  | Occupation number:      0.00000000
  | Spin channel:        2

  Overall HOMO-LUMO gap:      1.32200591 eV.
  This system has fractional occupation numbers. Thus, it is a degenerate system
  within the approximate finite broadening function (occupation_type)
  applied to determine the occupation numbers.
  This may not be harmful. However, for some systems (free atoms), a different, non-degenerate
  ground state might exist by using a smaller broadening (see keyword occupation_type).

  Total energy components:
  | Sum of eigenvalues            :        -163.32113241 Ha       -4444.19413085 eV
  | XC energy correction          :         -19.64054870 Ha        -534.44652248 eV
  | XC potential correction       :          25.95345198 Ha         706.22936105 eV
  | Free-atom electrostatic energy:        -132.05597225 Ha       -3593.42583649 eV
  | Hartree energy correction     :          -0.11187679 Ha          -3.04432247 eV
  | Entropy correction            :          -0.00070863 Ha          -0.01928279 eV
  | ---------------------------
  | Total energy                  :        -289.17607817 Ha       -7868.88145125 eV
  | Total energy, T -> 0          :        -289.17678680 Ha       -7868.90073404 eV  <-- do not rely on this value for anything but (periodic) metals
  | Electronic free energy        :        -289.17749543 Ha       -7868.92001683 eV

  Derived energy quantities:
  | Kinetic energy                :         289.61143435 Ha        7880.72809571 eV
  | Electrostatic energy          :        -559.14696382 Ha      -15215.16302447 eV
  | Energy correction for multipole
  | error in Hartree potential    :           0.00000000 Ha           0.00000000 eV
  | Sum of eigenvalues per atom                           :       -4444.19413085 eV
  | Total energy (T->0) per atom                          :       -7868.90073404 eV  <-- do not rely on this value for anything but (periodic) metals
  | Electronic free energy per atom                       :       -7868.92001683 eV

  Self-consistency convergence accuracy:
  | Change of charge/spin density :  0.2105E-03  0.1426E-02
  | Change of sum of eigenvalues  : -0.1863E+00 eV
  | Change of total energy        : -0.7126E-05 eV

  End self-consistency iteration #     3       :  max(cpu_time)    wall_clock(cpu1)
  | Time for this iteration                    :        0.034 s           0.034 s
  | Charge density update                      :        0.006 s           0.006 s
  | Density mixing                             :        0.000 s           0.000 s
  | Hartree multipole update                   :        0.001 s           0.000 s
  | Hartree multipole summation                :        0.001 s           0.001 s
  | Integration                                :        0.025 s           0.025 s
  | Solution of K.-S. eqns.                    :        0.002 s           0.002 s
  | Total energy evaluation                    :        0.000 s           0.000 s

  Partial memory accounting:
  | Current value for overall tracked memory usage on task 0  :           0.095 MB
  | Peak value for overall tracked memory usage on task 0     :           0.381 MB after allocating wave
  | Largest tracked array allocation on task 0 so far         :           0.101 MB  when allocating H_times_psi
  Note:  These values currently only include a subset of arrays which are explicitly tracked.
  The "true" memory usage will be greater.
------------------------------------------------------------

------------------------------------------------------------
          Begin self-consistency iteration #    4

  Date     :  20190514, Time     :  110834.474
------------------------------------------------------------
  Evaluating new KS density.
  Integration grid: deviation in total charge (<rho> - N_e) =   5.684342E-14
  | <rho_up-rho_dn> = N_up-N_dn =      2.0000; <|rho_up-rho_dn|> =      2.0000
  Pulay mixing of updated and previous charge densities.

  Evaluating partitioned Hartree potential by multipole expansion.
  | Analytical far-field extrapolation by fixed multipoles:
  | Hartree multipole sum: apparent total charge =  -0.982238E-04
  Summing up the Hartree potential.
  Time summed over all CPUs for potential: real work        0.002 s, elapsed        0.002 s
  | RMS charge density error from multipole expansion :   0.836336E-12

  Integrating Hamiltonian matrix: batch-based integration.
  Time summed over all CPUs for integration: real work        0.024 s, elapsed        0.024 s

  Updating Kohn-Sham eigenvalues, eigenvectors, occupation numbers, and Fermi level.
  Solving generalized eigenproblem
  Updating Kohn-Sham eigenvalues and eigenfunctions.
  Solving real generalised eigenvalue problem by standard LAPACK (fast)
  Updating Kohn-Sham eigenvalues and eigenfunctions.
  Solving real generalised eigenvalue problem by standard LAPACK (fast)

  Obtaining occupation numbers and chemical potential using ELSI.
  | Chemical potential (Fermi level):    -4.59779298eV
  Current spin moment of the entire structure :
  | N = N_up - N_down :    2.00
  | S                 :    1.00
  | J                 :    3.00

  Highest occupied state (VBM) at     -4.61302149 eV
  | Occupation number:      0.66666667
  | Spin channel:        1

  Lowest unoccupied state (CBM) at    -3.29098555 eV
  | Occupation number:      0.00000000
  | Spin channel:        2

  Overall HOMO-LUMO gap:      1.32203594 eV.
  This system has fractional occupation numbers. Thus, it is a degenerate system
  within the approximate finite broadening function (occupation_type)
  applied to determine the occupation numbers.
  This may not be harmful. However, for some systems (free atoms), a different, non-degenerate
  ground state might exist by using a smaller broadening (see keyword occupation_type).

  Total energy components:
  | Sum of eigenvalues            :        -163.31705358 Ha       -4444.08314033 eV
  | XC energy correction          :         -19.64087850 Ha        -534.45549678 eV
  | XC potential correction       :          25.95388705 Ha         706.24119979 eV
  | Free-atom electrostatic energy:        -132.05597225 Ha       -3593.42583649 eV
  | Hartree energy correction     :          -0.11606085 Ha          -3.15817634 eV
  | Entropy correction            :          -0.00070863 Ha          -0.01928279 eV
  | ---------------------------
  | Total energy                  :        -289.17607813 Ha       -7868.88145014 eV
  | Total energy, T -> 0          :        -289.17678676 Ha       -7868.90073293 eV  <-- do not rely on this value for anything but (periodic) metals
  | Electronic free energy        :        -289.17749539 Ha       -7868.92001572 eV

  Derived energy quantities:
  | Kinetic energy                :         289.61416348 Ha        7880.80235905 eV
  | Electrostatic energy          :        -559.14936311 Ha      -15215.22831241 eV
  | Energy correction for multipole
  | error in Hartree potential    :          -0.00000000 Ha          -0.00000000 eV
  | Sum of eigenvalues per atom                           :       -4444.08314033 eV
  | Total energy (T->0) per atom                          :       -7868.90073293 eV  <-- do not rely on this value for anything but (periodic) metals
  | Electronic free energy per atom                       :       -7868.92001572 eV

  Self-consistency convergence accuracy:
  | Change of charge/spin density :  0.1673E-03  0.5045E-04
  | Change of sum of eigenvalues  :  0.1110E+00 eV
  | Change of total energy        :  0.1113E-05 eV

  End self-consistency iteration #     4       :  max(cpu_time)    wall_clock(cpu1)
  | Time for this iteration                    :        0.035 s           0.035 s
  | Charge density update                      :        0.006 s           0.006 s
  | Density mixing                             :        0.000 s           0.000 s
  | Hartree multipole update                   :        0.000 s           0.001 s
  | Hartree multipole summation                :        0.002 s           0.002 s
  | Integration                                :        0.024 s           0.024 s
  | Solution of K.-S. eqns.                    :        0.002 s           0.002 s
  | Total energy evaluation                    :        0.000 s           0.000 s

  Partial memory accounting:
  | Current value for overall tracked memory usage on task 0  :           0.095 MB
  | Peak value for overall tracked memory usage on task 0     :           0.381 MB after allocating wave
  | Largest tracked array allocation on task 0 so far         :           0.101 MB  when allocating H_times_psi
  Note:  These values currently only include a subset of arrays which are explicitly tracked.
  The "true" memory usage will be greater.
------------------------------------------------------------

------------------------------------------------------------
          Begin self-consistency iteration #    5

  Date     :  20190514, Time     :  110834.509
------------------------------------------------------------
  Evaluating new KS density.
  Integration grid: deviation in total charge (<rho> - N_e) =   0.000000E+00
  | <rho_up-rho_dn> = N_up-N_dn =      2.0000; <|rho_up-rho_dn|> =      2.0000
  Pulay mixing of updated and previous charge densities.

  Evaluating partitioned Hartree potential by multipole expansion.
  | Analytical far-field extrapolation by fixed multipoles:
  | Hartree multipole sum: apparent total charge =  -0.975562E-04
  Summing up the Hartree potential.
  Time summed over all CPUs for potential: real work        0.001 s, elapsed        0.001 s
  | RMS charge density error from multipole expansion :   0.502365E-11

  Integrating Hamiltonian matrix: batch-based integration.
  Time summed over all CPUs for integration: real work        0.024 s, elapsed        0.024 s

  Updating Kohn-Sham eigenvalues, eigenvectors, occupation numbers, and Fermi level.
  Solving generalized eigenproblem
  Updating Kohn-Sham eigenvalues and eigenfunctions.
  Solving real generalised eigenvalue problem by standard LAPACK (fast)
  Updating Kohn-Sham eigenvalues and eigenfunctions.
  Solving real generalised eigenvalue problem by standard LAPACK (fast)

  Obtaining occupation numbers and chemical potential using ELSI.
  | Chemical potential (Fermi level):    -4.59857606eV
  Current spin moment of the entire structure :
  | N = N_up - N_down :    2.00
  | S                 :    1.00
  | J                 :    3.00

  Highest occupied state (VBM) at     -4.61380457 eV
  | Occupation number:      0.66666667
  | Spin channel:        1

  Lowest unoccupied state (CBM) at    -3.29181090 eV
  | Occupation number:      0.00000000
  | Spin channel:        2

  Overall HOMO-LUMO gap:      1.32199367 eV.
  This system has fractional occupation numbers. Thus, it is a degenerate system
  within the approximate finite broadening function (occupation_type)
  applied to determine the occupation numbers.
  This may not be harmful. However, for some systems (free atoms), a different, non-degenerate
  ground state might exist by using a smaller broadening (see keyword occupation_type).

  Total energy components:
  | Sum of eigenvalues            :        -163.31793485 Ha       -4444.10712087 eV
  | XC energy correction          :         -19.64080659 Ha        -534.45354013 eV
  | XC potential correction       :          25.95379232 Ha         706.23862211 eV
  | Free-atom electrostatic energy:        -132.05597225 Ha       -3593.42583649 eV
  | Hartree energy correction     :          -0.11515675 Ha          -3.13357457 eV
  | Entropy correction            :          -0.00070863 Ha          -0.01928279 eV
  | ---------------------------
  | Total energy                  :        -289.17607812 Ha       -7868.88144995 eV
  | Total energy, T -> 0          :        -289.17678675 Ha       -7868.90073274 eV  <-- do not rely on this value for anything but (periodic) metals
  | Electronic free energy        :        -289.17749538 Ha       -7868.92001553 eV

  Derived energy quantities:
  | Kinetic energy                :         289.61368344 Ha        7880.78929667 eV
  | Electrostatic energy          :        -559.14895497 Ha      -15215.21720649 eV
  | Energy correction for multipole
  | error in Hartree potential    :           0.00000000 Ha           0.00000000 eV
  | Sum of eigenvalues per atom                           :       -4444.10712087 eV
  | Total energy (T->0) per atom                          :       -7868.90073274 eV  <-- do not rely on this value for anything but (periodic) metals
  | Electronic free energy per atom                       :       -7868.92001553 eV

  Self-consistency convergence accuracy:
  | Change of charge/spin density :  0.8811E-04  0.6912E-04
  | Change of sum of eigenvalues  : -0.2398E-01 eV
  | Change of total energy        :  0.1857E-06 eV

  End self-consistency iteration #     5       :  max(cpu_time)    wall_clock(cpu1)
  | Time for this iteration                    :        0.035 s           0.035 s
  | Charge density update                      :        0.006 s           0.006 s
  | Density mixing                             :        0.001 s           0.001 s
  | Hartree multipole update                   :        0.001 s           0.001 s
  | Hartree multipole summation                :        0.001 s           0.001 s
  | Integration                                :        0.024 s           0.024 s
  | Solution of K.-S. eqns.                    :        0.002 s           0.001 s
  | Total energy evaluation                    :        0.000 s           0.000 s

  Partial memory accounting:
  | Current value for overall tracked memory usage on task 0  :           0.095 MB
  | Peak value for overall tracked memory usage on task 0     :           0.382 MB after allocating wave
  | Largest tracked array allocation on task 0 so far         :           0.101 MB  when allocating H_times_psi
  Note:  These values currently only include a subset of arrays which are explicitly tracked.
  The "true" memory usage will be greater.
------------------------------------------------------------

------------------------------------------------------------
          Begin self-consistency iteration #    6

  Date     :  20190514, Time     :  110834.544
------------------------------------------------------------
  Evaluating new KS density.
  Integration grid: deviation in total charge (<rho> - N_e) =  -4.085621E-14
  | <rho_up-rho_dn> = N_up-N_dn =      2.0000; <|rho_up-rho_dn|> =      2.0000
  Pulay mixing of updated and previous charge densities.

  Evaluating partitioned Hartree potential by multipole expansion.
  | Analytical far-field extrapolation by fixed multipoles:
  | Hartree multipole sum: apparent total charge =  -0.972649E-04
  Summing up the Hartree potential.
  Time summed over all CPUs for potential: real work        0.001 s, elapsed        0.001 s
  | RMS charge density error from multipole expansion :   0.683745E-11

  Integrating Hamiltonian matrix: batch-based integration.
  Time summed over all CPUs for integration: real work        0.024 s, elapsed        0.024 s

  Updating Kohn-Sham eigenvalues, eigenvectors, occupation numbers, and Fermi level.
  Solving generalized eigenproblem
  Updating Kohn-Sham eigenvalues and eigenfunctions.
  Solving real generalised eigenvalue problem by standard LAPACK (fast)
  Updating Kohn-Sham eigenvalues and eigenfunctions.
  Solving real generalised eigenvalue problem by standard LAPACK (fast)

  Obtaining occupation numbers and chemical potential using ELSI.
  | Chemical potential (Fermi level):    -4.59930273eV
  Current spin moment of the entire structure :
  | N = N_up - N_down :    2.00
  | S                 :    1.00
  | J                 :    3.00

  Highest occupied state (VBM) at     -4.61453124 eV
  | Occupation number:      0.66666667
  | Spin channel:        1

  Lowest unoccupied state (CBM) at    -3.29255342 eV
  | Occupation number:      0.00000000
  | Spin channel:        2

  Overall HOMO-LUMO gap:      1.32197782 eV.
  This system has fractional occupation numbers. Thus, it is a degenerate system
  within the approximate finite broadening function (occupation_type)
  applied to determine the occupation numbers.
  This may not be harmful. However, for some systems (free atoms), a different, non-degenerate
  ground state might exist by using a smaller broadening (see keyword occupation_type).

  Total energy components:
  | Sum of eigenvalues            :        -163.31889990 Ha       -4444.13338128 eV
  | XC energy correction          :         -19.64072840 Ha        -534.45141233 eV
  | XC potential correction       :          25.95368919 Ha         706.23581583 eV
  | Free-atom electrostatic energy:        -132.05597225 Ha       -3593.42583649 eV
  | Hartree energy correction     :          -0.11416677 Ha          -3.10663575 eV
  | Entropy correction            :          -0.00070863 Ha          -0.01928279 eV
  | ---------------------------
  | Total energy                  :        -289.17607812 Ha       -7868.88145003 eV
  | Total energy, T -> 0          :        -289.17678675 Ha       -7868.90073282 eV  <-- do not rely on this value for anything but (periodic) metals
  | Electronic free energy        :        -289.17749538 Ha       -7868.92001561 eV

  Derived energy quantities:
  | Kinetic energy                :         289.61306173 Ha        7880.77237888 eV
  | Electrostatic energy          :        -559.14841145 Ha      -15215.20241658 eV
  | Energy correction for multipole
  | error in Hartree potential    :          -0.00000000 Ha          -0.00000000 eV
  | Sum of eigenvalues per atom                           :       -4444.13338128 eV
  | Total energy (T->0) per atom                          :       -7868.90073282 eV  <-- do not rely on this value for anything but (periodic) metals
  | Electronic free energy per atom                       :       -7868.92001561 eV

  Self-consistency convergence accuracy:
  | Change of charge/spin density :  0.3990E-04  0.1765E-04
  | Change of sum of eigenvalues  : -0.2626E-01 eV
  | Change of total energy        : -0.8028E-07 eV

  End self-consistency iteration #     6       :  max(cpu_time)    wall_clock(cpu1)
  | Time for this iteration                    :        0.035 s           0.035 s
  | Charge density update                      :        0.007 s           0.007 s
  | Density mixing                             :        0.000 s           0.000 s
  | Hartree multipole update                   :        0.000 s           0.000 s
  | Hartree multipole summation                :        0.001 s           0.001 s
  | Integration                                :        0.024 s           0.024 s
  | Solution of K.-S. eqns.                    :        0.002 s           0.002 s
  | Total energy evaluation                    :        0.000 s           0.000 s

  Partial memory accounting:
  | Current value for overall tracked memory usage on task 0  :           0.096 MB
  | Peak value for overall tracked memory usage on task 0     :           0.382 MB after allocating wave
  | Largest tracked array allocation on task 0 so far         :           0.101 MB  when allocating H_times_psi
  Note:  These values currently only include a subset of arrays which are explicitly tracked.
  The "true" memory usage will be greater.
------------------------------------------------------------

------------------------------------------------------------
          Begin self-consistency iteration #    7

  Date     :  20190514, Time     :  110834.579
------------------------------------------------------------
  Evaluating new KS density.
  Integration grid: deviation in total charge (<rho> - N_e) =   5.684342E-14
  | <rho_up-rho_dn> = N_up-N_dn =      2.0000; <|rho_up-rho_dn|> =      2.0000
  Pulay mixing of updated and previous charge densities.

  Evaluating partitioned Hartree potential by multipole expansion.
  | Analytical far-field extrapolation by fixed multipoles:
  | Hartree multipole sum: apparent total charge =  -0.974688E-04
  Summing up the Hartree potential.
  Time summed over all CPUs for potential: real work        0.001 s, elapsed        0.001 s
  | RMS charge density error from multipole expansion :   0.610584E-10

  Integrating Hamiltonian matrix: batch-based integration.
  Time summed over all CPUs for integration: real work        0.024 s, elapsed        0.024 s

  Updating Kohn-Sham eigenvalues, eigenvectors, occupation numbers, and Fermi level.
  Solving generalized eigenproblem
  Updating Kohn-Sham eigenvalues and eigenfunctions.
  Solving real generalised eigenvalue problem by standard LAPACK (fast)
  Updating Kohn-Sham eigenvalues and eigenfunctions.
  Solving real generalised eigenvalue problem by standard LAPACK (fast)

  Obtaining occupation numbers and chemical potential using ELSI.
  | Chemical potential (Fermi level):    -4.59886364eV
  Current spin moment of the entire structure :
  | N = N_up - N_down :    2.00
  | S                 :    1.00
  | J                 :    3.00

  Highest occupied state (VBM) at     -4.61409215 eV
  | Occupation number:      0.66666666
  | Spin channel:        1

  Lowest unoccupied state (CBM) at    -3.29210665 eV
  | Occupation number:      0.00000000
  | Spin channel:        2

  Overall HOMO-LUMO gap:      1.32198550 eV.
  This system has fractional occupation numbers. Thus, it is a degenerate system
  within the approximate finite broadening function (occupation_type)
  applied to determine the occupation numbers.
  This may not be harmful. However, for some systems (free atoms), a different, non-degenerate
  ground state might exist by using a smaller broadening (see keyword occupation_type).

  Total energy components:
  | Sum of eigenvalues            :        -163.31836878 Ha       -4444.11892885 eV
  | XC energy correction          :         -19.64076894 Ha        -534.45251553 eV
  | XC potential correction       :          25.95374260 Ha         706.23726909 eV
  | Free-atom electrostatic energy:        -132.05597225 Ha       -3593.42583649 eV
  | Hartree energy correction     :          -0.11471074 Ha          -3.12143817 eV
  | Entropy correction            :          -0.00070863 Ha          -0.01928279 eV
  | ---------------------------
  | Total energy                  :        -289.17607812 Ha       -7868.88144995 eV
  | Total energy, T -> 0          :        -289.17678675 Ha       -7868.90073274 eV  <-- do not rely on this value for anything but (periodic) metals
  | Electronic free energy        :        -289.17749538 Ha       -7868.92001553 eV

  Derived energy quantities:
  | Kinetic energy                :         289.61333568 Ha        7880.77983347 eV
  | Electrostatic energy          :        -559.14864486 Ha      -15215.20876790 eV
  | Energy correction for multipole
  | error in Hartree potential    :           0.00000000 Ha           0.00000000 eV
  | Sum of eigenvalues per atom                           :       -4444.11892885 eV
  | Total energy (T->0) per atom                          :       -7868.90073274 eV  <-- do not rely on this value for anything but (periodic) metals
  | Electronic free energy per atom                       :       -7868.92001553 eV

  Self-consistency convergence accuracy:
  | Change of charge/spin density :  0.1932E-04  0.9803E-05
  | Change of sum of eigenvalues  :  0.1445E-01 eV
  | Change of total energy        :  0.7828E-07 eV

  End self-consistency iteration #     7       :  max(cpu_time)    wall_clock(cpu1)
  | Time for this iteration                    :        0.034 s           0.034 s
  | Charge density update                      :        0.006 s           0.006 s
  | Density mixing                             :        0.000 s           0.000 s
  | Hartree multipole update                   :        0.000 s           0.001 s
  | Hartree multipole summation                :        0.001 s           0.001 s
  | Integration                                :        0.024 s           0.024 s
  | Solution of K.-S. eqns.                    :        0.002 s           0.002 s
  | Total energy evaluation                    :        0.000 s           0.000 s

  Partial memory accounting:
  | Current value for overall tracked memory usage on task 0  :           0.096 MB
  | Peak value for overall tracked memory usage on task 0     :           0.382 MB after allocating wave
  | Largest tracked array allocation on task 0 so far         :           0.101 MB  when allocating H_times_psi
  Note:  These values currently only include a subset of arrays which are explicitly tracked.
  The "true" memory usage will be greater.
------------------------------------------------------------

------------------------------------------------------------
          Begin self-consistency iteration #    8

  Date     :  20190514, Time     :  110834.613
------------------------------------------------------------
  Evaluating new KS density.
  Integration grid: deviation in total charge (<rho> - N_e) =   5.506706E-14
  | <rho_up-rho_dn> = N_up-N_dn =      2.0000; <|rho_up-rho_dn|> =      2.0000
  Pulay mixing of updated and previous charge densities.

  Evaluating partitioned Hartree potential by multipole expansion.
  | Analytical far-field extrapolation by fixed multipoles:
  | Hartree multipole sum: apparent total charge =  -0.974612E-04
  Summing up the Hartree potential.
  Time summed over all CPUs for potential: real work        0.001 s, elapsed        0.001 s
  | RMS charge density error from multipole expansion :   0.153572E-09

  Integrating Hamiltonian matrix: batch-based integration.
  Time summed over all CPUs for integration: real work        0.024 s, elapsed        0.024 s

  Updating Kohn-Sham eigenvalues, eigenvectors, occupation numbers, and Fermi level.
  Solving generalized eigenproblem
  Updating Kohn-Sham eigenvalues and eigenfunctions.
  Solving real generalised eigenvalue problem by standard LAPACK (fast)
  Updating Kohn-Sham eigenvalues and eigenfunctions.
  Solving real generalised eigenvalue problem by standard LAPACK (fast)

  Obtaining occupation numbers and chemical potential using ELSI.
  | Chemical potential (Fermi level):    -4.59888488eV
  Current spin moment of the entire structure :
  | N = N_up - N_down :    2.00
  | S                 :    1.00
  | J                 :    3.00

  Highest occupied state (VBM) at     -4.61411339 eV
  | Occupation number:      0.66666665
  | Spin channel:        1

  Lowest unoccupied state (CBM) at    -3.29212819 eV
  | Occupation number:      0.00000000
  | Spin channel:        2

  Overall HOMO-LUMO gap:      1.32198520 eV.
  This system has fractional occupation numbers. Thus, it is a degenerate system
  within the approximate finite broadening function (occupation_type)
  applied to determine the occupation numbers.
  This may not be harmful. However, for some systems (free atoms), a different, non-degenerate
  ground state might exist by using a smaller broadening (see keyword occupation_type).

  Total energy components:
  | Sum of eigenvalues            :        -163.31839546 Ha       -4444.11965479 eV
  | XC energy correction          :         -19.64076691 Ha        -534.45246021 eV
  | XC potential correction       :          25.95373992 Ha         706.23719620 eV
  | Free-atom electrostatic energy:        -132.05597225 Ha       -3593.42583649 eV
  | Hartree energy correction     :          -0.11468342 Ha          -3.12069466 eV
  | Entropy correction            :          -0.00070863 Ha          -0.01928279 eV
  | ---------------------------
  | Total energy                  :        -289.17607812 Ha       -7868.88144995 eV
  | Total energy, T -> 0          :        -289.17678675 Ha       -7868.90073274 eV  <-- do not rely on this value for anything but (periodic) metals
  | Electronic free energy        :        -289.17749538 Ha       -7868.92001553 eV

  Derived energy quantities:
  | Kinetic energy                :         289.61332206 Ha        7880.77946279 eV
  | Electrostatic energy          :        -559.14863327 Ha      -15215.20845254 eV
  | Energy correction for multipole
  | error in Hartree potential    :          -0.00000000 Ha          -0.00000000 eV
  | Sum of eigenvalues per atom                           :       -4444.11965479 eV
  | Total energy (T->0) per atom                          :       -7868.90073274 eV  <-- do not rely on this value for anything but (periodic) metals
  | Electronic free energy per atom                       :       -7868.92001553 eV

  Self-consistency convergence accuracy:
  | Change of charge/spin density :  0.9477E-05  0.4872E-05
  | Change of sum of eigenvalues  : -0.7259E-03 eV
  | Change of total energy        : -0.2452E-08 eV

  End self-consistency iteration #     8       :  max(cpu_time)    wall_clock(cpu1)
  | Time for this iteration                    :        0.034 s           0.035 s
  | Charge density update                      :        0.006 s           0.006 s
  | Density mixing                             :        0.001 s           0.001 s
  | Hartree multipole update                   :        0.000 s           0.000 s
  | Hartree multipole summation                :        0.001 s           0.001 s
  | Integration                                :        0.024 s           0.024 s
  | Solution of K.-S. eqns.                    :        0.002 s           0.002 s
  | Total energy evaluation                    :        0.000 s           0.000 s

  Partial memory accounting:
  | Current value for overall tracked memory usage on task 0  :           0.096 MB
  | Peak value for overall tracked memory usage on task 0     :           0.382 MB after allocating wave
  | Largest tracked array allocation on task 0 so far         :           0.101 MB  when allocating H_times_psi
  Note:  These values currently only include a subset of arrays which are explicitly tracked.
  The "true" memory usage will be greater.
------------------------------------------------------------

------------------------------------------------------------
          Begin self-consistency iteration #    9

  Date     :  20190514, Time     :  110834.648
------------------------------------------------------------
  Evaluating new KS density.
  Integration grid: deviation in total charge (<rho> - N_e) =   7.105427E-14
  | <rho_up-rho_dn> = N_up-N_dn =      2.0000; <|rho_up-rho_dn|> =      2.0000
  Pulay mixing of updated and previous charge densities.

  Evaluating partitioned Hartree potential by multipole expansion.
  | Analytical far-field extrapolation by fixed multipoles:
  | Hartree multipole sum: apparent total charge =  -0.974108E-04
  Summing up the Hartree potential.
  Time summed over all CPUs for potential: real work        0.001 s, elapsed        0.001 s
  | RMS charge density error from multipole expansion :   0.234349E-09

  Integrating Hamiltonian matrix: batch-based integration.
  Time summed over all CPUs for integration: real work        0.027 s, elapsed        0.027 s

  Updating Kohn-Sham eigenvalues, eigenvectors, occupation numbers, and Fermi level.
  Solving generalized eigenproblem
  Updating Kohn-Sham eigenvalues and eigenfunctions.
  Solving real generalised eigenvalue problem by standard LAPACK (fast)
  Updating Kohn-Sham eigenvalues and eigenfunctions.
  Solving real generalised eigenvalue problem by standard LAPACK (fast)

  Obtaining occupation numbers and chemical potential using ELSI.
  | Chemical potential (Fermi level):    -4.59900155eV
  Current spin moment of the entire structure :
  | N = N_up - N_down :    2.00
  | S                 :    1.00
  | J                 :    3.00

  Highest occupied state (VBM) at     -4.61423006 eV
  | Occupation number:      0.66666665
  | Spin channel:        1

  Lowest unoccupied state (CBM) at    -3.29224678 eV
  | Occupation number:      0.00000000
  | Spin channel:        2

  Overall HOMO-LUMO gap:      1.32198329 eV.
  This system has fractional occupation numbers. Thus, it is a degenerate system
  within the approximate finite broadening function (occupation_type)
  applied to determine the occupation numbers.
  This may not be harmful. However, for some systems (free atoms), a different, non-degenerate
  ground state might exist by using a smaller broadening (see keyword occupation_type).

  Total energy components:
  | Sum of eigenvalues            :        -163.31853909 Ha       -4444.12356312 eV
  | XC energy correction          :         -19.64075593 Ha        -534.45216150 eV
  | XC potential correction       :          25.95372546 Ha         706.23680267 eV
  | Free-atom electrostatic energy:        -132.05597225 Ha       -3593.42583649 eV
  | Hartree energy correction     :          -0.11453631 Ha          -3.11669153 eV
  | Entropy correction            :          -0.00070863 Ha          -0.01928279 eV
  | ---------------------------
  | Total energy                  :        -289.17607812 Ha       -7868.88144997 eV
  | Total energy, T -> 0          :        -289.17678675 Ha       -7868.90073276 eV  <-- do not rely on this value for anything but (periodic) metals
  | Electronic free energy        :        -289.17749538 Ha       -7868.92001555 eV

  Derived energy quantities:
  | Kinetic energy                :         289.61324798 Ha        7880.77744707 eV
  | Electrostatic energy          :        -559.14857017 Ha      -15215.20673554 eV
  | Energy correction for multipole
  | error in Hartree potential    :           0.00000000 Ha           0.00000000 eV
  | Sum of eigenvalues per atom                           :       -4444.12356312 eV
  | Total energy (T->0) per atom                          :       -7868.90073276 eV  <-- do not rely on this value for anything but (periodic) metals
  | Electronic free energy per atom                       :       -7868.92001555 eV

  Self-consistency convergence accuracy:
  | Change of charge/spin density :  0.8033E-05  0.4141E-05
  | Change of sum of eigenvalues  : -0.3908E-02 eV
  | Change of total energy        : -0.1526E-07 eV

  End self-consistency iteration #     9       :  max(cpu_time)    wall_clock(cpu1)
  | Time for this iteration                    :        0.038 s           0.038 s
  | Charge density update                      :        0.006 s           0.005 s
  | Density mixing                             :        0.001 s           0.001 s
  | Hartree multipole update                   :        0.000 s           0.000 s
  | Hartree multipole summation                :        0.001 s           0.002 s
  | Integration                                :        0.027 s           0.027 s
  | Solution of K.-S. eqns.                    :        0.003 s           0.003 s
  | Total energy evaluation                    :        0.000 s           0.000 s

  Partial memory accounting:
  | Current value for overall tracked memory usage on task 0  :           0.097 MB
  | Peak value for overall tracked memory usage on task 0     :           0.383 MB after allocating wave
  | Largest tracked array allocation on task 0 so far         :           0.101 MB  when allocating H_times_psi
  Note:  These values currently only include a subset of arrays which are explicitly tracked.
  The "true" memory usage will be greater.
------------------------------------------------------------

------------------------------------------------------------
          Begin self-consistency iteration #   10

  Date     :  20190514, Time     :  110834.686
------------------------------------------------------------
  Evaluating new KS density.
  Integration grid: deviation in total charge (<rho> - N_e) =   3.552714E-15
  | <rho_up-rho_dn> = N_up-N_dn =      2.0000; <|rho_up-rho_dn|> =      2.0000
  Pulay mixing of updated and previous charge densities.

  Evaluating partitioned Hartree potential by multipole expansion.
  | Analytical far-field extrapolation by fixed multipoles:
  | Hartree multipole sum: apparent total charge =  -0.974091E-04
  Summing up the Hartree potential.
  Time summed over all CPUs for potential: real work        0.001 s, elapsed        0.001 s
  | RMS charge density error from multipole expansion :   0.205871E-09

  Integrating Hamiltonian matrix: batch-based integration.
  Time summed over all CPUs for integration: real work        0.026 s, elapsed        0.026 s

  Updating Kohn-Sham eigenvalues, eigenvectors, occupation numbers, and Fermi level.
  Solving generalized eigenproblem
  Updating Kohn-Sham eigenvalues and eigenfunctions.
  Solving real generalised eigenvalue problem by standard LAPACK (fast)
  Updating Kohn-Sham eigenvalues and eigenfunctions.
  Solving real generalised eigenvalue problem by standard LAPACK (fast)

  Obtaining occupation numbers and chemical potential using ELSI.
  | Chemical potential (Fermi level):    -4.59900537eV
  Current spin moment of the entire structure :
  | N = N_up - N_down :    2.00
  | S                 :    1.00
  | J                 :    3.00

  Highest occupied state (VBM) at     -4.61423388 eV
  | Occupation number:      0.66666665
  | Spin channel:        1

  Lowest unoccupied state (CBM) at    -3.29225066 eV
  | Occupation number:      0.00000000
  | Spin channel:        2

  Overall HOMO-LUMO gap:      1.32198322 eV.
  This system has fractional occupation numbers. Thus, it is a degenerate system
  within the approximate finite broadening function (occupation_type)
  applied to determine the occupation numbers.
  This may not be harmful. However, for some systems (free atoms), a different, non-degenerate
  ground state might exist by using a smaller broadening (see keyword occupation_type).

  Total energy components:
  | Sum of eigenvalues            :        -163.31854375 Ha       -4444.12368988 eV
  | XC energy correction          :         -19.64075557 Ha        -534.45215182 eV
  | XC potential correction       :          25.95372499 Ha         706.23678991 eV
  | Free-atom electrostatic energy:        -132.05597225 Ha       -3593.42583649 eV
  | Hartree energy correction     :          -0.11453154 Ha          -3.11656169 eV
  | Entropy correction            :          -0.00070863 Ha          -0.01928279 eV
  | ---------------------------
  | Total energy                  :        -289.17607812 Ha       -7868.88144997 eV
  | Total energy, T -> 0          :        -289.17678675 Ha       -7868.90073276 eV  <-- do not rely on this value for anything but (periodic) metals
  | Electronic free energy        :        -289.17749538 Ha       -7868.92001555 eV

  Derived energy quantities:
  | Kinetic energy                :         289.61324557 Ha        7880.77738156 eV
  | Electrostatic energy          :        -559.14856812 Ha      -15215.20667971 eV
  | Energy correction for multipole
  | error in Hartree potential    :          -0.00000000 Ha          -0.00000000 eV
  | Sum of eigenvalues per atom                           :       -4444.12368988 eV
  | Total energy (T->0) per atom                          :       -7868.90073276 eV  <-- do not rely on this value for anything but (periodic) metals
  | Electronic free energy per atom                       :       -7868.92001555 eV

  Self-consistency convergence accuracy:
  | Change of charge/spin density :  0.2452E-06  0.1318E-06
  | Change of sum of eigenvalues  : -0.1268E-03 eV
  | Change of total energy        : -0.5739E-09 eV

  Writing Kohn-Sham eigenvalues.

  Spin-up eigenvalues:

  State    Occupation    Eigenvalue [Ha]    Eigenvalue [eV]
      1       1.00000         -65.497081        -1782.26626
      2       1.00000          -5.094253         -138.62168
      3       1.00000          -3.509428          -95.49639
      4       1.00000          -3.509428          -95.49639
      5       1.00000          -3.509428          -95.49639
      6       1.00000          -0.418081          -11.37657
      7       0.66667          -0.169570           -4.61423
      8       0.66667          -0.169570           -4.61423
      9       0.66667          -0.169570           -4.61423
     10       0.00000           0.011943            0.32499

  Spin-down eigenvalues:

  State    Occupation    Eigenvalue [Ha]    Eigenvalue [eV]
      1       1.00000         -65.490770        -1782.09453
      2       1.00000          -5.086850         -138.42024
      3       1.00000          -3.500127          -95.24331
      4       1.00000          -3.500127          -95.24331
      5       1.00000          -3.500127          -95.24331
      6       1.00000          -0.363701           -9.89681
      7       0.00000          -0.120988           -3.29225
      8       0.00000          -0.120988           -3.29225
      9       0.00000          -0.120988           -3.29225
     10       0.00000           0.028545            0.77674

  Current spin moment of the entire structure :
  | N = N_up - N_down :    2.00
  | S                 :    1.00
  | J                 :    3.00

  Highest occupied state (VBM) at     -4.61423388 eV
  | Occupation number:      0.66666665
  | Spin channel:        1

  Lowest unoccupied state (CBM) at    -3.29225066 eV
  | Occupation number:      0.00000000
  | Spin channel:        2

  Overall HOMO-LUMO gap:      1.32198322 eV.
  This system has fractional occupation numbers. Thus, it is a degenerate system
  within the approximate finite broadening function (occupation_type)
  applied to determine the occupation numbers.
  This may not be harmful. However, for some systems (free atoms), a different, non-degenerate
  ground state might exist by using a smaller broadening (see keyword occupation_type).

  Self-consistency cycle converged.

  End self-consistency iteration #    10       :  max(cpu_time)    wall_clock(cpu1)
  | Time for this iteration                    :        0.036 s           0.036 s
  | Charge density update                      :        0.005 s           0.005 s
  | Density mixing                             :        0.000 s           0.000 s
  | Hartree multipole update                   :        0.000 s           0.001 s
  | Hartree multipole summation                :        0.001 s           0.001 s
  | Integration                                :        0.027 s           0.026 s
  | Solution of K.-S. eqns.                    :        0.002 s           0.002 s
  | Total energy evaluation                    :        0.000 s           0.000 s

  Partial memory accounting:
  | Current value for overall tracked memory usage on task 0  :           0.097 MB
  | Peak value for overall tracked memory usage on task 0     :           0.383 MB after allocating wave
  | Largest tracked array allocation on task 0 so far         :           0.101 MB  when allocating H_times_psi
  Note:  These values currently only include a subset of arrays which are explicitly tracked.
  The "true" memory usage will be greater.
------------------------------------------------------------

  Energy and forces in a compact form:
  | Total energy uncorrected      :         -0.786888144996986E+04 eV
  | Total energy corrected        :         -0.786890073276012E+04 eV  <-- do not rely on this value for anything but (periodic) metals
  | Electronic free energy        :         -0.786892001555038E+04 eV

  ------------------------------------ 
  Start decomposition of the XC Energy 
  ------------------------------------ 
  X and C from original XC functional choice 
  Hartree-Fock Energy :          0.000000000 Ha              0.000000000 eV
  X Energy            :        -18.603421975 Ha           -506.224868390 eV
  C Energy            :         -1.037333599 Ha            -28.227283429 eV
  Total XC Energy     :        -19.640755575 Ha           -534.452151820 eV
  ------------------------------------ 
  LDA X and C from self-consistent density 
  X Energy LDA        :        -18.603421975 Ha           -506.224868390 eV
  C Energy LDA        :         -1.037333599 Ha            -28.227283429 eV
  ------------------------------------ 
  End decomposition of the XC Energy 
  ------------------------------------ 

------------------------------------------------------------

------------------------------------------------------------------------------
  Final output of selected total energy values:

  The following output summarizes some interesting total energy values
  at the end of a run (AFTER all relaxation, molecular dynamics, etc.).

  | Total energy of the DFT / Hartree-Fock s.c.f. calculation      :          -7868.881449970 eV
  | Final zero-broadening corrected energy (caution - metals only) :          -7868.900732760 eV
  | For reference only, the value of 1 Hartree used in FHI-aims is :             27.211384500 eV

  Before relying on these values, please be sure to understand exactly which
  total energy value is referred to by a given number. Different objects may
  all carry the same name 'total energy'. Definitions:

  Total energy of the DFT / Hartree-Fock s.c.f. calculation:
  | Note that this energy does not include ANY quantities calculated after the
  | s.c.f. cycle, in particular not ANY RPA, MP2, etc. many-body perturbation terms.

  Final zero-broadening corrected energy:
  | For metallic systems only, a broadening of the occupation numbers at the Fermi
  | level can be extrapolated back to zero broadening by an electron-gas inspired
  | formula. For all systems that are not real metals, this value can be
  | meaningless and should be avoided.

------------------------------------------------------------------------------
  Methods described in the following list of references were used in this FHI-aims run.
  If you publish the results, please make sure to cite these reference if they apply.
  FHI-aims is an academic code, and for our developers (often, Ph.D. students
  and postdocs), scientific credit in the community is essential.
  Thank you for helping us!

  For any use of FHI-aims, please cite:

    Volker Blum, Ralf Gehrke, Felix Hanke, Paula Havu, Ville Havu,
    Xinguo Ren, Karsten Reuter, and Matthias Scheffler
    'Ab initio molecular simulations with numeric atom-centered orbitals'
    Computer Physics Communications 180, 2175-2196 (2009)
    http://dx.doi.org/10.1016/j.cpc.2009.06.022


  For the real-space grid partitioning and parallelization used in this calculation, please cite:

    Ville Havu, Volker Blum, Paula Havu, and Matthias Scheffler,
    'Efficient O(N) integration for all-electron electronic structure calculation'
    'using numerically tabulated basis functions'
    Journal of Computational Physics 228, 8367-8379 (2009).
    http://dx.doi.org/10.1016/j.jcp.2009.08.008

  Of course, there are many other important community references, e.g., those cited in the
  above references. Our list is limited to references that describe implementations in the
  FHI-aims code. The reason is purely practical (length of this list) - please credit others as well.

------------------------------------------------------------
          Leaving FHI-aims.
          Date     :  20190514, Time     :  110834.729

          Computational steps:
          | Number of self-consistency cycles          :           10
          | Number of SCF (re)initializations          :            1

          Detailed time accounting                     :  max(cpu_time)    wall_clock(cpu1)
          | Total time                                 :        0.633 s           0.634 s
          | Preparation time                           :        0.217 s           0.216 s
          | Boundary condition initalization           :        0.000 s           0.000 s
          | Grid partitioning                          :        0.003 s           0.003 s
          | Preloading free-atom quantities on grid    :        0.001 s           0.001 s
          | Free-atom superposition energy             :        0.004 s           0.004 s
          | Total time for integrations                :        0.280 s           0.281 s
          | Total time for solution of K.-S. equations :        0.023 s           0.025 s
          | Total time for density update              :        0.059 s           0.058 s
          | Total time for mixing                      :        0.005 s           0.004 s
          | Total time for Hartree multipole update    :        0.005 s           0.005 s
          | Total time for Hartree multipole sum       :        0.012 s           0.012 s
          | Total time for total energy evaluation     :        0.001 s           0.000 s
          | Total time for scaled ZORA corrections     :        0.000 s           0.000 s

 This is a stub MPI_ALLREDUCE call.
 You should not be here. Check your
 setting on the use_mpi variable, or
 link against true MPI-libraries.
