[Molden Format]
[GEOMETRIES] XYZ
     4

O        -0.0000   -0.0000    0.0000
H         0.8549   -0.4935   -0.0000
H        -0.8549   -0.4935   -0.0000
H        -0.0000    0.9871   -0.0000
[FREQ]
  -615.027
    -0.049
    -0.002
     0.016
    10.126
    11.450
    16.988
  1541.995
  1542.028
  3547.773
  3676.084
  3676.273
[INT]
     1.503583e+01
     1.212755e+00
     1.212764e+00
     1.213003e+00
     9.853521e-07
     2.122160e-05
     1.667395e-21
     3.474327e+00
     3.473629e+00
     2.459479e-05
     1.663423e+01
     1.663130e+01
[FR-COORD]
     4

O        -0.0000   -0.0001    0.0000
H         1.6155   -0.9326   -0.0000
H        -1.6155   -0.9326   -0.0000
H        -0.0000    1.8653   -0.0000
[FR-NORM-COORD]
vibration      1
    0.0000    0.0000   -0.2050
    0.0000    0.0000    1.0844
    0.0000   -0.0000    1.0844
    0.0000    0.0000    1.0849
vibration      2
   -0.9448   -0.0000   -0.0000
   -0.9398    0.0088   -0.0000
   -0.9398   -0.0088   -0.0000
   -0.9549   -0.0000   -0.0000
vibration      3
   -0.0000    0.9449    0.0000
   -0.0000    0.9449    0.0000
    0.0000    0.9449    0.0000
   -0.0000    0.9449    0.0000
vibration      4
   -0.0000   -0.0000    0.9448
   -0.0000   -0.0000    0.9448
   -0.0000   -0.0000    0.9448
   -0.0000   -0.0000    0.9451
vibration      5
   -0.0000    0.0000   -0.0000
    0.0000    0.0000    0.7717
    0.0000   -0.0000    0.7717
   -0.0000    0.0000   -1.5427
vibration      6
   -0.0019   -0.0000   -0.0000
   -0.5473   -0.9449    0.0000
   -0.5473    0.9449    0.0000
    1.0892   -0.0000   -0.0000
vibration      7
   -0.0000   -0.0000   -0.0000
   -0.0000   -0.0000   -1.3362
   -0.0000    0.0000    1.3362
    0.0000    0.0000   -0.0000
vibration      8
   -0.1306    0.0000   -0.0000
    0.2705    0.7283   -0.0000
    0.2705   -0.7283   -0.0000
    1.5320    0.0000   -0.0000
vibration      9
   -0.0000   -0.1306   -0.0000
    0.7283    1.1115    0.0000
   -0.7283    1.1115   -0.0000
    0.0000   -0.1501   -0.0000
vibration     10
   -0.0000    0.0002    0.0000
    0.9457   -0.5459    0.0000
   -0.9457   -0.5459    0.0000
   -0.0000    1.0892    0.0000
vibration     11
    0.1471    0.0000    0.0000
   -1.1581    0.6582    0.0000
   -1.1581   -0.6582    0.0000
   -0.0179   -0.0000    0.0000
vibration     12
   -0.0000    0.1471   -0.0000
    0.6570   -0.3973    0.0000
   -0.6570   -0.3973    0.0000
    0.0000   -1.5396    0.0000
